G2.5Ocore-PETIM in water
50747
    1aaa     O1    1   2.020   1.482   1.500 -0.6682 -0.3134 -0.3693
    1aaa     C1    2   2.073   1.374   1.578  0.1482  0.3214  0.3302
    1aaa     H1    3   2.060   1.381   1.687 -0.6905 -0.8012  0.3085
    1aaa     H2    4   2.182   1.374   1.566  0.4551  0.4474  2.7452
    1aaa     C2    5   2.085   1.610   1.516  0.3351  0.0404 -0.2604
    1aaa     H3    6   2.033   1.685   1.455  0.7103 -1.4761 -2.4677
    1aaa     H4    7   2.190   1.597   1.488  0.3492  0.1466 -0.2569
    1aaa     C3    8   1.992   1.249   1.543  0.4422  0.0317 -0.6688
    1aaa     H5    9   2.036   1.163   1.595 -1.7473  0.1781  1.5100
    1aaa     H6   10   1.995   1.245   1.433  0.7252 -2.2198 -0.6011
    1aaa     C4   11   2.076   1.660   1.663 -0.1132 -0.1309  0.4535
    1aaa     H7   12   2.122   1.760   1.667  0.7748 -0.5700  1.4484
    1aaa     H8   13   2.137   1.602   1.734 -0.8417 -1.1489  0.2550
    1aaa     C5   14   1.837   1.253   1.573  0.3732  0.4531 -0.2064
    1aaa     H9   15   1.806   1.305   1.664 -3.2361  1.5088 -1.9434
    1aaa    H10   16   1.794   1.322   1.499  0.0732 -0.2796 -0.7212
    1aaa     C6   17   1.930   1.679   1.701 -0.4624 -0.2188 -0.2434
    1aaa    H11   18   1.880   1.582   1.688  0.6746 -0.5343 -2.4940
    1aaa    H12   19   1.874   1.733   1.623 -0.0585  1.1077  0.3715
    1aaa     N1   20   1.779   1.113   1.568 -0.4035  0.3436 -0.1971
    1aaa     N2   21   1.906   1.737   1.832 -0.2224 -0.6146 -0.4209
    1aaa     C7   22   1.889   1.882   1.827  0.0073 -0.3728 -0.7149
    1aaa    H13   23   1.957   1.931   1.756 -0.5712  0.1212 -0.9365
    1aaa    H14   24   1.788   1.905   1.791  0.3705  1.3674 -0.6665
    1aaa     C8   25   1.795   1.664   1.905 -0.4972 -0.2383  0.3447
    1aaa    H15   26   1.820   1.557   1.911 -1.4451 -0.3472  2.8410
    1aaa    H16   27   1.791   1.696   2.010  0.8053 -0.8605  0.6006
    1aaa     C9   28   1.797   1.059   1.428 -0.5532 -0.4537  0.0442
    1aaa    H17   29   1.739   1.108   1.348 -1.9205 -2.5994 -0.3304
    1aaa    H18   30   1.903   1.072   1.403 -0.9421  2.2687 -0.2665
    1aaa    C10   31   1.647   1.090   1.627 -0.0009  0.0360 -0.5418
    1aaa    H19   32   1.625   0.983   1.633  0.2197 -0.0470 -1.1285
    1aaa    H20   33   1.653   1.116   1.733  1.6674 -1.3421 -0.2842
    1aaa    C11   34   1.894   1.962   1.959  0.5002  0.5152  0.2586
    1aaa    H21   35   1.850   1.899   2.037  0.7026  0.2089  0.1288
    1aaa    H22   36   1.995   1.982   1.997  0.5115  0.0059  0.5028
    1aaa    C12   37   1.649   1.683   1.860  0.3229 -0.3269  0.0303
    1aaa    H23   38   1.597   1.618   1.930  2.2292 -3.4418 -1.3370
    1aaa    H24   39   1.632   1.789   1.881  1.4007 -0.3828  1.2634
    1aaa    C13   40   1.763   0.912   1.420  0.1422 -0.5519  0.2632
    1aaa    H25   41   1.823   0.858   1.494  2.1034 -0.6489 -1.3336
    1aaa    H26   42   1.665   0.880   1.457 -0.3784 -0.1013 -0.7134
    1aaa    C14   43   1.537   1.170   1.552  0.0267 -0.1013  0.4203
    1aaa    H27   44   1.521   1.271   1.593 -4.7199 -0.6239  0.0988
    1aaa    H28   45   1.575   1.175   1.449 -0.9831  0.0438  0.0524
    1aaa    C15   46   1.398   1.100   1.558  0.5926 -0.1327  0.2808
    1aaa    H29   47   1.385   1.070   1.663  1.8543  1.2636  0.8498
    1aaa    H30   48   1.325   1.177   1.529  1.6662  0.8500  0.1503
    1aaa    C16   49   1.787   0.852   1.279  0.1240  0.4191 -0.7360
    1aaa    H31   50   1.781   0.743   1.273 -0.9309  0.4266 -0.0253
    1aaa    H32   51   1.706   0.886   1.213 -1.1963  0.2417  0.7584
    1aaa    C17   52   1.607   1.640   1.718 -0.4877 -0.0838  0.0992
    1aaa    H33   53   1.674   1.671   1.636  0.8575 -1.7178  0.5446
    1aaa    H34   54   1.604   1.531   1.720  1.7380 -0.1649  0.1479
    1aaa    C18   55   1.815   2.100   1.954  1.2559  0.0612 -0.5691
    1aaa    H35   56   1.708   2.076   1.959  0.8387  1.5824 -1.7727
    1aaa    H36   57   1.829   2.162   2.043  1.9714 -0.5835 -0.2282
    2bbb     N1   58   1.247   1.103   1.077  0.4713 -0.1202  0.0695
    2bbb     C1   59   1.238   1.154   0.935 -0.2551 -0.7556 -0.2428
    2bbb     H1   60   1.211   1.260   0.938  1.1205 -0.3846 -0.5240
    2bbb     H2   61   1.156   1.101   0.883  0.8508 -1.1044 -1.6613
    2bbb     C2   62   1.116   1.097   1.141  0.6655 -0.0884 -0.1380
    2bbb     H3   63   1.125   1.052   1.240 -1.4027 -0.1977  0.0201
    2bbb     H4   64   1.048   1.037   1.079  1.3257  0.7465 -1.7078
    2bbb     C3   65   1.330   0.981   1.094  0.2568  0.3346 -0.5818
    2bbb     H5   66   1.430   0.993   1.050  0.3884  0.6654 -0.2029
    2bbb     H6   67   1.298   0.900   1.029  1.4696 -0.2697 -0.4432
    2bbb     C4   68   1.348   0.917   1.235 -0.2493  0.4944 -0.6199
    2bbb     H7   69   1.405   0.823   1.231 -0.7549  0.2337 -1.9574
    2bbb     H8   70   1.251   0.897   1.280 -0.5924  0.9800 -1.1379
    2bbb     C5   71   1.371   1.176   0.846 -0.0045  0.4144  0.0910
    2bbb     H9   72   1.345   1.202   0.743  0.6521 -3.2707 -1.1020
    2bbb    H10   73   1.422   1.079   0.835  0.3452  0.6437 -0.3127
    2bbb     C6   74   1.058   1.239   1.158 -0.3985  0.7803 -0.0265
    2bbb    H11   75   0.960   1.232   1.208  0.7366  0.4949  2.2189
    2bbb    H12   76   1.038   1.289   1.063  1.2176 -0.6126 -1.1152
    2bbb     C7   77   1.418   1.018   1.327  0.3682  0.7221 -0.4813
    2bbb    H13   78   1.388   1.121   1.303 -0.6135  0.5619  0.0304
    2bbb    H14   79   1.523   1.004   1.297  0.6832  1.1188  0.3971
    2bbb     C8   80   1.135   1.339   1.244 -0.3028 -0.3534  0.4435
    2bbb    H15   81   1.227   1.364   1.191 -1.2430 -1.7212 -1.8971
    2bbb    H16   82   1.155   1.281   1.335  0.5659 -2.4503 -1.0570
    2bbb     C9   83   1.473   1.278   0.900  0.1868 -0.2913  0.5456
    2bbb    H17   84   1.483   1.250   1.005 -0.7445  2.1624  1.3179
    2bbb    H18   85   1.436   1.381   0.897  0.9476  0.0479  2.4504
    2bbb     O1   86   1.394   0.986   1.469  0.1972 -0.4381  0.4373
    3bbb     N1   87   2.305   1.059   1.079  0.4680  0.7555 -0.8282
    3bbb     C1   88   2.397   1.049   1.199 -0.4545  0.7296 -1.0769
    3bbb     H1   89   2.486   1.109   1.181  1.8044 -2.1750  0.0508
    3bbb     H2   90   2.432   0.949   1.226 -0.4141  1.2848  1.0636
    3bbb     C2   91   2.381   1.029   0.957 -0.2594 -0.7737  0.0862
    3bbb     H3   92   2.433   0.932   0.962 -0.7739 -1.0225  0.6836
    3bbb     H4   93   2.464   1.101   0.952 -0.1355 -0.8749  0.5863
    3bbb     C3   94   2.192   0.962   1.094 -0.2014 -0.1029  0.7169
    3bbb     H5   95   2.201   0.908   1.189 -0.8753  2.5269  2.3150
    3bbb     H6   96   2.202   0.881   1.020  1.5832  1.4146 -0.7145
    3bbb     C4   97   2.052   1.030   1.085  0.3587  0.0907 -0.6252
    3bbb     H7   98   2.043   1.085   0.991  2.2632  2.7658  0.7171
    3bbb     H8   99   2.037   1.107   1.162  2.1604 -0.8243  0.6791
    3bbb     C5  100   2.325   1.098   1.327 -0.2524  0.5049 -0.0476
    3bbb     H9  101   2.239   1.036   1.355 -0.0504 -0.2651 -1.1478
    3bbb    H10  102   2.282   1.198   1.312 -1.7148 -0.1021  0.0632
    3bbb     C6  103   2.306   1.043   0.818  0.0561 -0.3764 -0.0400
    3bbb    H11  104   2.255   1.140   0.818  0.9817  0.1265 -0.4416
    3bbb    H12  105   2.225   0.969   0.815 -0.0886 -0.1909 -0.8842
    3bbb     C7  106   1.933   0.930   1.095  0.3503  0.2943  0.8374
    3bbb    H13  107   1.947   0.833   1.045 -2.3858 -0.6157  1.7009
    3bbb    H14  108   1.844   0.987   1.066 -0.5359 -1.0982  0.7337
    3bbb     C8  109   2.404   1.040   0.695 -0.3679 -0.6842  0.3961
    3bbb    H15  110   2.344   1.069   0.608 -1.5625 -1.9347  0.7845
    3bbb    H16  111   2.434   0.938   0.666 -0.6457 -0.2627 -1.4427
    3bbb     C9  112   2.430   1.108   1.444  0.2193 -0.3021 -0.0811
    3bbb    H17  113   2.503   1.185   1.418  0.0490 -0.9317 -2.5786
    3bbb    H18  114   2.480   1.011   1.455  0.8190 -0.1509 -1.3387
    3bbb     O1  115   1.913   0.903   1.235 -0.3165  0.0316 -0.5001
    4bbb     N1  116   1.406   1.714   1.262 -0.4657 -0.1507 -0.3717
    4bbb     C1  117   1.324   1.725   1.137 -0.0594 -0.1793  0.4232
    4bbb     H1  118   1.245   1.797   1.160  1.2590  1.0223  1.2855
    4bbb     H2  119   1.261   1.637   1.119  0.3180 -0.8417  2.2038
    4bbb     C2  120   1.524   1.626   1.244  0.0410  0.7984 -0.1999
    4bbb     H3  121   1.589   1.630   1.333  4.4808  1.1168 -3.3346
    4bbb     H4  122   1.593   1.661   1.166 -0.7340 -2.7960 -2.5904
    4bbb     C3  123   1.443   1.836   1.333 -0.8138  0.0116 -0.1118
    4bbb     H5  124   1.357   1.903   1.342 -0.8290  0.1603 -1.3178
    4bbb     H6  125   1.513   1.899   1.278 -0.2883  0.4370  1.0388
    4bbb     C4  126   1.502   1.810   1.476 -0.7634 -0.0781 -0.3453
    4bbb     H7  127   1.486   1.905   1.529 -0.6670 -0.1937 -0.1043
    4bbb     H8  128   1.609   1.790   1.466 -0.6488 -0.1649  0.8733
    4bbb     C5  129   1.391   1.786   1.013 -0.8724 -0.1833 -0.1946
    4bbb     H9  130   1.471   1.715   0.991 -1.5408 -0.3779 -2.0678
    4bbb    H10  131   1.438   1.884   1.024 -0.9116 -0.3110  1.3132
    4bbb     C6  132   1.490   1.476   1.215  0.1908  0.1745  0.1698
    4bbb    H11  133   1.436   1.454   1.122 -1.2086  1.0207  0.7641
    4bbb    H12  134   1.417   1.454   1.293  0.6872 -0.7327  0.3800
    4bbb     C7  135   1.431   1.700   1.562 -0.7045  0.1062 -0.4477
    4bbb    H13  136   1.456   1.603   1.518 -2.3782 -0.4653 -0.1634
    4bbb    H14  137   1.322   1.710   1.557 -0.6297  0.1498 -2.5620
    4bbb     C8  138   1.615   1.387   1.255 -0.0978 -0.3800  0.0950
    4bbb    H15  139   1.590   1.280   1.253  0.0679 -0.4333  0.6138
    4bbb    H16  140   1.643   1.422   1.355  0.8050 -1.5599  0.2753
    4bbb     C9  141   1.289   1.793   0.898 -0.0894  0.1587  1.0556
    4bbb    H17  142   1.187   1.807   0.936 -0.4883 -0.7649  0.3443
    4bbb    H18  143   1.295   1.700   0.840 -0.7567  1.5287 -1.2820
    4bbb     O1  144   1.480   1.698   1.697  0.6676 -0.1743  0.6542
    5bbb     N1  145   1.692   2.179   1.475  0.4281 -0.7382 -0.0810
    5bbb     C1  146   1.570   2.268   1.452 -0.8241 -0.0676 -0.4438
    5bbb     H1  147   1.539   2.293   1.554 -0.3430 -0.7518 -0.1263
    5bbb     H2  148   1.492   2.206   1.406 -0.3226 -0.8533 -0.2408
    5bbb     C2  149   1.716   2.097   1.355  0.8537 -0.1755 -0.5962
    5bbb     H3  150   1.756   2.152   1.269 -0.1981  2.4812  0.5488
    5bbb     H4  151   1.614   2.065   1.328  0.8388  2.4213 -3.8400
    5bbb     C3  152   1.812   2.249   1.533 -0.4143  0.5459  0.3106
    5bbb     H5  153   1.856   2.318   1.460  0.1462 -0.3613 -0.2314
    5bbb     H6  154   1.880   2.169   1.566 -0.7086 -0.1267 -0.6901
    5bbb     C4  155   1.797   2.328   1.666 -0.3412  0.0522 -0.6090
    5bbb     H7  156   1.725   2.409   1.650 -1.5273 -0.5733  1.4021
    5bbb     H8  157   1.889   2.383   1.688  0.1571 -1.0641  0.1316
    5bbb     C5  158   1.585   2.406   1.372  0.0178  0.1269 -0.3415
    5bbb     H9  159   1.659   2.464   1.429 -0.0318  0.2373 -0.3894
    5bbb    H10  160   1.494   2.466   1.383 -0.1249 -0.1014 -0.2590
    5bbb     C6  161   1.823   1.985   1.375 -0.5843  0.8950  0.0991
    5bbb    H11  162   1.801   1.937   1.471 -0.9356  2.5183  0.8467
    5bbb    H12  163   1.918   2.039   1.388  0.7340 -1.0117 -1.2576
    5bbb     C7  164   1.738   2.243   1.779  0.6714  0.1745  1.2607
    5bbb    H13  165   1.660   2.181   1.736  0.3505  0.9076  0.7752
    5bbb    H14  166   1.688   2.311   1.849 -2.1758 -0.7342  0.1426
    5bbb     C8  167   1.827   1.875   1.262  0.2350  0.1080  0.3221
    5bbb    H15  168   1.725   1.838   1.244  0.2817  0.1490 -0.0218
    5bbb    H16  169   1.876   1.784   1.296 -0.1273 -0.0253  0.4938
    5bbb     C9  170   1.636   2.398   1.224 -0.4346  0.1130 -0.3958
    5bbb    H17  171   1.738   2.360   1.234  0.5924  2.4675 -1.4911
    5bbb    H18  172   1.647   2.497   1.176 -0.1558 -0.0806 -0.7354
    5bbb     O1  173   1.848   2.168   1.834 -0.5803 -0.1387 -0.0600
    6bbb     N1  174   0.839   1.803   1.431  0.0875 -0.8315  0.7556
    6bbb     C1  175   0.801   1.867   1.308 -0.3123  0.0286  0.1962
    6bbb     H1  176   0.734   1.803   1.248  0.2212  0.8357 -1.3032
    6bbb     H2  177   0.888   1.873   1.241 -1.2323 -0.3724 -1.0509
    6bbb     C2  178   0.905   1.898   1.528 -0.0134 -0.0180  0.1612
    6bbb     H3  179   0.837   1.980   1.554  1.1395  1.0387 -0.1594
    6bbb     H4  180   1.000   1.936   1.491  0.5567 -1.1466  0.4489
    6bbb     C3  181   0.901   1.673   1.410 -0.1597  0.5697 -0.4329
    6bbb     H5  182   0.850   1.617   1.331 -0.6879  0.0562  0.2710
    6bbb     H6  183   0.873   1.607   1.492 -0.5117  1.6624  0.3343
    6bbb     C4  184   1.055   1.672   1.378  0.0694  0.3362  0.1642
    6bbb     H7  185   1.118   1.732   1.444 -1.7220  1.0478  1.2400
    6bbb     H8  186   1.064   1.703   1.273 -1.5963  2.0038  0.4973
    6bbb     C5  187   0.727   2.001   1.310  0.5827 -0.1959  0.0008
    6bbb     H9  188   0.696   2.018   1.206  1.4833  1.3476 -0.0387
    6bbb    H10  189   0.798   2.082   1.331 -0.9550  0.4495  3.0084
    6bbb     C6  190   0.939   1.833   1.661  0.7913 -0.6213 -0.5701
    6bbb    H11  191   0.972   1.915   1.725  1.6913  0.1644 -2.0229
    6bbb    H12  192   1.029   1.771   1.652  0.3341 -1.6474  1.5847
    6bbb     C7  193   1.122   1.529   1.381 -0.7646  0.6079  0.3121
    6bbb    H13  194   1.112   1.485   1.481  0.4984 -2.0631 -0.6769
    6bbb    H14  195   1.225   1.548   1.350 -0.5898 -0.2091  0.3834
    6bbb     C8  196   0.814   1.762   1.732  0.5245  0.0733  0.6153
    6bbb    H15  197   0.807   1.661   1.692 -2.0729  0.1701  0.7287
    6bbb    H16  198   0.716   1.809   1.718  0.0881 -0.3723  2.1361
    6bbb     C9  199   0.604   2.020   1.404  0.2035  0.5784 -0.2840
    6bbb    H17  200   0.591   2.126   1.430 -0.5917  0.6626 -0.9926
    6bbb    H18  201   0.625   1.974   1.501  1.2332  0.1329 -0.7124
    6bbb     O1  202   1.053   1.446   1.284 -0.4275 -0.0545  0.2124
    7bbb     N1  203   1.917   1.096   0.547 -0.1754  0.3594  0.3580
    7bbb     C1  204   2.024   1.006   0.594  0.0206  0.4583  0.6491
    7bbb     H1  205   2.079   1.044   0.680 -0.6369  1.6728  0.5535
    7bbb     H2  206   2.101   1.003   0.516  0.5880  0.3189  1.2166
    7bbb     C2  207   1.963   1.227   0.511 -0.1015 -0.4318  1.1136
    7bbb     H3  208   2.012   1.268   0.601 -0.9116 -1.0072  1.8207
    7bbb     H4  209   1.880   1.290   0.478  0.4838  1.1519  2.5924
    7bbb     C3  210   1.795   1.101   0.636  0.3532 -0.5292 -0.2940
    7bbb     H5  211   1.755   1.000   0.652 -1.6820  0.3893  0.6547
    7bbb     H6  212   1.722   1.167   0.585 -0.4638  0.0638  1.5994
    7bbb     C4  213   1.816   1.164   0.773  0.5149  0.0179 -0.1081
    7bbb     H7  214   1.849   1.268   0.762 -0.3970  0.4850  1.4663
    7bbb     H8  215   1.895   1.112   0.828 -0.4136 -0.4942  0.7525
    7bbb     C5  216   1.981   0.858   0.623 -0.6794 -0.3488  0.5806
    7bbb     H9  217   2.047   0.787   0.571 -1.4018 -0.3097 -0.3941
    7bbb    H10  218   1.886   0.848   0.570  0.2668  2.0654 -1.7209
    7bbb     C6  219   2.076   1.231   0.403  0.0588 -0.6682 -0.3553
    7bbb    H11  220   2.173   1.194   0.439  0.7150  0.7322 -0.6641
    7bbb    H12  221   2.111   1.331   0.376  3.8173 -2.1441 -1.2170
    7bbb     C7  222   1.691   1.165   0.863  0.7163 -0.6728 -0.6932
    7bbb    H13  223   1.725   1.188   0.965 -0.2714  0.3983 -0.6044
    7bbb    H14  224   1.644   1.066   0.855 -0.6280 -0.3223  2.0776
    7bbb     C8  225   2.018   1.161   0.271  0.4267  0.0828 -0.8905
    7bbb    H15  226   1.944   1.232   0.233  3.1033  3.1704 -0.6064
    7bbb    H16  227   1.974   1.062   0.287 -2.6387  1.6926  1.1411
    7bbb     C9  228   1.978   0.815   0.772  0.5825 -0.6284  1.5036
    7bbb    H17  229   1.892   0.861   0.822  0.0465 -0.6167  0.5816
    7bbb    H18  230   2.077   0.840   0.813  0.8227  0.9138  0.0311
    7bbb     O1  231   1.595   1.257   0.820  0.4045  0.0584  0.1281
    8bbb     N1  232   2.812   1.467   0.759  0.2259  0.3171  0.6182
    8bbb     C1  233   2.823   1.607   0.699 -0.2561  0.1877  0.1640
    8bbb     H1  234   2.837   1.597   0.590  0.1266  3.3785 -0.1319
    8bbb     H2  235   2.910   1.655   0.744 -0.2121 -0.3289  0.6268
    8bbb     C2  236   2.944   1.403   0.786  0.4814  1.1724 -0.0592
    8bbb     H3  237   2.993   1.360   0.698 -1.2566 -2.1295  0.5381
    8bbb     H4  238   2.915   1.312   0.839  0.4522  0.6622 -0.9357
    8bbb     C3  239   2.708   1.390   0.688  0.2731  0.3671  0.5270
    8bbb     H5  240   2.700   1.426   0.585  2.6940  0.1234  0.2184
    8bbb     H6  241   2.613   1.415   0.738  0.2123 -0.1331  0.6638
    8bbb     C4  242   2.723   1.237   0.696  0.3636  0.2146 -0.4599
    8bbb     H7  243   2.742   1.213   0.802  1.1315  1.9017 -0.1973
    8bbb     H8  244   2.822   1.220   0.652 -0.8716 -1.2932 -2.7617
    8bbb     C5  245   2.698   1.693   0.725 -0.4668  0.1124  0.3163
    8bbb     H9  246   2.605   1.646   0.691  1.2263 -2.6981 -0.5741
    8bbb    H10  247   2.719   1.779   0.661 -0.2995 -1.1113 -1.3043
    8bbb     C6  248   3.045   1.483   0.873 -0.4135  0.4516 -0.5489
    8bbb    H11  249   3.001   1.507   0.971  2.2256  0.7190  0.6164
    8bbb    H12  250   3.080   1.574   0.824  2.5082  1.0032  2.4151
    8bbb     C7  251   2.615   1.151   0.631  0.3057 -0.1933 -0.4720
    8bbb    H13  252   2.664   1.058   0.599  0.6566 -0.5970  1.1821
    8bbb    H14  253   2.572   1.191   0.539 -1.4806  1.7969  1.1763
    8bbb     C8  254   3.174   1.400   0.908  0.3995  1.0043  0.5044
    8bbb    H15  255   3.251   1.474   0.932 -0.8898  1.6438  2.7883
    8bbb    H16  256   3.208   1.349   0.817 -0.5251  0.5101  0.4284
    8bbb     C9  257   2.713   1.731   0.873  0.2505 -0.2115 -0.1457
    8bbb    H17  258   2.812   1.771   0.898 -0.4840  1.0169  0.8532
    8bbb    H18  259   2.706   1.638   0.931  0.2925 -0.3985 -0.4383
    8bbb     O1  260   2.509   1.134   0.726  0.1895 -0.3978  0.2257
    9bbb     N1  261   2.293   1.310   1.988  0.1365 -0.0663  0.4942
    9bbb     C1  262   2.359   1.251   2.111  0.0183 -0.2318  0.5251
    9bbb     H1  263   2.344   1.142   2.103  0.3572 -0.1101 -2.2127
    9bbb     H2  264   2.313   1.283   2.205  0.1136  4.0406 -0.7728
    9bbb     C2  265   2.244   1.447   2.013 -0.1560 -0.2095 -0.0274
    9bbb     H3  266   2.205   1.484   1.917 -1.0889 -2.3684 -0.4959
    9bbb     H4  267   2.320   1.519   2.045  0.3732 -1.7930  2.4259
    9bbb     C3  268   2.366   1.294   1.863 -0.0440  0.3578  0.4319
    9bbb     H5  269   2.453   1.360   1.856  0.9043 -1.0013 -0.7939
    9bbb     H6  270   2.295   1.322   1.784 -0.1689  0.1533  0.4714
    9bbb     C4  271   2.396   1.151   1.820  0.2937  0.7085  0.4816
    9bbb     H7  272   2.306   1.088   1.818  1.9403 -1.6913 -2.4772
    9bbb     H8  273   2.472   1.120   1.893  0.9076  1.2058  0.0664
    9bbb     C5  274   2.508   1.287   2.125 -0.5190  0.4396  0.4703
    9bbb     H9  275   2.514   1.394   2.147 -0.2623  0.1950  1.6288
    9bbb    H10  276   2.568   1.266   2.036 -1.1092  0.0502  0.1631
    9bbb     C6  277   2.123   1.469   2.107 -0.1103 -0.3972  0.0489
    9bbb    H11  278   2.070   1.563   2.085 -2.0107 -1.7566 -1.3499
    9bbb    H12  279   2.162   1.484   2.208 -0.0227  0.8667 -0.1600
    9bbb     C7  280   2.465   1.141   1.678  0.4261  0.0161 -0.4935
    9bbb    H13  281   2.521   1.048   1.673  0.8945  0.3032 -0.5575
    9bbb    H14  282   2.540   1.221   1.677  2.7792 -2.0568  2.4326
    9bbb     C8  283   2.026   1.351   2.105  0.7750 -0.5462 -0.5179
    9bbb    H15  284   2.074   1.267   2.157 -4.0458 -2.4402  1.1092
    9bbb    H16  285   2.014   1.320   2.000 -1.0925  1.2806 -0.8731
    9bbb     C9  286   2.579   1.208   2.245  0.6337 -1.0462  1.2064
    9bbb    H17  287   2.509   1.185   2.326  1.3204  0.2006  2.1823
    9bbb    H18  288   2.645   1.287   2.283  0.2215  0.0467 -0.2712
    9bbb     O1  289   2.373   1.160   1.568 -0.2862  0.3244  0.3199
   10bbb     N1  290   2.198   1.510   1.053 -0.4371 -0.6856 -0.1184
   10bbb     C1  291   2.202   1.462   0.914 -1.0153  0.7496  0.1706
   10bbb     H1  292   2.099   1.450   0.877 -2.0188 -0.7922  3.2403
   10bbb     H2  293   2.237   1.358   0.925 -2.0950  0.3400 -0.1537
   10bbb     C2  294   2.326   1.551   1.122  0.3188  0.2424 -0.0340
   10bbb     H3  295   2.300   1.596   1.219 -0.6141  1.4709 -0.8473
   10bbb     H4  296   2.387   1.625   1.070  0.5155  2.0970  2.7050
   10bbb     C3  297   2.102   1.446   1.143  0.6646  0.9063 -0.2398
   10bbb     H5  298   2.091   1.503   1.236 -0.1125 -1.5613  1.2478
   10bbb     H6  299   2.143   1.354   1.187 -0.3202 -0.4910 -2.1277
   10bbb     C4  300   1.949   1.424   1.103  0.5646 -0.6397  0.0459
   10bbb     H7  301   1.943   1.346   1.025 -0.0118  0.0779 -0.6359
   10bbb     H8  302   1.918   1.516   1.052  0.4566  0.3220  1.8341
   10bbb     C5  303   2.288   1.533   0.807 -0.3613 -0.7313 -0.0322
   10bbb     H9  304   2.374   1.577   0.858 -0.4607 -0.7291  0.1332
   10bbb    H10  305   2.231   1.618   0.766  1.1781 -0.1834 -1.0812
   10bbb     C6  306   2.418   1.426   1.143 -0.3262 -0.3155  0.4348
   10bbb    H11  307   2.447   1.390   1.043 -0.1642  1.2315 -0.0914
   10bbb    H12  308   2.375   1.339   1.194 -1.0130 -1.0697 -1.3740
   10bbb     C7  309   1.859   1.403   1.221 -0.7975  0.6766 -0.5935
   10bbb    H13  310   1.880   1.475   1.301 -2.1884 -0.7536  1.1140
   10bbb    H14  311   1.859   1.297   1.251 -1.3336  0.3146 -1.8437
   10bbb     C8  312   2.545   1.482   1.209 -0.1408 -0.8415 -0.9081
   10bbb    H15  313   2.530   1.545   1.297  0.9458  0.0338 -1.3470
   10bbb    H16  314   2.596   1.547   1.137 -0.8150 -0.2051 -0.8162
   10bbb     C9  315   2.336   1.441   0.693  0.3824  0.2960  0.1997
   10bbb    H17  316   2.241   1.398   0.659  1.1376 -1.3349  0.0952
   10bbb    H18  317   2.396   1.359   0.736  1.6431  0.7552 -0.6527
   10bbb     O1  318   1.723   1.423   1.165 -0.4063  0.0077  0.1255
   11bbb     N1  319   1.189   2.205   0.453  0.0589  0.5111 -0.0810
   11bbb     C1  320   1.322   2.227   0.385  0.0022  0.7531 -0.0400
   11bbb     H1  321   1.397   2.212   0.464  1.1090 -2.2864 -1.5627
   11bbb     H2  322   1.323   2.329   0.347  1.2988  0.6468 -0.3350
   11bbb     C2  323   1.077   2.229   0.358  0.8545 -0.2647  0.0429
   11bbb     H3  324   0.977   2.208   0.397  0.5539  0.0940 -0.5367
   11bbb     H4  325   1.088   2.153   0.280 -0.3878  0.8085 -1.1908
   11bbb     C3  326   1.174   2.071   0.526 -0.0673  0.4999 -0.3639
   11bbb     H5  327   1.171   1.988   0.454 -2.4130  0.9791 -0.8577
   11bbb     H6  328   1.071   2.068   0.564  0.0223  2.0131  0.0445
   11bbb     C4  329   1.285   2.040   0.635  0.7437 -0.3034 -0.2385
   11bbb     H7  330   1.287   2.130   0.699  1.6943  0.6881 -1.6412
   11bbb     H8  331   1.380   2.018   0.586  0.9581 -3.0888  1.3017
   11bbb     C5  332   1.356   2.143   0.267  0.1985  0.2591  0.2956
   11bbb     H9  333   1.283   2.153   0.185  1.3989  1.5313 -0.6428
   11bbb    H10  334   1.343   2.039   0.297  0.0121  1.1050  3.3396
   11bbb     C6  335   1.081   2.377   0.292 -0.1893 -0.6677  0.2152
   11bbb    H11  336   1.000   2.382   0.219  1.2831  1.6193 -1.3080
   11bbb    H12  337   1.168   2.390   0.227 -0.3979 -1.9989 -0.3449
   11bbb     C7  338   1.255   1.911   0.698 -0.7091 -0.0158 -0.7844
   11bbb    H13  339   1.271   1.829   0.626  0.7882 -1.6899  1.3552
   11bbb    H14  340   1.147   1.920   0.717 -0.4938  1.6723 -0.2816
   11bbb     C8  341   1.053   2.502   0.383  0.0697 -0.2814  0.1044
   11bbb    H15  342   1.009   2.463   0.475  0.2889 -2.3770 -0.6543
   11bbb    H16  343   0.985   2.571   0.331 -0.3133  1.1913  2.4581
   11bbb     C9  344   1.500   2.166   0.215 -0.0570  0.5494  0.7132
   11bbb    H17  345   1.563   2.117   0.290 -2.4022 -1.5421  1.3719
   11bbb    H18  346   1.514   2.275   0.205 -0.1519  0.6334  1.4205
   11bbb     O1  347   1.330   1.904   0.817  0.1020  0.3631  0.2836
   12bbb     N1  348   1.722   1.741   0.736 -0.3894 -0.0330 -0.3029
   12bbb     C1  349   1.619   1.846   0.728  0.8468  0.3642  0.3589
   12bbb     H1  350   1.566   1.850   0.824 -0.7392  1.5649 -0.5378
   12bbb     H2  351   1.542   1.826   0.653  0.8789  0.3362  0.3331
   12bbb     C2  352   1.650   1.610   0.749  0.4493  0.2898  0.4240
   12bbb     H3  353   1.616   1.617   0.853 -0.1821  3.6333  0.0193
   12bbb     H4  354   1.723   1.528   0.742 -1.8111 -1.9113  1.6226
   12bbb     C3  355   1.838   1.756   0.823 -0.2937  0.2948 -0.3677
   12bbb     H5  356   1.902   1.827   0.768 -1.6596  0.1302 -2.2117
   12bbb     H6  357   1.905   1.668   0.827  1.0732  1.3870  1.5040
   12bbb     C4  358   1.802   1.809   0.962  0.3229  0.2701 -0.0777
   12bbb     H7  359   1.744   1.724   0.999  1.2841 -0.2775  0.1836
   12bbb     H8  360   1.750   1.906   0.961  0.9982  0.6345 -0.2753
   12bbb     C5  361   1.671   1.986   0.696 -0.4798 -0.6029  0.2868
   12bbb     H9  362   1.735   2.025   0.776 -0.4128 -0.9138  0.3888
   12bbb    H10  363   1.589   2.057   0.705  0.5850  0.4383  2.1876
   12bbb     C6  364   1.536   1.584   0.647 -0.2243  0.1763 -0.3685
   12bbb    H11  365   1.448   1.648   0.661  0.3941  0.3856  2.9216
   12bbb    H12  366   1.489   1.490   0.680  1.5935 -0.0620  1.6481
   12bbb     C7  367   1.930   1.822   1.049  0.0411 -0.0373 -0.2264
   12bbb    H13  368   2.012   1.867   0.992  0.0262 -0.2537 -0.4170
   12bbb    H14  369   1.964   1.726   1.088  1.2187 -0.0534 -1.2947
   12bbb     C8  370   1.580   1.579   0.499  0.1281 -0.4990  0.1861
   12bbb    H15  371   1.663   1.509   0.484  1.0635  0.8336 -1.0058
   12bbb    H16  372   1.616   1.680   0.478 -1.0397  0.1428  1.1808
   12bbb     C9  373   1.739   1.999   0.552 -0.3282 -0.1269 -0.3363
   12bbb    H17  374   1.659   2.008   0.477 -0.4144 -0.7270 -0.3230
   12bbb    H18  375   1.792   1.907   0.526  0.8221  0.7038 -0.9436
   12bbb     O1  376   1.907   1.922   1.153  0.1284  0.0561 -0.0967
   13bbb     N1  377   1.178   2.194   1.150 -0.4598 -0.1124 -0.3058
   13bbb     C1  378   1.199   2.216   1.294 -0.0078  0.2527 -0.1703
   13bbb     H1  379   1.299   2.254   1.322 -0.5684  1.6852 -0.0389
   13bbb     H2  380   1.190   2.119   1.343  0.9225  0.3483  0.2067
   13bbb     C2  381   1.057   2.114   1.121 -0.0565  0.7712 -0.7775
   13bbb     H3  382   0.983   2.114   1.201 -0.5440 -2.5675 -1.1384
   13bbb     H4  383   1.082   2.007   1.116  1.5797  1.1714 -1.8668
   13bbb     C3  384   1.298   2.136   1.087  0.4102  0.0628 -0.3346
   13bbb     H5  385   1.278   2.056   1.015  1.4803  0.8208 -1.4778
   13bbb     H6  386   1.365   2.089   1.161 -0.6804  0.1845  0.7444
   13bbb     C4  387   1.362   2.251   1.006  0.3538 -0.0343 -0.7525
   13bbb     H7  388   1.285   2.301   0.945 -1.6200 -0.6284  1.1882
   13bbb     H8  389   1.435   2.218   0.931 -1.0352 -0.1018 -2.1201
   13bbb     C5  390   1.094   2.316   1.356 -0.0220 -0.4478 -0.2285
   13bbb     H9  391   0.997   2.266   1.344 -0.6923  0.7627 -0.0283
   13bbb    H10  392   1.086   2.409   1.299 -0.3577  0.9462  2.0161
   13bbb     C6  393   0.994   2.149   0.986 -0.5251  0.4768  1.2311
   13bbb    H11  394   0.931   2.070   0.944 -0.4484  0.5709  0.9328
   13bbb    H12  395   1.077   2.146   0.914 -0.7303 -2.3713  1.0617
   13bbb     C7  396   1.438   2.356   1.095  0.0417 -0.3403 -0.3061
   13bbb    H13  397   1.383   2.407   1.175  0.0774 -0.9193  0.0896
   13bbb    H14  398   1.464   2.435   1.023 -1.5644  0.7494  0.2663
   13bbb     C8  399   0.929   2.299   0.985 -0.7139  0.2596 -0.3133
   13bbb    H15  400   1.016   2.364   0.970 -2.5206  2.4609 -1.6565
   13bbb    H16  401   0.877   2.316   1.080  0.7876  1.5451  0.3007
   13bbb     C9  402   1.124   2.325   1.506 -1.4707  0.0015  0.9815
   13bbb    H17  403   1.051   2.389   1.559 -2.9676 -1.2504  0.4512
   13bbb    H18  404   1.226   2.364   1.519 -1.5093  0.2819  0.4623
   13bbb     O1  405   1.558   2.309   1.142 -0.2193 -0.7238  0.3403
   14ccc     C1  406   0.738   1.702   1.942 -0.0412  0.5752 -0.4350
   14ccc     H1  407   0.649   1.763   1.923 -0.5278 -0.1552 -0.4991
   14ccc     H2  408   0.717   1.598   1.915  1.0590 -0.3272  1.9815
   14ccc     C2  409   0.762   1.705   2.094 -0.0577  0.2760 -0.3540
   14ccc     H3  410   0.676   1.666   2.149 -1.7947  0.4985 -2.8221
   14ccc     H4  411   0.786   1.809   2.120  1.3200 -0.3352  0.9420
   14ccc     C3  412   0.896   1.634   2.131  0.2217 -0.3448  0.4061
   14ccc     H5  413   0.966   1.694   2.071 -0.6081 -0.6512 -0.8731
   14ccc     H6  414   0.909   1.526   2.116  0.1480 -0.2227 -0.5484
   14ccc     N1  415   0.930   1.663   2.275 -0.0528 -0.4205 -0.8690
   14ccc     C4  416   0.836   1.603   2.375  0.4109 -0.0406 -0.4803
   14ccc     H7  417   0.739   1.653   2.369 -0.1155 -0.8755  0.9529
   14ccc     H8  418   0.864   1.631   2.478  0.1877 -1.5598  0.0042
   14ccc     C5  419   0.821   1.454   2.364  0.7562 -0.2928  0.3421
   14ccc     H9  420   0.743   1.429   2.292  1.7001 -0.0834 -0.7594
   14ccc    H10  421   0.914   1.409   2.326  0.2440  0.6916 -2.1783
   14ccc     C6  422   0.798   1.392   2.495 -1.5287 -0.2511  0.5266
   14ccc     O1  423   0.875   1.391   2.586  0.5948  0.0350  0.4202
   14ccc     O2  424   0.687   1.322   2.516  0.4657  0.8460 -0.2812
   14ccc    H11  425   0.652   1.308   2.427 -0.4674  2.1850 -0.1554
   14ccc     C7  426   1.077   1.648   2.299  0.2383 -0.1964 -0.5605
   14ccc    H12  427   1.094   1.541   2.314  0.6425 -0.2503 -1.4155
   14ccc    H13  428   1.129   1.695   2.215 -0.5433  0.1559 -0.8585
   14ccc     C8  429   1.123   1.720   2.433  0.8484  0.1418 -0.3865
   14ccc    H14  430   1.069   1.672   2.516 -0.6524  0.2918 -1.2436
   14ccc    H15  431   1.232   1.716   2.441  0.8239  1.5283  0.9511
   14ccc     C9  432   1.084   1.870   2.437 -0.1659 -0.0413 -0.0675
   14ccc     O3  433   1.061   1.946   2.349  0.2456  0.4101  0.0250
   14ccc     O4  434   1.131   1.930   2.547  0.3160  0.2112 -0.0809
   14ccc    H16  435   1.134   1.852   2.605  0.3517 -0.2760 -0.7384
   14ccc     O5  436   0.849   1.751   1.871  0.2066 -0.4139 -0.1481
   15ccc     C1  437   0.427   2.032   1.236  0.0215  0.0232  0.0955
   15ccc     H1  438   0.384   2.127   1.269 -2.4947 -1.1117  0.1725
   15ccc     H2  439   0.494   2.043   1.149 -0.9927 -0.5406 -0.7822
   15ccc     C2  440   0.303   1.958   1.185 -0.7588  0.2736 -0.2268
   15ccc     H3  441   0.244   2.023   1.119 -0.3716  0.3796 -0.4746
   15ccc     H4  442   0.242   1.923   1.269  0.4728  0.7923  0.9042
   15ccc     C3  443   0.345   1.828   1.111  0.0570 -0.0274  0.4951
   15ccc     H5  444   0.400   1.754   1.171 -1.0207 -0.3521  1.1006
   15ccc     H6  445   0.422   1.861   1.041  1.0929 -0.4230  1.4337
   15ccc     N1  446   0.234   1.763   1.039  0.3917  0.4430  0.1484
   15ccc     C4  447   0.113   1.729   1.128  0.4330  0.1833 -0.7308
   15ccc     H7  448   0.044   1.813   1.143  0.7915  0.9265 -2.9908
   15ccc     H8  449   0.147   1.699   1.227 -2.2381 -0.2668  0.0940
   15ccc     C5  450   0.042   1.606   1.073 -0.3505  0.2952  0.1273
   15ccc     H9  451   0.018   1.629   0.968  0.2974 -0.7698 -0.2583
   15ccc    H10  452   0.120   1.529   1.063  2.3467  2.8831  0.5540
   15ccc     C6  453  -0.084   1.549   1.143  0.3903 -1.0672  0.3895
   15ccc     O1  454  -0.115   1.593   1.251 -0.6246  1.1052 -0.0944
   15ccc     O2  455  -0.180   1.523   1.054  0.1519  0.6650 -0.0538
   15ccc    H11  456  -0.135   1.481   0.978  1.5189 -1.4198  1.8477
   15ccc     C7  457   0.200   1.825   0.911 -0.6871 -0.9240 -0.6155
   15ccc    H12  458   0.093   1.810   0.894 -1.1752  0.4328  1.1192
   15ccc    H13  459   0.210   1.934   0.916 -5.0693 -0.4214 -0.7569
   15ccc     C8  460   0.272   1.752   0.797 -0.4588  0.4947  0.7000
   15ccc    H14  461   0.257   1.807   0.703 -0.7474  0.0054  0.4589
   15ccc    H15  462   0.231   1.651   0.782 -0.6971  0.8441 -1.2136
   15ccc     C9  463   0.421   1.720   0.810  0.6848 -0.1293  0.2816
   15ccc     O3  464   0.465   1.617   0.864 -0.7039  0.0670  0.3091
   15ccc     O4  465   0.505   1.822   0.788  0.3756 -0.0380  0.5530
   15ccc    H16  466   0.445   1.884   0.741 -1.1478 -2.4768 -0.8290
   15ccc     O5  467   0.489   1.963   1.347 -0.4363  0.2059  0.4316
   16ccc     C1  468   2.085   1.088   0.040  0.3089 -1.0566 -0.4758
   16ccc     H1  469   1.982   1.122   0.021  1.5096  4.0371  1.4795
   16ccc     H2  470   2.153   1.114  -0.041  0.2389  0.1942 -0.1379
   16ccc     C2  471   2.091   0.932   0.055 -0.4355  0.1960 -1.0270
   16ccc     H3  472   2.176   0.910   0.122 -1.3536  1.1163  0.4795
   16ccc     H4  473   2.111   0.904  -0.049  1.4750  0.1051 -0.6590
   16ccc     C3  474   1.964   0.858   0.103  0.2227  0.0023  0.0880
   16ccc     H5  475   1.873   0.893   0.053  0.1348 -0.3973 -0.0349
   16ccc     H6  476   1.936   0.891   0.204 -1.1812  2.0300 -0.9365
   16ccc     N1  477   1.977   0.707   0.102 -0.7025 -0.1552  0.4196
   16ccc     C4  478   1.988   0.646  -0.035  0.0058  0.2322 -0.4999
   16ccc     H7  479   2.004   0.538  -0.019 -1.1113  0.3758  1.8050
   16ccc     H8  480   2.081   0.688  -0.077 -1.4201  1.4433 -2.4923
   16ccc     C5  481   1.865   0.677  -0.118 -0.3786  0.7665 -0.1832
   16ccc     H9  482   1.777   0.632  -0.070 -0.6412 -0.8775 -2.1226
   16ccc    H10  483   1.851   0.785  -0.129  0.2011  0.6920 -1.7618
   16ccc     C6  484   1.868   0.608  -0.251  0.0169  0.1950  0.0715
   16ccc     O1  485   1.971   0.580  -0.308  0.2259  0.5008  0.2540
   16ccc     O2  486   1.777   0.660  -0.328 -0.1407 -0.0227  0.8420
   16ccc    H11  487   1.719   0.693  -0.256 -0.7902  0.2767  0.1921
   16ccc     C7  488   2.062   0.654   0.212 -0.2392 -0.6211 -0.4362
   16ccc    H12  489   2.167   0.669   0.187 -0.2574  1.9491  0.7764
   16ccc    H13  490   2.040   0.700   0.310 -0.7206  0.8860 -1.2239
   16ccc     C8  491   2.028   0.503   0.247 -0.0383 -0.1935  0.5235
   16ccc    H14  492   2.051   0.447   0.156  2.1180  0.7961  0.4291
   16ccc    H15  493   1.920   0.505   0.265 -0.1816 -2.1265 -0.0313
   16ccc     C9  494   2.117   0.445   0.363 -0.1701 -0.1539  0.2237
   16ccc     O3  495   2.169   0.514   0.454 -0.1127  0.1922 -0.4526
   16ccc     O4  496   2.110   0.310   0.363  0.2895  0.4464  0.8957
   16ccc    H16  497   2.042   0.301   0.293  1.3285 -0.6235  0.0039
   16ccc     O5  498   2.121   1.150   0.171  0.3524  0.4510 -0.1105
   17ccc     C1  499   1.990   0.605   0.896  0.4851  0.9076 -0.4374
   17ccc     H1  500   2.087   0.622   0.944 -0.1106  0.7920  0.8178
   17ccc     H2  501   1.916   0.643   0.966  0.6201 -1.3819  1.0143
   17ccc     C2  502   1.995   0.450   0.862 -0.3427  0.7259  0.3824
   17ccc     H3  503   1.987   0.397   0.957  0.9139  1.2167  0.7697
   17ccc     H4  504   2.092   0.422   0.820 -1.3841 -0.2569 -1.4115
   17ccc     C3  505   1.876   0.394   0.774  0.3016 -0.0838 -0.2462
   17ccc     H5  506   1.892   0.405   0.666 -0.2876  0.6850 -0.2636
   17ccc     H6  507   1.778   0.433   0.803 -0.6504 -0.7051 -2.4886
   17ccc     N1  508   1.860   0.246   0.790  0.1238  0.3654 -0.7262
   17ccc     C4  509   1.977   0.162   0.768  0.0600 -0.0675  0.5641
   17ccc     H7  510   1.941   0.059   0.783 -1.0171  0.5866  2.7403
   17ccc     H8  511   2.046   0.176   0.853  2.0819 -0.6382 -0.9536
   17ccc     C5  512   2.042   0.177   0.627  0.2594 -0.2171  0.8085
   17ccc     H9  513   1.970   0.173   0.544 -0.1898  1.5398  1.1031
   17ccc    H10  514   2.097   0.272   0.623 -1.3247  0.6505 -1.4225
   17ccc     C6  515   2.140   0.066   0.591  0.1639  0.1849 -0.7254
   17ccc     O1  516   2.152  -0.046   0.644  0.3740  0.7771 -0.5817
   17ccc     O2  517   2.205   0.078   0.471 -0.0190 -0.7149 -0.6048
   17ccc    H11  518   2.175   0.162   0.433  2.8012  1.0120  0.8108
   17ccc     C7  519   1.740   0.190   0.725 -0.1349  0.1505  0.2494
   17ccc    H12  520   1.746   0.189   0.615  2.0492  0.3280  0.3408
   17ccc    H13  521   1.727   0.084   0.748  0.0958 -0.5058 -2.4720
   17ccc     C8  522   1.602   0.255   0.762  0.6047  0.1055 -0.2433
   17ccc    H14  523   1.585   0.254   0.870 -0.2735 -2.7379 -0.3992
   17ccc    H15  524   1.602   0.363   0.740  1.2111  0.3114  0.6939
   17ccc     C9  525   1.484   0.189   0.698  0.5645 -0.1372  0.0515
   17ccc     O3  526   1.486   0.118   0.603 -0.7039  0.1364 -0.2650
   17ccc     O4  527   1.362   0.214   0.756  0.0415  0.3655  0.6643
   17ccc    H16  528   1.393   0.280   0.821  0.1368 -1.6918  2.7875
   17ccc     O5  529   1.966   0.672   0.767 -0.2427 -0.3672  0.1056
   18ccc     C1  530   3.253   1.205   1.048  0.3049 -0.9404  0.0256
   18ccc     H1  531   3.347   1.256   1.075 -0.8310 -0.2321  2.8361
   18ccc     H2  532   3.225   1.148   1.138 -2.4125 -1.6273 -1.2181
   18ccc     C2  533   3.283   1.105   0.934 -0.0346  0.3855 -0.0979
   18ccc     H3  534   3.205   1.095   0.858  0.5921 -0.3330 -0.6579
   18ccc     H4  535   3.290   1.004   0.977 -0.7685  0.5055  0.2954
   18ccc     C3  536   3.413   1.132   0.865  0.4999 -1.0369  0.3180
   18ccc     H5  537   3.491   1.130   0.943  1.3530 -0.0567 -0.4845
   18ccc     H6  538   3.409   1.233   0.821 -2.5813 -0.9193  0.7952
   18ccc     N1  539   3.460   1.033   0.766 -0.8950  0.2397 -0.4745
   18ccc     C4  540   3.377   1.036   0.645  0.3899  0.0066 -0.0725
   18ccc     H7  541   3.305   1.118   0.654 -1.1591 -1.1160 -1.8427
   18ccc     H8  542   3.323   0.942   0.628 -0.2921  0.3594  0.1245
   18ccc     C5  543   3.460   1.067   0.518  0.0136  0.3350 -0.2609
   18ccc     H9  544   3.391   1.105   0.441 -0.3008  0.1815 -0.0597
   18ccc    H10  545   3.528   1.149   0.543  1.6590 -0.8109 -0.8791
   18ccc     C6  546   3.541   0.953   0.453 -0.0128  0.3965 -0.4817
   18ccc     O1  547   3.508   0.830   0.450 -0.6046 -0.3198  0.6371
   18ccc     O2  548   3.661   0.986   0.409  0.3313 -0.0355  0.2916
   18ccc    H11  549   3.658   1.081   0.429  0.4490  0.7125 -2.9731
   18ccc     C7  550   3.497   0.897   0.814  0.3558  0.1050 -0.0312
   18ccc    H12  551   3.438   0.865   0.900  1.8824 -0.1580  0.9331
   18ccc    H13  552   3.505   0.815   0.742 -1.0314  1.7499 -2.1334
   18ccc     C8  553   3.639   0.906   0.885  0.6398  0.5479 -0.0394
   18ccc    H14  554   3.683   1.004   0.863 -0.1222  0.9665  0.2625
   18ccc    H15  555   3.642   0.901   0.994  0.6273 -0.4621 -0.0747
   18ccc     C9  556   3.733   0.797   0.840  0.5114 -0.1725  0.6218
   18ccc     O3  557   3.701   0.686   0.802  0.0163 -0.1663  0.0402
   18ccc     O4  558   3.858   0.826   0.880 -0.6065  0.3623 -0.0648
   18ccc    H16  559   3.850   0.922   0.895  1.1059  0.2958  1.5023
   18ccc     O5  560   3.153   1.310   1.010  0.2567 -0.3989  0.4378
   19ccc     C1  561   2.607   1.858   1.040  1.1106  0.0777  0.0220
   19ccc     H1  562   2.583   1.773   1.105 -0.9440  1.3935  1.0212
   19ccc     H2  563   2.696   1.904   1.085  0.6552  1.1026 -0.1248
   19ccc     C2  564   2.484   1.954   1.060 -0.1931 -0.2867 -0.1954
   19ccc     H3  565   2.507   2.037   0.992 -1.4753  0.4856  0.2951
   19ccc     H4  566   2.484   1.991   1.163 -4.9868  1.3719 -0.6598
   19ccc     C3  567   2.353   1.890   1.027  0.6257  0.0527  0.5668
   19ccc     H5  568   2.319   1.835   1.116  0.5581 -1.0766 -0.1474
   19ccc     H6  569   2.366   1.815   0.948 -0.1652 -1.7060  2.0797
   19ccc     N1  570   2.254   1.996   0.988 -0.2386  0.1369  0.0111
   19ccc     C4  571   2.227   2.080   1.102  0.1390 -0.3419  0.4676
   19ccc     H7  572   2.312   2.147   1.119  1.6350 -1.8192 -0.9511
   19ccc     H8  573   2.200   2.019   1.190 -1.1009  1.3115  1.2538
   19ccc     C5  574   2.103   2.172   1.078  0.4374 -0.5343  0.2961
   19ccc     H9  575   2.132   2.228   0.988  0.7377 -2.0994 -0.6111
   19ccc    H10  576   2.011   2.117   1.058 -2.3001  3.5410  0.9801
   19ccc     C6  577   2.079   2.275   1.189 -0.2375 -0.0959 -0.3947
   19ccc     O1  578   2.169   2.303   1.266  0.2311 -0.2390  0.3751
   19ccc     O2  579   1.993   2.375   1.152  0.2111 -0.0854 -0.1897
   19ccc    H11  580   1.946   2.336   1.076 -3.4798  0.5397  1.6668
   19ccc     C7  581   2.287   2.066   0.860 -0.6695 -0.1061 -0.6372
   19ccc    H12  582   2.214   2.141   0.828 -1.9120 -0.5607  1.0184
   19ccc    H13  583   2.375   2.131   0.862 -1.4383  0.9816 -1.3185
   19ccc     C8  584   2.292   1.975   0.740 -0.1303  0.1258  0.0102
   19ccc    H14  585   2.380   1.909   0.743 -0.4313 -0.2471  0.7101
   19ccc    H15  586   2.205   1.909   0.733 -0.3858  0.3095  1.2753
   19ccc     C9  587   2.300   2.056   0.607 -0.0963  0.1991  0.0051
   19ccc     O3  588   2.305   2.176   0.593  0.3184 -0.9497  0.2351
   19ccc     O4  589   2.291   1.979   0.497 -0.3606  0.5372  0.2758
   19ccc    H16  590   2.262   1.890   0.523  0.3843 -0.6102 -2.6527
   19ccc     O5  591   2.615   1.828   0.896 -0.2365  0.1887  0.0557
   20ccc     C1  592   1.788   1.294   2.163 -0.1956 -0.4455 -0.0808
   20ccc     H1  593   1.768   1.266   2.059  2.5682 -0.3852 -0.6686
   20ccc     H2  594   1.814   1.204   2.219 -0.1885 -0.9632 -0.9186
   20ccc     C2  595   1.660   1.345   2.221 -0.4682  0.5105  0.0277
   20ccc     H3  596   1.588   1.262   2.214 -0.4097  0.6379 -2.7444
   20ccc     H4  597   1.627   1.430   2.161  0.9729 -0.2603 -1.9075
   20ccc     C3  598   1.677   1.379   2.375 -0.1597 -0.0534  0.0525
   20ccc     H5  599   1.744   1.465   2.375 -0.7294  0.3910 -0.1144
   20ccc     H6  600   1.731   1.292   2.415  3.0368  0.7022 -2.4509
   20ccc     N1  601   1.552   1.413   2.440  0.0156  0.5047 -0.7260
   20ccc     C4  602   1.548   1.406   2.589  0.1545 -0.2203 -0.0131
   20ccc     H7  603   1.445   1.407   2.626  0.3263  0.0022  0.4643
   20ccc     H8  604   1.605   1.494   2.623  1.2712 -1.9049  2.6252
   20ccc     C5  605   1.624   1.287   2.653 -0.0380  0.0085 -0.2132
   20ccc     H9  606   1.593   1.195   2.602  0.2687  1.0765 -2.3808
   20ccc    H10  607   1.733   1.292   2.638  0.4502  2.4167  3.5769
   20ccc     C6  608   1.604   1.272   2.805 -0.0570  0.0531  1.8804
   20ccc     O1  609   1.520   1.332   2.871  0.5955 -0.9018  0.3223
   20ccc     O2  610   1.705   1.207   2.872 -0.1610  0.9540  0.3274
   20ccc    H11  611   1.745   1.157   2.798  0.5076  0.8104  0.7775
   20ccc     C7  612   1.471   1.520   2.375 -0.2653  0.1381  0.3276
   20ccc    H12  613   1.478   1.501   2.267  0.4025  1.5177  0.1206
   20ccc    H13  614   1.366   1.501   2.400  0.1033 -0.3492  1.5043
   20ccc     C8  615   1.523   1.663   2.412 -0.2920  0.0165 -0.1255
   20ccc    H14  616   1.501   1.698   2.514 -1.1429  3.5405 -1.4315
   20ccc    H15  617   1.632   1.669   2.402 -0.3365  0.2132 -0.5110
   20ccc     C9  618   1.477   1.767   2.311  0.5520 -0.2506  0.5898
   20ccc     O3  619   1.412   1.751   2.209  0.4187  0.1871 -0.0129
   20ccc     O4  620   1.464   1.885   2.373 -0.3308 -0.1439  0.0980
   20ccc    H16  621   1.495   1.876   2.465 -2.4126  1.2502  0.9752
   20ccc     O5  622   1.895   1.391   2.168  0.2797 -0.4912 -0.0730
   21ccc     C1  623   2.775   1.063   2.268 -0.0148 -0.6407  0.5600
   21ccc     H1  624   2.843   1.148   2.280  0.0870 -0.8122  1.2358
   21ccc     H2  625   2.754   1.025   2.369 -0.8301 -1.9753 -0.1006
   21ccc     C2  626   2.845   0.951   2.190  0.2756 -0.1409 -0.1637
   21ccc     H3  627   2.768   0.874   2.176 -1.2634  0.6831  3.3692
   21ccc     H4  628   2.934   0.923   2.247 -1.0022 -0.5457  1.6836
   21ccc     C3  629   2.883   1.001   2.046  0.3984 -0.3940  1.2370
   21ccc     H5  630   2.951   1.087   2.044 -1.0379  0.7242 -1.4621
   21ccc     H6  631   2.794   1.042   1.998  0.2067 -0.3572  1.6229
   21ccc     N1  632   2.942   0.890   1.962  0.1104 -0.6615  0.5432
   21ccc     C4  633   2.909   0.910   1.816 -0.2708 -0.6121 -0.0961
   21ccc     H7  634   2.975   0.852   1.749 -1.4777 -1.6326 -0.4256
   21ccc     H8  635   2.925   1.016   1.792 -3.4684 -0.2994 -1.0972
   21ccc     C5  636   2.768   0.874   1.779 -0.4552 -0.3977  0.0489
   21ccc     H9  637   2.746   0.778   1.826  0.7145 -0.5210  0.3663
   21ccc    H10  638   2.705   0.956   1.816 -0.8314 -0.2865 -0.8071
   21ccc     C6  639   2.730   0.851   1.633  0.3122  0.8535  0.3607
   21ccc     O1  640   2.804   0.881   1.538  0.0770 -0.1346 -0.4047
   21ccc     O2  641   2.607   0.808   1.603 -0.2425 -0.2450  0.3308
   21ccc    H11  642   2.561   0.786   1.686  0.4401 -0.5283  0.6416
   21ccc     C7  643   3.087   0.860   1.989 -0.4409  0.7915 -0.0168
   21ccc    H12  644   3.151   0.923   1.926 -1.1749  2.8392  1.2303
   21ccc    H13  645   3.110   0.886   2.093 -0.8932 -3.0631  1.1286
   21ccc     C8  646   3.105   0.706   1.978 -0.2578 -0.7078  0.1370
   21ccc    H14  647   3.050   0.651   1.901 -0.4186 -0.7986  0.3171
   21ccc    H15  648   3.209   0.689   1.946 -0.3973 -1.1054 -0.1006
   21ccc     C9  649   3.092   0.628   2.113 -0.5236 -0.2668 -0.5243
   21ccc     O3  650   3.084   0.686   2.218 -0.4468  0.2276 -0.2186
   21ccc     O4  651   3.161   0.514   2.113 -0.3869  0.2990 -0.3097
   21ccc    H16  652   3.202   0.504   2.026  1.9964  2.4142  0.4840
   21ccc     O5  653   2.652   1.095   2.194  0.0758 -0.3270  0.2881
   22ccc     C1  654   2.693   1.283   1.151  0.4108 -0.1342 -0.4113
   22ccc     H1  655   2.624   1.218   1.096  1.4175 -0.0082 -1.8466
   22ccc     H2  656   2.758   1.337   1.081  0.3915  2.6058  1.6237
   22ccc     C2  657   2.796   1.193   1.225  0.4158 -0.4918  0.5657
   22ccc     H3  658   2.753   1.144   1.313  0.6247 -1.6602  0.0333
   22ccc     H4  659   2.878   1.258   1.257  0.3326  0.3075 -0.7887
   22ccc     C3  660   2.857   1.087   1.130 -0.1957  0.1233 -0.0940
   22ccc     H5  661   2.934   1.033   1.187  0.2599  1.0252  0.1557
   22ccc     H6  662   2.912   1.139   1.051 -0.3263  2.2053  1.1231
   22ccc     N1  663   2.766   0.991   1.073  0.3206  0.0027 -0.0271
   22ccc     C4  664   2.704   0.902   1.176  0.1192 -0.5944  0.5897
   22ccc     H7  665   2.611   0.859   1.138  0.5130 -2.0110  1.1958
   22ccc     H8  666   2.662   0.969   1.252  1.9443  1.8817 -0.5209
   22ccc     C5  667   2.794   0.794   1.230  0.3226  0.0767  0.6378
   22ccc     H9  668   2.841   0.740   1.148 -0.9189 -1.2515  0.7845
   22ccc    H10  669   2.868   0.841   1.296  0.0234  0.5566  0.6376
   22ccc     C6  670   2.728   0.689   1.319 -0.0723  0.5306 -0.4529
   22ccc     O1  671   2.622   0.644   1.286  0.1935  0.4121 -0.5023
   22ccc     O2  672   2.802   0.593   1.380  0.2756 -0.0152  0.7838
   22ccc    H11  673   2.892   0.627   1.371 -0.8383  2.1699 -4.1997
   22ccc     C7  674   2.811   0.926   0.947  0.3252 -0.0983 -0.0315
   22ccc    H12  675   2.822   1.008   0.875 -0.9420  0.0280 -0.0980
   22ccc    H13  676   2.909   0.879   0.961  0.1582 -0.6850 -0.7980
   22ccc     C8  677   2.698   0.843   0.874 -0.6058  0.2590  0.2333
   22ccc    H14  678   2.670   0.758   0.937 -2.6201  0.3171 -0.5218
   22ccc    H15  679   2.614   0.913   0.865 -1.3173  0.0045  4.0583
   22ccc     C9  680   2.728   0.805   0.736 -0.0499  0.2676  0.3341
   22ccc     O3  681   2.815   0.847   0.659 -0.3819  0.3238 -0.6341
   22ccc     O4  682   2.619   0.765   0.670  0.4370 -0.0785 -0.1392
   22ccc    H16  683   2.563   0.721   0.736 -0.0983 -0.3703 -0.7789
   22ccc     O5  684   2.639   1.374   1.252 -0.2916  0.0611  0.4301
   23ccc     C1  685   2.438   1.468   0.464  0.2475  0.2712 -0.3102
   23ccc     H1  686   2.492   1.375   0.487 -1.1599 -0.5052 -0.0767
   23ccc     H2  687   2.344   1.456   0.409 -0.0755 -1.9980  0.6681
   23ccc     C2  688   2.526   1.572   0.390 -0.5829  0.1783  0.1197
   23ccc     H3  689   2.603   1.605   0.461 -1.7699 -0.5991  1.8144
   23ccc     H4  690   2.464   1.660   0.371  0.3100  1.8316  4.1982
   23ccc     C3  691   2.584   1.509   0.256  0.2005  0.2116 -0.1032
   23ccc     H5  692   2.622   1.590   0.191  1.3905  0.6159  1.0835
   23ccc     H6  693   2.493   1.473   0.205  1.3219  0.4520 -2.3652
   23ccc     N1  694   2.682   1.400   0.271 -0.1803  0.2405  0.3271
   23ccc     C4  695   2.681   1.303   0.162 -0.2136 -1.0604  0.1709
   23ccc     H7  696   2.767   1.234   0.172  1.3689  0.9338  0.6873
   23ccc     H8  697   2.681   1.347   0.062  0.5702 -0.2554  0.5116
   23ccc     C5  698   2.558   1.211   0.177 -0.3494 -0.1406 -0.1358
   23ccc     H9  699   2.584   1.153   0.266  0.0497 -1.6853 -1.2345
   23ccc    H10  700   2.472   1.278   0.184 -0.3166 -0.0922 -0.1953
   23ccc     C6  701   2.541   1.121   0.058 -0.2077 -0.2310  0.0970
   23ccc     O1  702   2.618   1.116  -0.032  0.4275 -0.0023  0.3950
   23ccc     O2  703   2.442   1.035   0.061 -0.4677 -0.6573 -0.2906
   23ccc    H11  704   2.399   1.049   0.147 -1.8257  1.3733 -1.2495
   23ccc     C7  705   2.817   1.448   0.323  0.2412  0.7338  0.2522
   23ccc    H12  706   2.877   1.503   0.250  0.2205 -0.0046 -0.3288
   23ccc    H13  707   2.805   1.523   0.403  0.5348  1.7702 -0.6607
   23ccc     C8  708   2.910   1.336   0.365 -1.0033  0.9946 -0.4916
   23ccc    H14  709   2.861   1.270   0.437  0.2762 -0.6969 -1.1448
   23ccc    H15  710   2.935   1.275   0.277 -1.9139 -2.2450  1.4379
   23ccc     C9  711   3.036   1.390   0.431  0.3879 -0.2331 -0.4944
   23ccc     O3  712   3.054   1.509   0.459 -0.2043 -0.2750 -0.4392
   23ccc     O4  713   3.129   1.303   0.451 -0.3278  0.3075 -0.5632
   23ccc    H16  714   3.074   1.223   0.454 -0.4555  0.2976 -2.2685
   23ccc     O5  715   2.402   1.524   0.591  0.2379  0.2198 -0.3014
   24ccc     C1  716   1.205   2.673   0.311 -0.5871 -0.5299  0.1463
   24ccc     H1  717   1.210   2.636   0.208 -1.1939 -1.0810  0.3154
   24ccc     H2  718   1.128   2.751   0.303  0.9224  0.7401 -2.7262
   24ccc     C2  719   1.346   2.729   0.349 -0.3058 -0.6655 -0.6480
   24ccc     H3  720   1.331   2.773   0.448  1.8044 -1.3498  0.0210
   24ccc     H4  721   1.382   2.805   0.279 -0.8699  0.9500  0.7982
   24ccc     C3  722   1.451   2.616   0.362 -0.4903  0.3480 -0.0559
   24ccc     H5  723   1.459   2.574   0.261 -1.4640 -2.2265  0.8805
   24ccc     H6  724   1.405   2.544   0.432 -0.4806  0.5949  0.2075
   24ccc     N1  725   1.588   2.659   0.395 -0.7807  0.0794 -0.4352
   24ccc     C4  726   1.694   2.564   0.354  0.4800  0.9492  0.8829
   24ccc     H7  727   1.661   2.463   0.379  0.9457  0.2784 -1.0982
   24ccc     H8  728   1.784   2.600   0.404 -0.0211  2.5206  0.6926
   24ccc     C5  729   1.713   2.579   0.198  0.0211 -0.6515 -0.3796
   24ccc     H9  730   1.796   2.511   0.173 -0.3690 -0.9774 -0.7802
   24ccc    H10  731   1.622   2.557   0.142 -0.7367  2.0801 -0.3089
   24ccc     C6  732   1.751   2.725   0.151 -0.0096  0.8849  0.3141
   24ccc     O1  733   1.807   2.814   0.216  0.1901  0.1055 -0.0980
   24ccc     O2  734   1.768   2.747   0.021  0.5870  0.4340  0.5429
   24ccc    H11  735   1.735   2.666  -0.020  1.0738 -0.0871  1.1851
   24ccc     C7  736   1.594   2.708   0.537 -0.1391  0.0281  0.0907
   24ccc    H12  737   1.506   2.770   0.557 -1.2900 -1.2130 -1.0742
   24ccc    H13  738   1.582   2.627   0.610 -1.9453 -1.9689 -2.3873
   24ccc     C8  739   1.710   2.796   0.565 -0.1811  0.4845 -0.3110
   24ccc    H14  740   1.794   2.760   0.505 -1.2917  1.6639 -2.6689
   24ccc    H15  741   1.693   2.898   0.527  3.3249  1.6013  0.8858
   24ccc     C9  742   1.739   2.808   0.712  0.5811  0.5414  0.3659
   24ccc     O3  743   1.672   2.767   0.803  0.0925 -0.0569  0.6588
   24ccc     O4  744   1.851   2.870   0.739  0.1111  0.2008  0.1610
   24ccc    H16  745   1.884   2.908   0.656  0.6479 -0.0337  0.2654
   24ccc     O5  746   1.178   2.569   0.414  0.6526  0.4685  0.2903
   25ccc     C1  747   1.618   2.143  -0.008  0.0548 -0.5875  0.7126
   25ccc     H1  748   1.604   2.089  -0.103 -1.2814  2.5240 -0.9430
   25ccc     H2  749   1.613   2.248  -0.039  2.7699 -0.6248  0.0011
   25ccc     C2  750   1.757   2.096   0.044  0.1835  0.0459  1.0660
   25ccc     H3  751   1.779   2.156   0.133 -1.6968  0.2437  1.4177
   25ccc     H4  752   1.836   2.115  -0.030  0.1511 -2.0304  0.4463
   25ccc     C3  753   1.759   1.950   0.099  0.4077 -0.2979  0.5414
   25ccc     H5  754   1.740   1.887   0.012  2.4219 -1.0702  0.6359
   25ccc     H6  755   1.682   1.940   0.176  1.1614 -0.8619  1.2363
   25ccc     N1  756   1.897   1.915   0.161 -0.7821  0.3169  0.0168
   25ccc     C4  757   1.890   1.784   0.229  0.3806 -0.1806 -0.2844
   25ccc     H7  758   1.808   1.783   0.301  0.1932  1.6603 -0.4416
   25ccc     H8  759   1.984   1.771   0.284 -0.3648  0.0343  1.0508
   25ccc     C5  760   1.870   1.668   0.127 -0.4619 -0.3204 -0.7750
   25ccc     H9  761   1.780   1.693   0.071 -1.0318 -1.9903 -0.6530
   25ccc    H10  762   1.952   1.658   0.054  0.1881  1.0991 -0.2525
   25ccc     C6  763   1.856   1.535   0.202  0.2892  0.1097 -0.3052
   25ccc     O1  764   1.856   1.523   0.323  0.3014 -0.8900 -0.3544
   25ccc     O2  765   1.783   1.448   0.133 -0.5493 -0.0845 -0.5592
   25ccc    H11  766   1.787   1.475   0.040 -1.2098  0.1579 -0.5205
   25ccc     C7  767   2.011   1.946   0.074  0.6203 -0.1800  0.4329
   25ccc    H12  768   2.014   1.887  -0.018  0.4203 -0.8553  0.8512
   25ccc    H13  769   2.015   2.051   0.042  0.3836  0.5450  2.6688
   25ccc     C8  770   2.147   1.914   0.143  0.2375  0.3851  0.2360
   25ccc    H14  771   2.144   1.965   0.240  0.3840 -1.8331  1.4533
   25ccc    H15  772   2.163   1.806   0.156 -2.0193 -0.1204 -0.8855
   25ccc     C9  773   2.268   1.971   0.077  0.3315 -0.3627  0.1523
   25ccc     O3  774   2.300   2.085   0.073  0.3727 -0.4286 -0.7132
   25ccc     O4  775   2.321   1.891  -0.014  0.2902  0.2090  0.4117
   25ccc    H16  776   2.277   1.808   0.011  2.6100 -1.4064 -0.6498
   25ccc     O5  777   1.517   2.100   0.085  0.4209 -0.2326 -0.0632
   26ccc     C1  778   1.519   1.520   0.270  0.2818  0.0472  0.2728
   26ccc     H1  779   1.596   1.594   0.245  0.6550 -0.1976  0.7053
   26ccc     H2  780   1.558   1.419   0.250  1.3365  0.1718  1.6289
   26ccc     C2  781   1.400   1.544   0.175  0.4058  0.2102 -0.0676
   26ccc     H3  782   1.363   1.646   0.189  0.3805  0.0019  1.5241
   26ccc     H4  783   1.320   1.480   0.215 -0.0466  2.0724  2.1256
   26ccc     C3  784   1.441   1.524   0.027 -0.3351 -0.3041 -0.3263
   26ccc     H5  785   1.524   1.453   0.021  0.2272  0.3070  0.2144
   26ccc     H6  786   1.475   1.624  -0.003  0.3846 -0.7711 -1.0656
   26ccc     N1  787   1.335   1.470  -0.064  0.2064  0.3085 -0.2884
   26ccc     C4  788   1.294   1.327  -0.062  1.0248 -0.3809 -0.4405
   26ccc     H7  789   1.230   1.310  -0.148 -0.4832  0.8874  0.4167
   26ccc     H8  790   1.234   1.301   0.026  0.3221  1.5116 -0.3485
   26ccc     C5  791   1.413   1.223  -0.069  0.1545 -0.1546  0.2316
   26ccc     H9  792   1.461   1.252  -0.164  3.6945 -0.3898  1.8780
   26ccc    H10  793   1.484   1.252   0.009 -1.8221 -0.1479  2.0458
   26ccc     C6  794   1.380   1.067  -0.074 -0.8173 -0.1454  0.9161
   26ccc     O1  795   1.272   1.030  -0.117 -0.9264  0.3201  0.1163
   26ccc     O2  796   1.485   0.989  -0.115  0.1602  0.4810  0.4680
   26ccc    H11  797   1.560   1.039  -0.078  1.1397 -0.6857  0.0933
   26ccc     C7  798   1.219   1.560  -0.073 -0.4554 -0.2646 -0.3567
   26ccc    H12  799   1.150   1.541   0.009 -0.2936 -0.5018 -0.2739
   26ccc    H13  800   1.244   1.666  -0.062 -0.8753  0.1324 -2.9062
   26ccc     C8  801   1.142   1.545  -0.210 -0.1192  0.0093  0.2002
   26ccc    H14  802   1.206   1.573  -0.295  0.2888 -1.0652  0.1398
   26ccc    H15  803   1.106   1.443  -0.229  0.0220 -0.0153  0.0630
   26ccc     C9  804   1.017   1.635  -0.206 -0.2304 -0.3437  0.2958
   26ccc     O3  805   0.999   1.721  -0.122  0.1547 -0.0963 -0.7296
   26ccc     O4  806   0.935   1.627  -0.308 -1.0292  0.2007  0.2292
   26ccc    H16  807   0.973   1.562  -0.369 -3.4408  0.9287 -2.1482
   26ccc     O5  808   1.474   1.541   0.402  0.1203 -0.4183 -0.1300
   27ccc     C1  809   1.912   2.113   0.423  0.5494 -0.4336  0.7541
   27ccc     H1  810   1.972   2.021   0.429  0.4306 -0.5133  0.7204
   27ccc     H2  811   1.857   2.096   0.330  0.1321 -0.2733  0.9693
   27ccc     C2  812   1.995   2.247   0.409 -0.5117 -0.6766 -0.1610
   27ccc     H3  813   2.066   2.247   0.493 -1.8218  2.0210  1.0064
   27ccc     H4  814   1.936   2.338   0.425 -1.1731 -0.7679 -1.9901
   27ccc     C3  815   2.085   2.255   0.279 -0.4533  0.2932 -0.5070
   27ccc     H5  816   2.019   2.247   0.192  1.3860 -1.0662 -1.8177
   27ccc     H6  817   2.155   2.170   0.281  1.4228  1.7560 -1.5108
   27ccc     N1  818   2.160   2.381   0.281  0.3204 -0.7998 -0.2865
   27ccc     C4  819   2.075   2.502   0.253 -0.3233 -0.1333  0.3633
   27ccc     H7  820   1.977   2.502   0.303 -1.5706  2.9638 -1.9184
   27ccc     H8  821   2.052   2.505   0.146  2.6336 -2.8084 -0.4320
   27ccc     C5  822   2.138   2.636   0.307  0.1857 -0.2097 -0.4398
   27ccc     H9  823   2.235   2.655   0.258 -0.4225  3.5766 -0.2827
   27ccc    H10  824   2.075   2.722   0.285 -0.6385 -0.0685  2.3886
   27ccc     C6  825   2.150   2.636   0.455 -0.3204  0.7376 -0.9535
   27ccc     O1  826   2.054   2.616   0.525  0.6095  0.4042 -0.2147
   27ccc     O2  827   2.274   2.615   0.504 -0.5520 -0.1414 -0.1474
   27ccc    H11  828   2.333   2.606   0.428  0.8811 -0.3126  0.9600
   27ccc     C7  829   2.283   2.373   0.207  0.0620 -0.0447  0.4606
   27ccc    H12  830   2.249   2.326   0.114  1.7249  2.7270 -1.6359
   27ccc    H13  831   2.314   2.476   0.187  0.3969 -0.4950 -1.4019
   27ccc     C8  832   2.395   2.288   0.276  0.3849 -0.4512 -0.6269
   27ccc    H14  833   2.430   2.326   0.373  1.0744  1.6270 -1.6448
   27ccc    H15  834   2.370   2.184   0.299 -2.5099  0.0842 -1.0885
   27ccc     C9  835   2.509   2.301   0.186 -0.1579 -0.1288  0.5795
   27ccc     O3  836   2.589   2.393   0.183  0.5380  0.1021 -0.2494
   27ccc     O4  837   2.532   2.201   0.102  0.2174 -0.5056  0.4272
   27ccc    H16  838   2.445   2.157   0.103 -1.8188  3.2477 -0.8570
   27ccc     O5  839   1.823   2.113   0.534 -0.7649  0.2534  0.6070
   28ccc     C1  840   0.898   2.335   0.751  0.2087 -0.5123  0.5843
   28ccc     H1  841   0.947   2.432   0.736  0.7920 -0.9252 -0.2260
   28ccc     H2  842   0.972   2.258   0.727 -0.2334 -1.2347  1.5213
   28ccc     C2  843   0.781   2.328   0.650  0.6529  1.2054  0.4318
   28ccc     H3  844   0.818   2.372   0.557  1.8946 -1.7667 -0.5187
   28ccc     H4  845   0.705   2.390   0.699  1.3040  2.0218  0.4183
   28ccc     C3  846   0.733   2.181   0.627 -0.0569  0.3308 -1.1529
   28ccc     H5  847   0.693   2.144   0.722 -1.7836  1.6189 -1.3553
   28ccc     H6  848   0.816   2.116   0.597  0.0385  0.0253 -0.2467
   28ccc     N1  849   0.628   2.185   0.524 -0.1730  0.1505  0.2780
   28ccc     C4  850   0.672   2.151   0.385 -0.2431  0.0302 -0.1571
   28ccc     H7  851   0.718   2.242   0.346 -0.6213  0.6119  0.7441
   28ccc     H8  852   0.579   2.141   0.327  0.0800  0.9685 -0.8393
   28ccc     C5  853   0.759   2.030   0.359  0.1159  0.5129 -0.1655
   28ccc     H9  854   0.858   2.034   0.406 -0.3423  0.6620  0.7843
   28ccc    H10  855   0.701   1.947   0.401 -1.4491  2.2189  1.1035
   28ccc     C6  856   0.787   2.012   0.213 -0.2722 -0.0429 -0.2883
   28ccc     O1  857   0.818   2.106   0.141  0.2595 -0.7177 -0.3082
   28ccc     O2  858   0.764   1.890   0.164  0.2564 -0.0084 -0.4473
   28ccc    H11  859   0.761   1.827   0.239 -1.3533  0.6395  0.0493
   28ccc     C7  860   0.512   2.278   0.535 -0.6031  0.2020  0.6928
   28ccc    H12  861   0.548   2.379   0.515  1.5102 -0.7027 -0.2114
   28ccc    H13  862   0.439   2.255   0.456 -1.3557  2.9625  0.5558
   28ccc     C8  863   0.435   2.263   0.673 -0.1499  0.1744 -0.0984
   28ccc    H14  864   0.492   2.312   0.753 -0.5955 -0.3841  0.5562
   28ccc    H15  865   0.343   2.322   0.659 -0.0522  0.4193  0.2819
   28ccc     C9  866   0.397   2.128   0.723 -0.6645 -0.1159 -0.2709
   28ccc     O3  867   0.375   2.035   0.649  0.0517  0.1091  0.1064
   28ccc     O4  868   0.428   2.098   0.851  0.7959  0.8008  0.6476
   28ccc    H16  869   0.430   2.191   0.882 -2.5263  1.6567 -1.3693
   28ccc     O5  870   0.836   2.304   0.880 -0.1036 -0.0508 -0.1812
   29ccc     C1  871   1.150   2.183   1.712  0.7350  0.1675 -0.3658
   29ccc     H1  872   1.132   2.271   1.773 -1.0310 -0.0880 -0.4816
   29ccc     H2  873   1.099   2.091   1.746  1.2132  0.1068  0.1899
   29ccc     C2  874   1.295   2.154   1.720 -0.1690  0.8325  0.3552
   29ccc     H3  875   1.356   2.234   1.676  1.2038 -0.1191  0.5017
   29ccc     H4  876   1.327   2.065   1.664  1.6458  1.3357  0.5579
   29ccc     C3  877   1.340   2.140   1.865 -0.0918 -0.3860 -0.2527
   29ccc     H5  878   1.318   2.240   1.906 -0.3653 -0.2802 -0.6578
   29ccc     H6  879   1.448   2.118   1.874  0.7037  2.7156 -1.7082
   29ccc     N1  880   1.265   2.029   1.935 -0.3403 -0.1924  0.3313
   29ccc     C4  881   1.265   2.049   2.082  0.0161  0.0229 -0.3292
   29ccc     H7  882   1.368   2.063   2.116  0.0051 -1.0814  0.1871
   29ccc     H8  883   1.235   1.962   2.142  2.1553 -0.9935 -0.6818
   29ccc     C5  884   1.174   2.166   2.125 -0.1669  0.2169 -0.9065
   29ccc     H9  885   1.172   2.174   2.234  0.5485 -1.9513 -0.7009
   29ccc    H10  886   1.218   2.261   2.092 -0.2741  0.3160 -0.7637
   29ccc     C6  887   1.033   2.151   2.076 -0.3787  0.7422  0.6324
   29ccc     O1  888   1.000   2.223   1.985  0.6394 -0.1524  0.0608
   29ccc     O2  889   0.954   2.056   2.119  0.1872 -0.3360  0.2939
   29ccc    H11  890   1.000   2.033   2.202  3.4197 -0.5774 -1.4784
   29ccc     C7  891   1.302   1.898   1.893  0.3172  0.3181 -0.3513
   29ccc    H12  892   1.304   1.886   1.784  4.3469 -0.2153 -0.3039
   29ccc    H13  893   1.409   1.885   1.915  0.5554  0.6527 -1.2706
   29ccc     C8  894   1.214   1.781   1.939 -0.6518  0.4725 -0.2891
   29ccc    H14  895   1.188   1.796   2.044  2.8985 -1.0636  0.8645
   29ccc    H15  896   1.118   1.777   1.885 -0.2134 -1.4721 -0.9558
   29ccc     C9  897   1.266   1.642   1.912 -0.0562 -0.0744 -0.0204
   29ccc     O3  898   1.233   1.566   1.831  0.4508  0.5678 -0.3909
   29ccc     O4  899   1.338   1.591   2.016 -0.1724  0.2290 -0.3371
   29ccc    H16  900   1.350   1.669   2.074 -1.6479  0.2736 -0.0703
   29ccc     O5  901   1.110   2.193   1.570 -0.2953 -0.1102  0.2901
   30SOL     OW  902   6.550   6.910   1.580 -0.1714 -0.1915  0.0818
   30SOL    HW1  903   6.539   6.931   1.673  1.1275 -0.5790  0.3278
   30SOL    HW2  904   6.591   6.824   1.580 -1.4513 -0.8074 -0.8794
   31SOL     OW  905   5.894   5.689   5.306  0.9167 -0.1214 -0.0174
   31SOL    HW1  906   5.861   5.775   5.281  1.4165 -0.3068 -1.3617
   31SOL    HW2  907   5.928   5.652   5.224  2.2459 -0.8962  0.8673
   32SOL     OW  908   4.587   1.080   5.887 -0.2478 -1.1512 -0.5345
   32SOL    HW1  909   4.661   1.020   5.895  0.1287 -0.7824 -1.1573
   32SOL    HW2  910   4.604   1.127   5.805 -0.3575  0.0503  0.1301
   33SOL     OW  911   4.746   2.050   0.035  0.0893 -0.0387  0.2167
   33SOL    HW1  912   4.686   1.982   0.004 -0.2291  0.8158 -1.0834
   33SOL    HW2  913   4.705   2.132   0.008  1.1868  0.6074  0.5007
   34SOL     OW  914   0.296   0.073   0.491  0.5592  0.3570  0.2893
   34SOL    HW1  915   0.329   0.018   0.562  2.3451  1.6173  0.4621
   34SOL    HW2  916   0.327   0.031   0.411  0.5072  0.2011  0.3513
   35SOL     OW  917   4.978   1.476   3.297  0.1360 -0.5762  0.4439
   35SOL    HW1  918   4.946   1.561   3.269 -0.2980 -0.9698 -0.2563
   35SOL    HW2  919   5.060   1.495   3.343  1.5972 -0.0539 -2.3027
   36SOL     OW  920   4.763   5.879   1.698  0.1940  0.5454  0.3472
   36SOL    HW1  921   4.779   5.815   1.628 -1.5105  0.5881 -0.1101
   36SOL    HW2  922   4.738   5.826   1.773 -0.6374  0.6387  0.1389
   37SOL     OW  923   3.903   6.391   2.159  0.2789  0.1024 -0.3213
   37SOL    HW1  924   3.845   6.420   2.088  1.8407  1.5752 -1.0313
   37SOL    HW2  925   3.967   6.336   2.116 -0.1281 -0.8932  0.3386
   38SOL     OW  926   4.904   3.257   0.119 -0.0945 -0.4131  0.0884
   38SOL    HW1  927   4.917   3.291   0.030  0.6028 -0.9348 -0.0069
   38SOL    HW2  928   4.837   3.189   0.109  1.7062 -2.1573 -0.4385
   39SOL     OW  929   7.557   4.525   0.787 -0.4535  0.5533 -0.4403
   39SOL    HW1  930   7.591   4.444   0.825  0.2779  0.4719 -1.2583
   39SOL    HW2  931   7.587   4.593   0.848  0.0437  0.3434 -0.4429
   40SOL     OW  932   2.387   2.971   4.102  0.4706  0.3567  0.5748
   40SOL    HW1  933   2.477   2.941   4.094  0.6218  0.0587  2.8906
   40SOL    HW2  934   2.336   2.892   4.116  0.3346  0.7948  2.7295
   41SOL     OW  935   0.476   2.247   5.514  0.0085 -0.6444  0.2068
   41SOL    HW1  936   0.451   2.157   5.496  0.5286 -1.1342  1.9084
   41SOL    HW2  937   0.571   2.249   5.506  0.0071 -0.2660  0.2419
   42SOL     OW  938   4.489   0.070   1.569  0.8230 -0.2339  0.4002
   42SOL    HW1  939   4.454  -0.017   1.584  0.0287  0.0195  0.0378
   42SOL    HW2  940   4.584   0.060   1.575  0.8302 -1.4968 -1.7268
   43SOL     OW  941   4.421   3.263   1.781  0.0288  0.0114 -0.1835
   43SOL    HW1  942   4.396   3.302   1.697  0.0706 -3.3487 -1.8327
   43SOL    HW2  943   4.515   3.279   1.787  0.4823 -1.7881 -1.9691
   44SOL     OW  944   7.042   0.878   5.287  0.5863  0.1479 -0.4966
   44SOL    HW1  945   7.021   0.945   5.222 -0.1700  1.0307  0.6503
   44SOL    HW2  946   7.110   0.916   5.341  1.0612 -0.5056 -0.6261
   45SOL     OW  947   7.969   0.842   0.728  0.1212  0.3274 -0.4386
   45SOL    HW1  948   7.961   0.796   0.811 -0.3271 -1.4558 -1.4445
   45SOL    HW2  949   8.061   0.835   0.704  0.5377  2.0656  0.5713
   46SOL     OW  950   7.747   6.750   5.227 -0.6379  0.3191  0.3501
   46SOL    HW1  951   7.837   6.750   5.197 -0.4873 -1.8635  0.6829
   46SOL    HW2  952   7.698   6.796   5.159  0.6995  1.4468  0.1400
   47SOL     OW  953   7.279   5.035   1.671  0.4673  0.0259 -0.4597
   47SOL    HW1  954   7.191   5.052   1.638  0.4243  0.8408  0.0511
   47SOL    HW2  955   7.270   4.958   1.727 -0.1678  0.8375  0.5755
   48SOL     OW  956   0.302   5.253   0.109 -0.3340 -0.4683  0.0772
   48SOL    HW1  957   0.387   5.292   0.127 -0.0403 -1.4317  0.8331
   48SOL    HW2  958   0.314   5.160   0.128 -1.0257 -0.9448 -1.6486
   49SOL     OW  959   7.900   4.054   1.353  0.6649 -0.2442 -0.3586
   49SOL    HW1  960   7.932   4.014   1.433 -1.4233 -2.4071 -0.5882
   49SOL    HW2  961   7.862   4.137   1.381  1.2573 -0.3104  0.6601
   50SOL     OW  962   4.004   5.493   6.372 -0.3048 -0.0717 -0.0469
   50SOL    HW1  963   3.997   5.406   6.335 -0.8892  0.1249 -0.4091
   50SOL    HW2  964   4.046   5.545   6.304  0.3561 -0.1481  0.2998
   51SOL     OW  965   0.301   7.854   4.571  0.0444  0.7735  0.4907
   51SOL    HW1  966   0.276   7.762   4.580  1.6929  0.3898  1.3948
   51SOL    HW2  967   0.266   7.896   4.649  0.6145  0.5918  0.8519
   52SOL     OW  968   7.759   2.564   4.213  0.6511  0.0126  0.1543
   52SOL    HW1  969   7.758   2.469   4.204 -0.9809  0.1056 -0.7936
   52SOL    HW2  970   7.673   2.585   4.249 -0.7954  1.5089 -3.9215
   53SOL     OW  971   6.549   5.821   7.212  0.4850 -0.0232 -0.0918
   53SOL    HW1  972   6.463   5.803   7.250  0.4566  1.2882  0.4891
   53SOL    HW2  973   6.532   5.835   7.119 -0.1825  1.9390  0.3083
   54SOL     OW  974   0.667   6.484   7.791 -0.6061  0.0836 -0.3780
   54SOL    HW1  975   0.760   6.462   7.795 -0.7002 -0.5194 -1.4430
   54SOL    HW2  976   0.623   6.400   7.784 -1.0861  0.4649 -2.2991
   55SOL     OW  977   7.183   2.790   2.461  0.1432 -0.5525 -0.1056
   55SOL    HW1  978   7.104   2.745   2.432 -0.4379  0.5749 -0.3153
   55SOL    HW2  979   7.188   2.869   2.407  0.7229  0.0206  0.7496
   56SOL     OW  980   1.641   5.221   2.385  0.1063 -0.1824  0.4730
   56SOL    HW1  981   1.561   5.170   2.373 -0.1321  0.8216 -2.5613
   56SOL    HW2  982   1.611   5.309   2.405  0.4635 -0.0418  0.3887
   57SOL     OW  983   1.924   5.121   0.692  0.0332 -0.0230 -0.1964
   57SOL    HW1  984   1.856   5.059   0.719 -1.0363  0.6453 -1.2448
   57SOL    HW2  985   2.004   5.070   0.689 -0.4714 -0.8905  0.8512
   58SOL     OW  986   2.530   3.581   7.959 -0.0800 -0.7993 -0.2879
   58SOL    HW1  987   2.509   3.573   8.052 -0.1751  0.2378 -0.2141
   58SOL    HW2  988   2.470   3.648   7.927  0.0970 -1.0043 -1.0540
   59SOL     OW  989   2.570   6.588   7.738  0.0836  0.1215 -0.8952
   59SOL    HW1  990   2.651   6.639   7.746 -0.3503  0.6972  0.0126
   59SOL    HW2  991   2.571   6.553   7.649  0.9759  0.7275 -1.1252
   60SOL     OW  992   4.919   6.232   4.833  0.1703  0.3095  0.6148
   60SOL    HW1  993   4.922   6.196   4.922  0.4760 -0.3675  0.3363
   60SOL    HW2  994   4.934   6.325   4.845  0.1374  0.2363  1.2856
   61SOL     OW  995   2.035   7.945   1.776 -0.6540  0.2648 -0.3781
   61SOL    HW1  996   2.006   7.868   1.727  0.0650 -0.0548 -0.2927
   61SOL    HW2  997   1.969   8.012   1.756 -1.3858 -0.4265 -0.2926
   62SOL     OW  998   1.712   5.574   2.636 -0.7304  0.1685 -0.1035
   62SOL    HW1  999   1.755   5.489   2.642  0.8475  0.8170 -1.6707
   62SOL    HW2 1000   1.777   5.636   2.669 -1.0926  0.9803 -0.8947
   63SOL     OW 1001   2.261   5.254   2.518  0.1399  0.4597  0.7826
   63SOL    HW1 1002   2.256   5.342   2.557 -2.9832  0.8173 -0.3358
   63SOL    HW2 1003   2.341   5.216   2.555  0.2246  2.8498  3.1710
   64SOL     OW 1004   4.873   2.611   1.954  0.2567  0.4337 -0.1800
   64SOL    HW1 1005   4.951   2.578   1.909 -0.8375 -0.0231 -1.7740
   64SOL    HW2 1006   4.821   2.533   1.972  0.6696  0.6125  1.8998
   65SOL     OW 1007   1.269   6.700   6.561 -0.4438 -0.6979 -0.4938
   65SOL    HW1 1008   1.355   6.659   6.571  0.4951  1.0359 -1.2385
   65SOL    HW2 1009   1.209   6.627   6.548  0.8905 -1.9454  0.1888
   66SOL     OW 1010   0.308   0.444   6.751 -0.0812 -0.2279  0.2145
   66SOL    HW1 1011   0.392   0.482   6.724 -0.4476  0.5891  0.2090
   66SOL    HW2 1012   0.282   0.390   6.677  0.1652 -0.0332 -0.0189
   67SOL     OW 1013   3.015   7.482   1.377 -0.1388  0.1646  0.3631
   67SOL    HW1 1014   3.073   7.426   1.428  0.5010 -0.6118 -1.2210
   67SOL    HW2 1015   3.074   7.542   1.331 -0.8477  3.4958  3.4943
   68SOL     OW 1016   4.073   6.114   0.382 -0.0216 -0.2029  0.0068
   68SOL    HW1 1017   4.138   6.054   0.345  0.6529 -1.1007  2.5483
   68SOL    HW2 1018   4.125   6.186   0.417 -0.7040  1.0074 -1.4178
   69SOL     OW 1019   1.924   7.148   6.021  0.2961  0.3275 -0.2932
   69SOL    HW1 1020   1.933   7.236   6.057 -0.8896  0.3434 -0.0065
   69SOL    HW2 1021   1.866   7.159   5.946  0.8316 -0.0751 -0.7637
   70SOL     OW 1022   1.756   2.967   2.962 -0.2491  0.0418  0.0504
   70SOL    HW1 1023   1.778   3.043   3.018 -0.0786  1.4016 -1.8143
   70SOL    HW2 1024   1.674   2.991   2.920 -0.5185 -1.0909 -0.0823
   71SOL     OW 1025   2.760   3.584   4.744  0.0153 -0.1801  0.0163
   71SOL    HW1 1026   2.718   3.578   4.829 -0.7780 -0.6146 -0.3956
   71SOL    HW2 1027   2.853   3.597   4.763 -0.1139 -0.6012  0.9413
   72SOL     OW 1028   7.604   0.651   4.842  0.0961  0.9926 -0.2888
   72SOL    HW1 1029   7.534   0.604   4.795  1.1471 -2.0923  1.0613
   72SOL    HW2 1030   7.596   0.619   4.933  2.0333  2.0685  0.2719
   73SOL     OW 1031   5.234   7.743   0.804 -0.1486  0.3264  0.0369
   73SOL    HW1 1032   5.144   7.722   0.829 -0.0306  0.8456  0.9197
   73SOL    HW2 1033   5.231   7.754   0.709 -0.9208 -0.1334  0.0080
   74SOL     OW 1034   0.015   4.688   0.764  0.0668  0.6042 -0.2758
   74SOL    HW1 1035  -0.066   4.729   0.795  0.2866  0.4614  0.5121
   74SOL    HW2 1036  -0.012   4.600   0.735 -0.0195  0.4550  0.2480
   75SOL     OW 1037   0.397   5.039   2.884 -0.0392 -0.0353 -0.6876
   75SOL    HW1 1038   0.408   4.961   2.938 -0.8515 -1.2137 -2.1681
   75SOL    HW2 1039   0.470   5.036   2.823  1.8942  2.2583  1.4389
   76SOL     OW 1040   2.061   2.719   1.689 -0.1794  0.0306  0.4309
   76SOL    HW1 1041   1.977   2.701   1.647  0.5343  0.0627 -1.0519
   76SOL    HW2 1042   2.108   2.775   1.626  1.1495 -0.4287  0.9911
   77SOL     OW 1043   3.724   6.915   3.756  0.0677 -0.1461  0.1251
   77SOL    HW1 1044   3.684   6.902   3.670 -0.2394 -2.4401  0.5828
   77SOL    HW2 1045   3.816   6.895   3.743  0.2536  0.6897  0.0895
   78SOL     OW 1046   6.181   7.210   5.908 -0.7333  0.0159 -0.2444
   78SOL    HW1 1047   6.168   7.196   6.002 -0.8204 -0.0624 -0.2679
   78SOL    HW2 1048   6.230   7.292   5.903 -2.3688  1.0273 -0.2087
   79SOL     OW 1049   3.606   4.549   4.855  0.1131  0.6250 -0.2507
   79SOL    HW1 1050   3.561   4.476   4.812  0.5292  0.7851 -0.9716
   79SOL    HW2 1051   3.543   4.582   4.919 -0.4527  0.2672 -0.6191
   80SOL     OW 1052   0.283   7.036   1.788  0.3909 -0.0051  0.0872
   80SOL    HW1 1053   0.242   6.982   1.856  0.7275 -0.7581 -0.2955
   80SOL    HW2 1054   0.377   7.019   1.798  0.5246  0.7994  0.2000
   81SOL     OW 1055   7.720   1.501   4.698 -0.7967 -0.1253 -0.3585
   81SOL    HW1 1056   7.731   1.507   4.792 -2.2712  0.7132 -0.2236
   81SOL    HW2 1057   7.784   1.435   4.670 -0.7644 -0.8116  1.2907
   82SOL     OW 1058   5.573   1.607   1.510  0.2474  0.2412 -0.0464
   82SOL    HW1 1059   5.558   1.687   1.459  2.0406 -0.6974 -2.1774
   82SOL    HW2 1060   5.528   1.622   1.593 -0.4579  2.9646 -0.8631
   83SOL     OW 1061   0.386   7.901   3.557  0.3001 -0.1475 -0.1872
   83SOL    HW1 1062   0.357   7.929   3.644 -0.2448  0.4888 -0.5708
   83SOL    HW2 1063   0.373   7.978   3.502  1.0060 -0.4283 -0.7542
   84SOL     OW 1064   4.798   0.185   5.769  0.3478  0.1477  0.0168
   84SOL    HW1 1065   4.721   0.240   5.752  0.5441  0.0055 -1.3445
   84SOL    HW2 1066   4.774   0.098   5.738  0.5541 -0.2333  0.8895
   85SOL     OW 1067   3.118   1.064   2.479 -0.4848  0.1004  0.0931
   85SOL    HW1 1068   3.060   1.113   2.538 -0.0512 -1.0717  1.5060
   85SOL    HW2 1069   3.090   0.973   2.488  1.7828 -0.5210  1.0215
   86SOL     OW 1070   6.045   3.581   3.112  0.1728 -0.5416  0.2329
   86SOL    HW1 1071   6.068   3.623   3.194 -1.7153  0.4640  0.2710
   86SOL    HW2 1072   6.080   3.638   3.044 -0.4755 -0.0225  0.3226
   87SOL     OW 1073   1.453   4.572   1.879  0.1189 -0.4081 -1.0518
   87SOL    HW1 1074   1.378   4.514   1.893  0.8163 -1.4531 -1.5886
   87SOL    HW2 1075   1.420   4.640   1.820 -0.1833 -1.3326 -1.9658
   88SOL     OW 1076   6.536   4.878   0.856 -0.2156  0.1586 -0.2120
   88SOL    HW1 1077   6.525   4.846   0.767  0.6146  0.4617 -0.4330
   88SOL    HW2 1078   6.448   4.899   0.886 -0.3928  1.2188 -1.4022
   89SOL     OW 1079   5.239   0.112   5.948 -0.0185  0.3640 -0.2199
   89SOL    HW1 1080   5.276   0.161   5.875  1.3244 -1.9747 -1.1593
   89SOL    HW2 1081   5.263   0.021   5.931 -0.9499 -0.4197  2.3749
   90SOL     OW 1082   4.468   6.124   5.136 -0.2883  0.1076  0.5639
   90SOL    HW1 1083   4.467   6.076   5.053 -0.0949 -0.7723  1.0650
   90SOL    HW2 1084   4.445   6.214   5.112  1.1479  0.1706 -0.6321
   91SOL     OW 1085   0.381   6.707   5.616 -0.0916  0.3625  0.1328
   91SOL    HW1 1086   0.451   6.643   5.624 -1.3605 -1.0049  0.4453
   91SOL    HW2 1087   0.328   6.695   5.694 -1.7180  0.1121 -0.9833
   92SOL     OW 1088   6.954   3.526   5.071  0.4119  0.4841  0.5726
   92SOL    HW1 1089   6.861   3.531   5.092  0.5477  1.8434  0.9168
   92SOL    HW2 1090   6.972   3.433   5.061 -0.7701  0.1570  1.4804
   93SOL     OW 1091   3.605   7.709   7.482  0.0611 -0.0344  0.3028
   93SOL    HW1 1092   3.570   7.620   7.482 -0.3703  0.1140 -1.7252
   93SOL    HW2 1093   3.528   7.765   7.470  0.5730  0.4951 -0.5363
   94SOL     OW 1094   4.234   1.177   4.363  0.0222  0.2994 -0.5554
   94SOL    HW1 1095   4.156   1.123   4.380 -0.2141  0.5567 -0.8227
   94SOL    HW2 1096   4.203   1.244   4.303  0.4403  0.4400 -0.6078
   95SOL     OW 1097   0.204   1.842   3.739 -0.2785 -0.0440  0.4721
   95SOL    HW1 1098   0.279   1.817   3.685  0.1613  1.8268  0.2007
   95SOL    HW2 1099   0.242   1.883   3.817 -0.9511 -1.6858  1.6892
   96SOL     OW 1100   0.726   0.507   4.736  0.0284 -0.0528  0.1415
   96SOL    HW1 1101   0.776   0.465   4.806  1.4300  0.2511 -0.6553
   96SOL    HW2 1102   0.670   0.571   4.781  0.7905  0.0265  0.9887
   97SOL     OW 1103   5.907   2.241   3.756  0.6212  0.3140 -0.1323
   97SOL    HW1 1104   5.936   2.277   3.672  1.2306  1.1415  0.4223
   97SOL    HW2 1105   5.980   2.187   3.786  0.8385  0.8769  0.3671
   98SOL     OW 1106   7.651   7.951   1.218 -0.5748 -0.0480  0.0815
   98SOL    HW1 1107   7.580   7.901   1.177 -0.0327 -1.3661  0.7207
   98SOL    HW2 1108   7.681   8.011   1.149 -1.4275 -0.3939 -0.6064
   99SOL     OW 1109   7.006   4.425   6.641  0.5023  1.0424 -0.5290
   99SOL    HW1 1110   7.038   4.439   6.552  1.4315 -1.6955 -0.6740
   99SOL    HW2 1111   6.932   4.485   6.649 -0.6017  0.2704 -3.7305
  100SOL     OW 1112   5.830   7.726   6.590 -0.7803 -0.1137 -0.1435
  100SOL    HW1 1113   5.845   7.697   6.500 -1.3255 -0.1365 -0.2324
  100SOL    HW2 1114   5.778   7.806   6.581 -1.8454 -0.7548  0.1734
  101SOL     OW 1115   6.695   2.970   6.203  0.3061 -0.2257 -0.5342
  101SOL    HW1 1116   6.771   3.014   6.167  1.2368 -0.9297  0.5430
  101SOL    HW2 1117   6.664   3.028   6.272 -0.1645  0.0762 -0.9937
  102SOL     OW 1118   2.053   6.055   1.405 -0.4326  0.4503  0.0736
  102SOL    HW1 1119   2.141   6.091   1.394 -0.3424  0.1828 -0.0969
  102SOL    HW2 1120   2.033   6.066   1.498 -0.5914  1.3537 -0.0690
  103SOL     OW 1121   4.038   0.534   0.988 -0.3641 -0.3378  0.0129
  103SOL    HW1 1122   4.039   0.534   0.892  0.5804 -0.3052  0.0160
  103SOL    HW2 1123   3.980   0.461   1.011 -0.1867 -0.6751 -0.5849
  104SOL     OW 1124   3.084   4.076   4.072  0.1112  0.0914  0.2154
  104SOL    HW1 1125   3.141   4.024   4.015 -1.2013  0.9794 -1.9661
  104SOL    HW2 1126   3.028   4.012   4.115  0.2759 -0.5011 -0.4389
  105SOL     OW 1127   1.742   4.965   1.750 -0.3541 -0.3577 -0.6370
  105SOL    HW1 1128   1.668   4.978   1.809 -0.8553  1.3246 -1.5918
  105SOL    HW2 1129   1.734   4.875   1.720 -2.3633 -0.0103 -1.1862
  106SOL     OW 1130   1.250   4.409   1.904 -0.2044 -0.4779  0.4657
  106SOL    HW1 1131   1.261   4.400   1.998 -2.9965  0.2700  0.9151
  106SOL    HW2 1132   1.242   4.319   1.872 -2.8369 -0.6536  1.4774
  107SOL     OW 1133   1.390   0.700   2.143 -0.1563 -0.4883  0.0156
  107SOL    HW1 1134   1.306   0.654   2.143 -1.6589  2.1161  0.7349
  107SOL    HW2 1135   1.413   0.708   2.236 -0.1596  0.5904 -0.0676
  108SOL     OW 1136   0.043   5.444   1.668 -0.1035  0.0138  0.1264
  108SOL    HW1 1137  -0.035   5.403   1.630  1.7533 -1.2644 -2.4888
  108SOL    HW2 1138   0.070   5.384   1.738 -0.6052 -0.2987  0.0553
  109SOL     OW 1139   4.655   3.104   2.544  0.2607 -0.3080  0.0223
  109SOL    HW1 1140   4.579   3.046   2.532  0.6962 -0.7646 -0.5383
  109SOL    HW2 1141   4.653   3.127   2.637 -1.9910  1.6681 -0.4624
  110SOL     OW 1142   0.546   4.632   1.999  0.2203 -0.0111 -0.2987
  110SOL    HW1 1143   0.526   4.543   2.027  0.7517  0.1515  0.6225
  110SOL    HW2 1144   0.636   4.646   2.028  0.0300  0.9426 -0.1625
  111SOL     OW 1145   3.797   4.593   1.795 -0.1582 -0.1960  0.3588
  111SOL    HW1 1146   3.878   4.635   1.766 -0.3147  0.7531  1.2724
  111SOL    HW2 1147   3.784   4.521   1.733  0.6678  0.4585 -0.5957
  112SOL     OW 1148   3.487   1.417   2.436 -0.8911  0.8761  0.3535
  112SOL    HW1 1149   3.535   1.354   2.383 -0.4493  1.6601 -0.1856
  112SOL    HW2 1150   3.438   1.363   2.499  0.0443  0.0374  0.3777
  113SOL     OW 1151   4.330   2.942   6.810  0.5406  0.1691  0.7106
  113SOL    HW1 1152   4.321   2.934   6.715  1.1104 -0.2932  0.6880
  113SOL    HW2 1153   4.310   2.854   6.844  0.8024  0.2075  0.9741
  114SOL     OW 1154   1.699   0.124   7.819 -0.7451  0.4261 -0.5082
  114SOL    HW1 1155   1.703   0.072   7.738  1.3024 -0.5354  0.1817
  114SOL    HW2 1156   1.670   0.062   7.886  0.9150  0.3620  0.1637
  115SOL     OW 1157   6.196   2.532   1.170  0.9521  0.3460  0.3304
  115SOL    HW1 1158   6.225   2.459   1.115 -0.1879  1.2933 -1.6064
  115SOL    HW2 1159   6.102   2.537   1.155  1.2657  3.3078 -0.9536
  116SOL     OW 1160   7.570   6.149   7.116 -0.5763 -0.1326  0.2923
  116SOL    HW1 1161   7.608   6.061   7.114 -1.5439 -0.5708  0.7567
  116SOL    HW2 1162   7.544   6.166   7.026 -0.4576 -0.3576  0.2141
  117SOL     OW 1163   2.707   2.266   4.995 -0.2791 -0.4519 -0.1130
  117SOL    HW1 1164   2.794   2.227   5.008 -0.8781 -1.2447  1.6912
  117SOL    HW2 1165   2.705   2.290   4.902  2.3347  0.7712  0.1086
  118SOL     OW 1166   6.820   0.258   6.027  0.3888 -0.3602 -0.3927
  118SOL    HW1 1167   6.827   0.327   5.961  0.8390 -0.6909 -0.6978
  118SOL    HW2 1168   6.744   0.207   6.001  0.2986 -0.2221 -0.3996
  119SOL     OW 1169   7.370   4.231   6.586 -0.5198  0.0768  0.0168
  119SOL    HW1 1170   7.306   4.280   6.536 -1.3325 -0.1265  0.8475
  119SOL    HW2 1171   7.451   4.282   6.579 -0.4604 -0.2875 -2.0091
  120SOL     OW 1172   2.721   3.841   6.329  0.3489  0.2309  0.6172
  120SOL    HW1 1173   2.716   3.924   6.281 -1.0008  1.0280  2.0751
  120SOL    HW2 1174   2.640   3.796   6.307  0.3258  0.0281  1.1173
  121SOL     OW 1175   4.639   5.618   6.034  0.3532  0.7686  0.1405
  121SOL    HW1 1176   4.579   5.551   6.067  0.3033  0.7222 -0.0435
  121SOL    HW2 1177   4.636   5.688   6.100  0.6841  0.4311  0.5125
  122SOL     OW 1178   3.188   2.521   3.522 -0.0166 -0.2605 -0.4882
  122SOL    HW1 1179   3.108   2.551   3.563 -0.0824 -0.2036 -0.6577
  122SOL    HW2 1180   3.247   2.501   3.595  0.0241  0.2651 -0.3800
  123SOL     OW 1181   7.075   0.440   5.088  0.0760  0.2758  0.3069
  123SOL    HW1 1182   7.031   0.485   5.015 -2.5319 -0.3317  1.4342
  123SOL    HW2 1183   7.071   0.503   5.160  3.0246  1.0370 -0.1498
  124SOL     OW 1184   6.303   5.058   3.684 -0.1174  0.1967 -0.0592
  124SOL    HW1 1185   6.337   5.146   3.699 -0.0055  0.1822 -0.2224
  124SOL    HW2 1186   6.224   5.072   3.631 -0.9719  0.3015  1.2327
  125SOL     OW 1187   5.470   3.084   0.151 -0.2089 -0.2168 -0.0294
  125SOL    HW1 1188   5.510   3.006   0.112  1.6171  0.4399  0.4619
  125SOL    HW2 1189   5.408   3.049   0.215 -1.8601 -1.2742 -2.1642
  126SOL     OW 1190   7.037   4.604   6.403 -0.4415 -0.1064 -0.3639
  126SOL    HW1 1191   7.035   4.697   6.425 -0.5454  0.1356 -1.3915
  126SOL    HW2 1192   6.955   4.589   6.355  0.0307 -0.5261 -1.0364
  127SOL     OW 1193   6.110   4.196   3.839 -0.7013  0.1070  0.1155
  127SOL    HW1 1194   6.130   4.199   3.932 -0.3890  1.2854  0.0209
  127SOL    HW2 1195   6.028   4.244   3.830 -0.7288  0.0054 -0.2192
  128SOL     OW 1196   3.687   1.576   7.285 -0.5822  0.5476  0.0998
  128SOL    HW1 1197   3.770   1.613   7.315 -1.0874  0.6549  1.4173
  128SOL    HW2 1198   3.674   1.613   7.198  2.0305 -1.5415 -1.2501
  129SOL     OW 1199   7.936   6.290   5.229  0.0227  0.1860  0.1987
  129SOL    HW1 1200   7.971   6.377   5.211  0.6023 -0.2741 -0.9538
  129SOL    HW2 1201   7.953   6.240   5.149 -1.8244 -0.5087  0.2051
  130SOL     OW 1202   0.269   5.810   2.682 -0.4702 -0.0177 -0.2149
  130SOL    HW1 1203   0.310   5.789   2.598 -1.1834  0.3344 -0.6585
  130SOL    HW2 1204   0.271   5.728   2.731  2.6050  0.4638  0.5787
  131SOL     OW 1205   2.150   2.465   4.996  0.3742 -0.0832 -0.3108
  131SOL    HW1 1206   2.150   2.436   4.905  1.0161 -0.6155 -0.1434
  131SOL    HW2 1207   2.063   2.441   5.028  0.3977 -0.5363 -0.5802
  132SOL     OW 1208   0.003   4.121   7.637  0.3476 -0.4762 -0.3103
  132SOL    HW1 1209  -0.084   4.137   7.672  0.4639 -0.2938 -0.1041
  132SOL    HW2 1210   0.063   4.156   7.703  0.5737 -0.4266 -0.5408
  133SOL     OW 1211   1.907   3.153   3.102 -0.3333 -0.2137 -0.0986
  133SOL    HW1 1212   1.868   3.240   3.112 -0.7152 -0.4582  0.5128
  133SOL    HW2 1213   1.998   3.171   3.078 -0.8454  0.3596 -1.6865
  134SOL     OW 1214   3.558   5.162   7.413  0.5296 -0.5125 -0.4065
  134SOL    HW1 1215   3.534   5.111   7.336  0.4874 -1.4971  0.2551
  134SOL    HW2 1216   3.475   5.177   7.458  0.6565 -0.6274 -0.1332
  135SOL     OW 1217   4.879   4.087   2.993 -0.4529  0.4623  0.0763
  135SOL    HW1 1218   4.811   4.022   2.975 -0.3603  0.6647 -1.0523
  135SOL    HW2 1219   4.959   4.048   2.956  0.0511  0.2214  1.4015
  136SOL     OW 1220   4.451   3.138   0.449  0.1076 -0.3401 -0.2316
  136SOL    HW1 1221   4.473   3.054   0.408  2.2885 -0.5019  1.1779
  136SOL    HW2 1222   4.427   3.115   0.539 -2.4801  0.2429 -0.7161
  137SOL     OW 1223   3.786   0.353   0.631 -0.3550 -0.0141 -0.6632
  137SOL    HW1 1224   3.782   0.448   0.637 -2.9069 -0.1017 -0.4046
  137SOL    HW2 1225   3.854   0.336   0.565  0.5185  1.9429 -0.3121
  138SOL     OW 1226   7.454   4.294   0.164  0.0346  0.7317 -0.1540
  138SOL    HW1 1227   7.394   4.365   0.186 -0.8636 -0.5969  1.9775
  138SOL    HW2 1228   7.541   4.329   0.182 -0.5187  0.6218  3.2020
  139SOL     OW 1229   5.463   4.463   7.185  0.1466  0.3387 -0.0134
  139SOL    HW1 1230   5.416   4.395   7.136 -1.0125  1.6054 -0.6983
  139SOL    HW2 1231   5.428   4.545   7.151 -0.0651  1.2585  2.3558
  140SOL     OW 1232   7.408   4.023   4.167 -0.0097  0.1472 -0.3804
  140SOL    HW1 1233   7.380   4.107   4.204 -2.1351 -0.5724 -0.2992
  140SOL    HW2 1234   7.441   4.046   4.080  0.6009  1.2235  0.1192
  141SOL     OW 1235   1.790   1.404   7.390 -0.1640  0.1295 -0.3868
  141SOL    HW1 1236   1.873   1.359   7.403 -0.2877  0.0509  0.1319
  141SOL    HW2 1237   1.748   1.402   7.476 -0.7782  0.0193 -0.6908
  142SOL     OW 1238   3.491   6.746   3.233 -0.0025 -0.3157 -0.4013
  142SOL    HW1 1239   3.458   6.735   3.144  3.7474  0.3991 -1.9887
  142SOL    HW2 1240   3.585   6.730   3.226  0.2223 -1.3984  3.6837
  143SOL     OW 1241   1.386   0.197   1.912 -0.1576  0.2050 -1.1752
  143SOL    HW1 1242   1.319   0.255   1.875  0.1536  1.3059 -0.0233
  143SOL    HW2 1243   1.337   0.139   1.970 -0.0802  1.2406 -0.0577
  144SOL     OW 1244   1.775   4.847   4.602  0.4603  0.3063 -0.8124
  144SOL    HW1 1245   1.729   4.912   4.655  0.3993  0.8096 -1.4719
  144SOL    HW2 1246   1.734   4.852   4.516  1.4305  0.4432 -1.2833
  145SOL     OW 1247   2.012   5.248   7.832  0.1466  0.0259  0.0599
  145SOL    HW1 1248   2.015   5.238   7.737 -1.8644  1.3955 -0.1793
  145SOL    HW2 1249   1.955   5.178   7.863  0.3515 -0.0829  0.1915
  146SOL     OW 1250   5.968   6.142   4.871 -0.0213  0.0125  0.2403
  146SOL    HW1 1251   5.994   6.054   4.899 -0.0288 -0.1296 -0.2058
  146SOL    HW2 1252   5.987   6.144   4.777  1.8515  1.1514  0.6034
  147SOL     OW 1253   6.016   1.124   2.109  0.0943 -0.4893  0.5955
  147SOL    HW1 1254   5.968   1.202   2.080  0.3187 -0.3416  0.6171
  147SOL    HW2 1255   5.985   1.110   2.198  0.3207 -0.2069  0.7218
  148SOL     OW 1256   0.235   0.814   4.887  0.7285 -0.2543 -0.4248
  148SOL    HW1 1257   0.214   0.857   4.970  2.2172 -1.1136  0.4106
  148SOL    HW2 1258   0.233   0.885   4.822 -1.1596  0.2970  0.2100
  149SOL     OW 1259   6.482   5.596   1.356  1.4462 -0.0227 -0.3353
  149SOL    HW1 1260   6.429   5.584   1.277  1.1701  0.1970 -0.1853
  149SOL    HW2 1261   6.540   5.669   1.335 -0.1037  1.4365  0.4334
  150SOL     OW 1262   7.965   1.545   1.884  0.0796 -0.4634  0.1694
  150SOL    HW1 1263   8.004   1.481   1.944 -0.3891  1.0241  2.1014
  150SOL    HW2 1264   8.000   1.629   1.912 -1.2204  0.4148 -0.7661
  151SOL     OW 1265   2.341   2.506   1.151  0.0886 -0.8845  0.1785
  151SOL    HW1 1266   2.397   2.569   1.196 -0.1556 -0.5439  0.0108
  151SOL    HW2 1267   2.274   2.483   1.216 -2.2052  2.0771 -0.9869
  152SOL     OW 1268   1.773   7.215   7.017 -0.3321  0.1333  0.2760
  152SOL    HW1 1269   1.822   7.140   6.983 -0.6728  0.6080 -1.2947
  152SOL    HW2 1270   1.820   7.291   6.984 -0.4867  0.6099  1.1442
  153SOL     OW 1271   2.074   4.155   2.875  0.7323  0.7350 -0.0802
  153SOL    HW1 1272   2.103   4.080   2.927  0.8868 -1.3223 -2.9786
  153SOL    HW2 1273   1.978   4.147   2.873  0.7231  0.8438 -0.0438
  154SOL     OW 1274   6.791   7.809   2.464 -0.0066  0.2550  0.0883
  154SOL    HW1 1275   6.756   7.895   2.440 -0.0922  0.3869  0.6912
  154SOL    HW2 1276   6.747   7.787   2.546 -0.7838 -0.8361 -0.6032
  155SOL     OW 1277   5.078   6.824   4.252  0.1803  0.2869 -0.0658
  155SOL    HW1 1278   5.027   6.799   4.328 -2.0387  1.1725 -1.2126
  155SOL    HW2 1279   5.159   6.860   4.288  0.8228 -2.8380  1.7167
  156SOL     OW 1280   2.714   3.251   0.240  0.5979 -0.4489  0.5367
  156SOL    HW1 1281   2.773   3.327   0.238 -1.0945  0.8363 -1.6428
  156SOL    HW2 1282   2.736   3.202   0.161 -1.1356 -0.0284 -0.2276
  157SOL     OW 1283   6.489   6.010   7.546 -0.2704 -0.0767  0.4152
  157SOL    HW1 1284   6.432   6.013   7.469 -1.7929 -0.4852  1.4870
  157SOL    HW2 1285   6.495   6.101   7.575 -0.7498 -0.0823  0.5457
  158SOL     OW 1286   3.468   7.080   4.664 -0.4797 -0.1774  0.3467
  158SOL    HW1 1287   3.491   7.070   4.572  0.6849 -0.1464  0.6237
  158SOL    HW2 1288   3.406   7.009   4.681 -1.3393  0.3106 -0.6558
  159SOL     OW 1289   4.921   1.660   6.849 -0.1024 -0.2156 -0.0426
  159SOL    HW1 1290   4.921   1.565   6.842 -0.4471 -0.2053 -0.2119
  159SOL    HW2 1291   4.867   1.678   6.927 -0.4569 -0.1403 -0.3047
  160SOL     OW 1292   4.875   2.523   1.391 -0.3189 -0.0305  0.0438
  160SOL    HW1 1293   4.872   2.430   1.414 -0.2663 -0.1725 -0.5097
  160SOL    HW2 1294   4.960   2.553   1.424  0.4456 -0.6075 -1.3375
  161SOL     OW 1295   4.747   1.078   3.446  0.0056 -0.1576 -0.4511
  161SOL    HW1 1296   4.799   1.005   3.412  1.3434  0.4466  0.2683
  161SOL    HW2 1297   4.657   1.057   3.420  0.5341 -1.4443 -1.3164
  162SOL     OW 1298   5.060   2.787   4.469  0.3591 -0.5843  0.7754
  162SOL    HW1 1299   5.106   2.749   4.395 -0.6767  1.8875 -1.2122
  162SOL    HW2 1300   5.129   2.821   4.527  1.1482 -1.7903  0.5464
  163SOL     OW 1301   4.679   1.611   0.940 -0.0995 -0.4905 -0.5717
  163SOL    HW1 1302   4.695   1.517   0.933 -1.1969 -0.7660  0.5291
  163SOL    HW2 1303   4.752   1.643   0.993 -1.7482 -1.3603  2.3463
  164SOL     OW 1304   0.340   6.934   7.172  0.5045  0.3412 -0.8851
  164SOL    HW1 1305   0.319   6.986   7.249 -2.0992 -2.9843  0.7976
  164SOL    HW2 1306   0.404   6.870   7.204 -0.4341 -0.9156 -1.4648
  165SOL     OW 1307   7.055   2.527   3.941  0.5923  0.0921  0.2084
  165SOL    HW1 1308   7.093   2.531   4.028  0.3207 -0.7335  0.3634
  165SOL    HW2 1309   6.999   2.604   3.936  2.0229  1.1576  0.0915
  166SOL     OW 1310   5.452   4.232   5.369 -0.2110 -0.2015  0.2863
  166SOL    HW1 1311   5.539   4.241   5.409 -0.2465  0.6911  0.1748
  166SOL    HW2 1312   5.394   4.282   5.427 -0.2721  1.0424 -0.8109
  167SOL     OW 1313   0.498   6.599   6.170 -0.2972  0.1417  0.3020
  167SOL    HW1 1314   0.443   6.641   6.103 -0.0524 -0.4188 -0.2634
  167SOL    HW2 1315   0.559   6.667   6.197 -0.1783  0.2766 -0.2969
  168SOL     OW 1316   6.698   0.927   0.003 -0.1469 -0.4507 -0.1888
  168SOL    HW1 1317   6.665   0.837  -0.005 -0.7533 -0.2701  0.2522
  168SOL    HW2 1318   6.779   0.927  -0.047 -0.5716 -1.0299 -0.8923
  169SOL     OW 1319   5.862   6.198   5.329 -0.9244 -0.2133 -0.1558
  169SOL    HW1 1320   5.816   6.115   5.320 -0.5104 -0.4194 -0.3509
  169SOL    HW2 1321   5.953   6.179   5.306 -0.6312  0.0796  0.7322
  170SOL     OW 1322   6.815   3.411   0.624 -0.0239  0.1114  0.0826
  170SOL    HW1 1323   6.820   3.442   0.715 -1.3535  1.4315 -0.2889
  170SOL    HW2 1324   6.745   3.346   0.625 -1.6506  1.8161 -0.4560
  171SOL     OW 1325   5.809   7.838   0.417  0.3681  0.1821  0.8525
  171SOL    HW1 1326   5.811   7.823   0.511 -0.3747 -1.3634  0.6449
  171SOL    HW2 1327   5.744   7.907   0.405 -0.0548 -0.1147  1.4184
  172SOL     OW 1328   4.995   7.614   5.610 -0.3635  0.0813 -0.0609
  172SOL    HW1 1329   5.090   7.621   5.603 -0.4763  2.3578  0.3263
  172SOL    HW2 1330   4.980   7.528   5.649  1.5217 -0.3843 -0.3217
  173SOL     OW 1331   5.567   4.364   7.767  0.1876  0.1921 -0.9808
  173SOL    HW1 1332   5.608   4.380   7.852  0.9672 -1.2165 -1.0839
  173SOL    HW2 1333   5.603   4.280   7.738 -4.0741 -2.0499 -0.2383
  174SOL     OW 1334   1.616   0.389   3.025 -0.0154  0.5920  0.2580
  174SOL    HW1 1335   1.672   0.428   2.958  0.3352 -0.6031 -0.1527
  174SOL    HW2 1336   1.532   0.374   2.982 -0.0633  0.6157  0.3414
  175SOL     OW 1337   1.176   2.562   5.702  0.3989 -0.3113  0.2295
  175SOL    HW1 1338   1.176   2.619   5.778  0.7160  0.2211 -0.1650
  175SOL    HW2 1339   1.099   2.506   5.714 -1.2531  1.7006 -0.4918
  176SOL     OW 1340   0.321   4.429   0.976  0.2256 -0.5416  0.0730
  176SOL    HW1 1341   0.340   4.381   0.895 -0.3399 -0.9732  0.1972
  176SOL    HW2 1342   0.313   4.520   0.948  3.3684 -0.1899  0.1393
  177SOL     OW 1343   7.114   0.609   5.314 -0.1909  0.4501  0.0062
  177SOL    HW1 1344   7.075   0.692   5.287  1.0070  1.0111 -0.0201
  177SOL    HW2 1345   7.201   0.632   5.347 -0.8078 -0.4638  2.4429
  178SOL     OW 1346   2.842   4.363   2.150 -0.3048 -0.5278  0.0561
  178SOL    HW1 1347   2.777   4.295   2.132  0.4991 -0.5803 -2.8333
  178SOL    HW2 1348   2.791   4.443   2.156 -1.0076 -1.0476  1.2666
  179SOL     OW 1349   5.452   5.143   0.152 -0.2405 -0.6939 -0.0158
  179SOL    HW1 1350   5.390   5.130   0.224 -1.3494 -0.8218 -0.9837
  179SOL    HW2 1351   5.468   5.237   0.152  1.2944 -0.9182  1.6330
  180SOL     OW 1352   4.831   0.399   4.789  0.4245  0.2884  0.0801
  180SOL    HW1 1353   4.867   0.487   4.777  0.6042  0.2724  0.4871
  180SOL    HW2 1354   4.758   0.412   4.850 -1.6576  0.6514 -2.3970
  181SOL     OW 1355   7.490   3.012   2.285  0.2319  0.1754 -0.2460
  181SOL    HW1 1356   7.425   3.050   2.345 -1.2474  1.3178 -2.5042
  181SOL    HW2 1357   7.559   2.980   2.343 -0.7031  2.0480  2.0261
  182SOL     OW 1358   4.801   1.833   2.348 -0.4261 -0.4264 -0.2012
  182SOL    HW1 1359   4.843   1.887   2.414  0.4277  0.4079 -1.3904
  182SOL    HW2 1360   4.873   1.800   2.294 -1.0461 -1.6455 -0.3044
  183SOL     OW 1361   1.192   6.047   6.305  0.1610 -0.2091 -0.0340
  183SOL    HW1 1362   1.221   6.027   6.216 -0.2705  0.2531 -0.2827
  183SOL    HW2 1363   1.105   6.085   6.294  0.0879 -0.1898  0.5886
  184SOL     OW 1364   5.696   7.689   7.931 -0.1337  0.6160 -0.7681
  184SOL    HW1 1365   5.784   7.666   7.900 -0.7150  0.3591 -2.2521
  184SOL    HW2 1366   5.673   7.620   7.992 -0.1004 -0.3931 -1.8846
  185SOL     OW 1367   3.761   6.358   5.280  0.1371 -0.4596 -0.1683
  185SOL    HW1 1368   3.837   6.416   5.276  0.2214 -0.3209  2.8929
  185SOL    HW2 1369   3.687   6.415   5.258  0.7461 -0.3618 -2.1121
  186SOL     OW 1370   0.323   7.223   3.380 -0.2201  0.0402  0.4125
  186SOL    HW1 1371   0.369   7.281   3.441 -0.0968 -0.0898  0.4460
  186SOL    HW2 1372   0.249   7.274   3.348  1.5509  1.2968 -1.8534
  187SOL     OW 1373   4.026   7.521   2.575 -0.0886 -0.0952  0.0259
  187SOL    HW1 1374   4.118   7.492   2.574 -0.6227 -1.8646 -0.7919
  187SOL    HW2 1375   3.998   7.511   2.484 -1.1133  0.3795  0.2907
  188SOL     OW 1376   5.607   1.315   7.938 -0.4692 -0.0039 -0.2263
  188SOL    HW1 1377   5.584   1.339   8.028 -2.1104  0.7725 -0.8321
  188SOL    HW2 1378   5.588   1.222   7.932  1.1077 -0.3877  0.6790
  189SOL     OW 1379   3.517   1.429   4.056  0.6224  0.1211 -0.4902
  189SOL    HW1 1380   3.531   1.510   4.105  2.4899 -0.0664 -0.6894
  189SOL    HW2 1381   3.459   1.454   3.984 -1.3333  0.6137  1.2087
  190SOL     OW 1382   6.555   6.411   1.002 -0.1903 -0.1329  0.0346
  190SOL    HW1 1383   6.618   6.483   0.995  0.1688 -0.4753 -0.3373
  190SOL    HW2 1384   6.485   6.445   1.057  0.7002 -0.0163  1.1106
  191SOL     OW 1385   6.448   1.485   4.828 -0.3379 -0.7349 -0.3207
  191SOL    HW1 1386   6.411   1.504   4.741  0.3735  1.2787 -0.2086
  191SOL    HW2 1387   6.413   1.554   4.884  3.4040  1.1089 -0.1611
  192SOL     OW 1388   4.486   0.568   5.386  0.2909 -0.2635  0.4441
  192SOL    HW1 1389   4.477   0.506   5.314  0.9335  0.2857 -0.1250
  192SOL    HW2 1390   4.449   0.524   5.462  1.8293 -1.8198  0.3164
  193SOL     OW 1391   6.271   4.533   2.982  0.1474 -0.3173  0.1152
  193SOL    HW1 1392   6.178   4.530   2.959  0.4198  1.1334 -1.2848
  193SOL    HW2 1393   6.316   4.492   2.908  0.7979  1.3616 -0.4442
  194SOL     OW 1394   6.032   5.874   4.854 -0.0720  0.2537  0.0091
  194SOL    HW1 1395   6.021   5.853   4.761 -1.8207 -0.5789  0.3802
  194SOL    HW2 1396   6.118   5.839   4.877  0.0182 -0.2632 -1.1027
  195SOL     OW 1397   5.207   6.174   5.693 -0.5399  0.1060  0.2428
  195SOL    HW1 1398   5.135   6.133   5.645 -3.0036  2.2374  1.9399
  195SOL    HW2 1399   5.186   6.159   5.785 -1.2810  4.4759  0.9335
  196SOL     OW 1400   4.401   2.019   3.766  0.3117 -0.5543 -0.6282
  196SOL    HW1 1401   4.306   2.025   3.774  0.4360  1.0304 -0.2817
  196SOL    HW2 1402   4.417   1.926   3.749 -1.1244 -1.2345  1.5119
  197SOL     OW 1403   1.145   5.499   2.438  0.0512  0.4678  0.1913
  197SOL    HW1 1404   1.106   5.553   2.507  1.0812  0.6942  0.6121
  197SOL    HW2 1405   1.231   5.539   2.422 -0.1744  0.4080 -1.2210
  198SOL     OW 1406   7.136   5.597   7.007 -0.5973  0.9389  0.1324
  198SOL    HW1 1407   7.059   5.552   6.972  0.3178 -0.7714  0.2401
  198SOL    HW2 1408   7.157   5.548   7.087  0.0095  2.0018  0.6234
  199SOL     OW 1409   7.242   7.874   1.077 -0.3903 -0.3557 -0.3705
  199SOL    HW1 1410   7.150   7.855   1.099 -0.1989 -3.5856 -2.0136
  199SOL    HW2 1411   7.253   7.840   0.988  2.7804 -1.3684  0.3383
  200SOL     OW 1412   4.807   6.449   1.799  0.6942 -0.3069  0.1324
  200SOL    HW1 1413   4.835   6.491   1.718 -1.8372  1.1858 -0.0281
  200SOL    HW2 1414   4.752   6.376   1.771  1.8360 -1.3015  0.4722
  201SOL     OW 1415   0.494   2.556   0.724 -0.3197 -0.2833 -0.4711
  201SOL    HW1 1416   0.568   2.545   0.784  0.5180 -0.7472 -1.5727
  201SOL    HW2 1417   0.421   2.581   0.781  0.4219 -0.8452  0.7593
  202SOL     OW 1418   6.557   1.505   2.346  0.7631 -0.3790  0.3247
  202SOL    HW1 1419   6.586   1.548   2.426 -0.0565 -0.2481  0.5559
  202SOL    HW2 1420   6.619   1.534   2.279  0.9296  0.2131  0.7308
  203SOL     OW 1421   1.735   1.086   5.464 -0.2053 -0.2558  0.3526
  203SOL    HW1 1422   1.813   1.124   5.424  1.0024 -1.3528  1.6075
  203SOL    HW2 1423   1.756   1.081   5.557 -2.2830  0.6099  0.8700
  204SOL     OW 1424   3.902   6.494   0.142 -0.1792  0.1313 -0.3384
  204SOL    HW1 1425   3.851   6.503   0.222 -2.4147  0.7156 -1.7904
  204SOL    HW2 1426   3.838   6.500   0.072  1.4571 -2.4416 -2.1388
  205SOL     OW 1427   7.537   3.014   1.076 -0.1013  0.3143  0.8651
  205SOL    HW1 1428   7.549   2.996   1.169 -0.6193  0.1313  0.8945
  205SOL    HW2 1429   7.444   2.999   1.060  0.1025 -0.2108  0.1912
  206SOL     OW 1430   3.427   3.717   6.309 -0.4980 -0.4081  0.3182
  206SOL    HW1 1431   3.454   3.778   6.240 -0.4289 -1.3673 -0.5191
  206SOL    HW2 1432   3.349   3.673   6.274 -1.0224 -0.2287  1.2424
  207SOL     OW 1433   2.207   1.719   0.552  0.4221 -0.7412 -0.3101
  207SOL    HW1 1434   2.257   1.645   0.587 -0.4348 -1.0848  0.2053
  207SOL    HW2 1435   2.115   1.692   0.561 -0.0238  1.3273  2.0466
  208SOL     OW 1436   0.715   1.356   1.147  0.6283 -0.5428 -0.2670
  208SOL    HW1 1437   0.714   1.268   1.109 -1.6035 -0.6583  0.0388
  208SOL    HW2 1438   0.742   1.343   1.238 -0.8067 -1.0505  0.0930
  209SOL     OW 1439   4.853   1.153   4.183 -0.1118  0.2075 -0.2487
  209SOL    HW1 1440   4.776   1.202   4.212 -2.4740 -2.4053 -1.8547
  209SOL    HW2 1441   4.919   1.169   4.251 -2.5193  1.4383  1.8667
  210SOL     OW 1442   3.794   3.874   1.714 -0.4164  0.0007  0.2604
  210SOL    HW1 1443   3.755   3.939   1.773 -1.9258  0.0370 -0.7504
  210SOL    HW2 1444   3.728   3.804   1.709 -0.1549 -0.1499 -1.1193
  211SOL     OW 1445   2.807   1.800   3.835 -0.1257 -0.2405 -0.6881
  211SOL    HW1 1446   2.783   1.892   3.842  0.2104 -0.3045  1.3827
  211SOL    HW2 1447   2.760   1.769   3.757 -0.5980  1.5529 -1.1273
  212SOL     OW 1448   3.326   7.395   7.173  0.1180 -0.3486 -0.5336
  212SOL    HW1 1449   3.279   7.343   7.238 -2.0890  0.3608 -1.4948
  212SOL    HW2 1450   3.343   7.478   7.216  2.4349 -1.3408  0.5400
  213SOL     OW 1451   2.966   7.833   2.809 -0.2940  0.5979  0.4335
  213SOL    HW1 1452   2.981   7.739   2.817  0.7874  0.6593 -0.6988
  213SOL    HW2 1453   2.872   7.841   2.792 -0.6193 -0.1851  1.7840
  214SOL     OW 1454   3.058   4.344   4.421 -0.1384  0.0501 -0.3682
  214SOL    HW1 1455   3.113   4.422   4.426  0.2011 -0.0978 -1.5597
  214SOL    HW2 1456   3.119   4.273   4.403 -0.5853 -0.3020 -0.5014
  215SOL     OW 1457   6.919   4.161   6.631 -0.1290  0.4721 -0.2743
  215SOL    HW1 1458   6.962   4.245   6.618  1.3877 -0.2809 -0.2163
  215SOL    HW2 1459   6.857   4.177   6.703 -0.1562  1.6349 -0.5486
  216SOL     OW 1460   6.686   0.159   1.877  0.5976 -0.1556  0.0944
  216SOL    HW1 1461   6.644   0.225   1.821 -0.4421 -0.6839  0.2421
  216SOL    HW2 1462   6.714   0.208   1.954  1.6729  0.5021 -0.6882
  217SOL     OW 1463   3.426   1.845   5.859  0.3036 -0.2080  0.1568
  217SOL    HW1 1464   3.451   1.936   5.876  0.7289 -0.4946  1.0702
  217SOL    HW2 1465   3.497   1.810   5.806 -0.8147  0.5569 -1.9146
  218SOL     OW 1466   2.522   6.061   3.979 -0.5044 -0.3618 -0.3815
  218SOL    HW1 1467   2.528   5.972   4.012 -1.5769 -0.1921  0.2921
  218SOL    HW2 1468   2.445   6.060   3.922 -1.0632  0.3622  0.3613
  219SOL     OW 1469   5.419   2.942   0.577  0.1163 -1.1237  0.3264
  219SOL    HW1 1470   5.396   2.956   0.485  0.0479 -0.4899  0.4351
  219SOL    HW2 1471   5.490   3.004   0.594  1.4861 -2.6074  0.1768
  220SOL     OW 1472   7.452   3.668   6.087 -0.1901 -0.3706  0.1091
  220SOL    HW1 1473   7.368   3.630   6.065  0.9322 -2.2928 -0.9759
  220SOL    HW2 1474   7.454   3.752   6.040 -1.6309 -0.1370  0.4498
  221SOL     OW 1475   0.764   2.495   4.058 -0.0821 -0.4278 -0.1133
  221SOL    HW1 1476   0.848   2.535   4.081  0.0059 -0.7419  0.1105
  221SOL    HW2 1477   0.733   2.455   4.139 -1.8813  2.2429  0.5778
  222SOL     OW 1478   7.766   1.444   6.930  0.7558  0.2162  0.1203
  222SOL    HW1 1479   7.857   1.463   6.908  1.0494 -0.4022  0.7805
  222SOL    HW2 1480   7.770   1.398   7.014 -0.2243  0.9935  0.6164
  223SOL     OW 1481   7.694   1.806   0.412  0.2565 -0.0213  0.0280
  223SOL    HW1 1482   7.788   1.812   0.427  0.2171  1.2176 -0.2148
  223SOL    HW2 1483   7.654   1.839   0.493  0.0261  0.2410 -0.1943
  224SOL     OW 1484   5.376   0.234   5.746  0.4004  0.1773  0.4000
  224SOL    HW1 1485   5.340   0.220   5.659 -3.6066  0.9503  1.8347
  224SOL    HW2 1486   5.372   0.329   5.758  0.6275  0.0435  1.5475
  225SOL     OW 1487   3.011   1.773   1.464 -0.0959  0.0292 -0.2199
  225SOL    HW1 1488   2.980   1.854   1.422  1.3280 -0.2907 -1.9599
  225SOL    HW2 1489   2.945   1.708   1.440 -0.2258  0.2550 -0.4878
  226SOL     OW 1490   6.589   4.434   7.943 -0.6044 -0.6637  0.2128
  226SOL    HW1 1491   6.683   4.447   7.952 -0.4866 -0.8049 -0.7046
  226SOL    HW2 1492   6.550   4.519   7.963 -0.2129 -0.3460 -0.3691
  227SOL     OW 1493   3.507   6.378   3.617 -0.3766  0.1032  0.5888
  227SOL    HW1 1494   3.485   6.376   3.710 -0.3706  2.3551  0.6611
  227SOL    HW2 1495   3.446   6.441   3.579  1.2422  1.0901 -0.4664
  228SOL     OW 1496   7.285   1.534   5.959 -0.2027 -0.4395  0.0383
  228SOL    HW1 1497   7.333   1.598   6.011 -0.5431 -0.3683  0.2639
  228SOL    HW2 1498   7.260   1.466   6.021  2.5726 -2.2143 -0.6888
  229SOL     OW 1499   5.016   4.015   1.038 -0.4814  0.8204  0.2538
  229SOL    HW1 1500   4.992   4.036   1.128 -1.2136  2.9550 -0.4038
  229SOL    HW2 1501   4.941   4.045   0.986 -0.6728 -1.6544 -0.9694
  230SOL     OW 1502   5.507   2.289   6.811 -0.0222  0.4575  0.4656
  230SOL    HW1 1503   5.502   2.279   6.716  0.8932  0.6006  0.3981
  230SOL    HW2 1504   5.586   2.340   6.826 -1.2371  2.1697  1.1931
  231SOL     OW 1505   0.694   2.833   4.784 -0.8718  0.8386 -0.2801
  231SOL    HW1 1506   0.763   2.882   4.738 -1.7450  1.4558 -0.9491
  231SOL    HW2 1507   0.717   2.741   4.772  0.5655  1.0696  0.6307
  232SOL     OW 1508   7.407   2.447   4.819  0.1031  0.0584 -0.1944
  232SOL    HW1 1509   7.450   2.532   4.832 -0.9197  0.3444  1.5686
  232SOL    HW2 1510   7.315   2.469   4.805 -0.8217 -0.8298  3.7237
  233SOL     OW 1511   3.647   6.755   7.448 -0.1001 -0.1466  0.0105
  233SOL    HW1 1512   3.722   6.799   7.410 -0.1626 -0.3319 -0.3255
  233SOL    HW2 1513   3.650   6.778   7.541  0.4524 -0.2749  0.0226
  234SOL     OW 1514   5.905   6.690   1.372 -0.4484  0.2552  0.3612
  234SOL    HW1 1515   5.965   6.755   1.409 -0.5209 -0.0608  1.0374
  234SOL    HW2 1516   5.887   6.722   1.284  0.6246  0.4201  0.1883
  235SOL     OW 1517   7.056   2.638   3.458  0.0812 -0.5208  0.1187
  235SOL    HW1 1518   7.141   2.595   3.449  0.2383 -0.3580  0.8395
  235SOL    HW2 1519   7.047   2.689   3.377 -0.0803 -1.8532 -0.7188
  236SOL     OW 1520   4.330   3.604   7.046 -0.0184 -0.1908  0.3703
  236SOL    HW1 1521   4.411   3.601   7.097  0.8238  0.5431 -0.9072
  236SOL    HW2 1522   4.307   3.697   7.043 -0.9225 -0.3930  0.7237
  237SOL     OW 1523   2.894   5.704   1.671  0.2847  0.2096 -0.0717
  237SOL    HW1 1524   2.809   5.661   1.669  0.6899 -0.5364 -1.2311
  237SOL    HW2 1525   2.942   5.667   1.598  1.0892  1.7140 -0.3292
  238SOL     OW 1526   7.365   4.303   4.655 -0.0699 -0.3749 -0.5026
  238SOL    HW1 1527   7.398   4.392   4.642  1.5577 -1.1357 -1.6842
  238SOL    HW2 1528   7.436   4.257   4.699 -0.5891 -1.3219 -0.6384
  239SOL     OW 1529   0.543   6.264   4.104  0.6732  0.8222 -0.3672
  239SOL    HW1 1530   0.497   6.319   4.167  2.6280 -0.5273  2.3546
  239SOL    HW2 1531   0.615   6.319   4.072  0.8014  0.8701  0.0053
  240SOL     OW 1532   6.992   2.515   7.512  0.0762 -0.2136 -0.3553
  240SOL    HW1 1533   6.996   2.588   7.449  1.3160 -0.3176 -0.4010
  240SOL    HW2 1534   6.989   2.437   7.457 -1.0229 -0.2288 -0.3003
  241SOL     OW 1535   1.311   3.202   4.338 -0.3204  0.1909  0.3063
  241SOL    HW1 1536   1.312   3.221   4.432  0.6278  0.5972  0.2274
  241SOL    HW2 1537   1.339   3.111   4.332  2.6898  1.0527  0.2687
  242SOL     OW 1538   3.319   2.707   4.375 -0.2803 -0.1906 -0.2497
  242SOL    HW1 1539   3.247   2.665   4.327 -0.4084 -0.0511 -0.1820
  242SOL    HW2 1540   3.277   2.744   4.453 -0.3457  0.9567 -0.8213
  243SOL     OW 1541   3.733   7.829   0.463  0.1554  0.0607  0.2405
  243SOL    HW1 1542   3.639   7.824   0.445 -0.4474 -0.1601  3.2085
  243SOL    HW2 1543   3.749   7.758   0.526  2.0295  1.0128  0.8772
  244SOL     OW 1544   2.211   3.239   1.781 -0.2655 -0.3425 -0.3931
  244SOL    HW1 1545   2.289   3.269   1.735  0.6638 -0.9163  0.7738
  244SOL    HW2 1546   2.242   3.167   1.836 -1.3145  0.4103  1.2334
  245SOL     OW 1547   5.646   3.577   0.060  0.0540  0.2133 -0.0489
  245SOL    HW1 1548   5.642   3.553  -0.033  1.1749  1.9933 -0.5787
  245SOL    HW2 1549   5.670   3.496   0.105 -0.2874 -0.6066 -1.3217
  246SOL     OW 1550   6.189   7.697   3.125  0.0187 -0.0286 -0.4961
  246SOL    HW1 1551   6.282   7.676   3.115  0.4446  0.2106  2.5255
  246SOL    HW2 1552   6.180   7.786   3.091  1.4302  0.9008  1.4624
  247SOL     OW 1553   4.905   6.867   5.294  0.2240  0.6964 -0.2356
  247SOL    HW1 1554   4.960   6.839   5.368  0.0461 -0.9607 -0.7180
  247SOL    HW2 1555   4.884   6.786   5.248 -0.6288  1.5990 -1.4507
  248SOL     OW 1556   6.386   7.399   5.682  0.1453 -0.3447 -0.6778
  248SOL    HW1 1557   6.432   7.483   5.681 -2.9137  1.4456  0.9522
  248SOL    HW2 1558   6.339   7.397   5.599 -1.1125  0.3888 -0.0063
  249SOL     OW 1559   4.628   2.259   5.362  0.0370  0.0210  0.0900
  249SOL    HW1 1560   4.659   2.193   5.300  0.0995  0.6816 -0.5823
  249SOL    HW2 1561   4.549   2.221   5.399 -0.0083 -0.3697 -0.3983
  250SOL     OW 1562   2.717   5.774   3.179 -0.7506 -0.3277 -0.4163
  250SOL    HW1 1563   2.721   5.756   3.085  1.2614 -0.1467 -0.3772
  250SOL    HW2 1564   2.791   5.832   3.196 -0.1637 -1.6066  1.5594
  251SOL     OW 1565   1.748   0.090   2.474 -0.0560  0.5632 -0.1558
  251SOL    HW1 1566   1.675   0.042   2.435  0.2043 -0.2342  0.3435
  251SOL    HW2 1567   1.784   0.031   2.540  0.9714  0.9965 -0.3182
  252SOL     OW 1568   4.301   5.112   7.345 -0.0115  0.2949 -0.3130
  252SOL    HW1 1569   4.255   5.193   7.368 -0.6586 -0.8548  2.6806
  252SOL    HW2 1570   4.393   5.131   7.364 -0.3771 -0.2058  2.0753
  253SOL     OW 1571   2.244   5.872   2.542  0.3355 -0.1311  0.4427
  253SOL    HW1 1572   2.288   5.849   2.624  1.0912  2.3145  0.7579
  253SOL    HW2 1573   2.176   5.933   2.567 -0.2204 -0.3032 -0.6232
  254SOL     OW 1574   1.996   7.324   7.341 -0.6747 -0.0138 -0.3300
  254SOL    HW1 1575   1.974   7.306   7.249 -0.3348  2.0491 -0.8421
  254SOL    HW2 1576   1.950   7.405   7.362  0.9695  0.7038  0.6493
  255SOL     OW 1577   7.405   5.004   0.107  0.8469  0.1713 -0.1702
  255SOL    HW1 1578   7.351   5.080   0.086 -2.9608 -2.1451  0.7867
  255SOL    HW2 1579   7.458   4.990   0.029 -0.8152  1.7916 -1.6333
  256SOL     OW 1580   5.823   4.673   7.953  0.3178  0.2086  0.0397
  256SOL    HW1 1581   5.909   4.684   7.914  0.4762  0.1886  0.3882
  256SOL    HW2 1582   5.762   4.702   7.885  0.6512  1.5805  0.3302
  257SOL     OW 1583   0.309   1.222   0.834 -0.2069 -0.0967 -0.5045
  257SOL    HW1 1584   0.236   1.162   0.847  1.3836 -1.9195  0.3026
  257SOL    HW2 1585   0.354   1.188   0.756  1.8225 -1.1740  1.0897
  258SOL     OW 1586   6.191   7.129   1.775 -0.3283  0.1426  0.3259
  258SOL    HW1 1587   6.118   7.154   1.832 -1.1144  1.6488 -1.2927
  258SOL    HW2 1588   6.179   7.182   1.696  1.5048 -0.9141 -0.6972
  259SOL     OW 1589   7.082   4.111   2.968 -0.3409  0.1846 -0.4049
  259SOL    HW1 1590   7.091   4.173   3.041 -2.1777 -1.3974  1.2542
  259SOL    HW2 1591   7.110   4.027   3.005 -1.8013 -0.7399 -1.3191
  260SOL     OW 1592   7.909   7.397   6.178 -0.3545 -0.1687 -0.0498
  260SOL    HW1 1593   7.927   7.303   6.176 -1.2038 -0.3176 -0.6446
  260SOL    HW2 1594   7.949   7.427   6.260 -1.5602 -1.3392  0.9846
  261SOL     OW 1595   7.484   4.523   4.103  0.3278 -0.2845  0.1594
  261SOL    HW1 1596   7.421   4.496   4.169  0.2797 -0.4854  0.0302
  261SOL    HW2 1597   7.507   4.443   4.056 -0.9051  0.1240 -1.1680
  262SOL     OW 1598   7.014   3.608   3.718 -0.1336 -0.3011  0.3884
  262SOL    HW1 1599   7.050   3.545   3.780 -0.7436 -1.2459 -0.2139
  262SOL    HW2 1600   7.084   3.621   3.654  0.2535  0.1769  0.9002
  263SOL     OW 1601   3.383   0.288   5.489 -0.3490  0.5320  0.1536
  263SOL    HW1 1602   3.373   0.291   5.584  0.8322  1.1697  0.2592
  263SOL    HW2 1603   3.391   0.380   5.463  0.4153  0.2909 -0.4473
  264SOL     OW 1604   3.202   4.680   3.654  0.0681  0.1233  0.0126
  264SOL    HW1 1605   3.119   4.712   3.618  0.5034  2.8738  1.3174
  264SOL    HW2 1606   3.179   4.602   3.704 -1.6227  0.4536 -0.2328
  265SOL     OW 1607   3.634   2.001   1.878 -0.0646 -0.1834  0.0041
  265SOL    HW1 1608   3.664   2.036   1.794  1.1890 -2.1017 -0.3852
  265SOL    HW2 1609   3.629   1.907   1.864 -0.9434 -0.4124  1.7523
  266SOL     OW 1610   0.273   0.368   7.427 -0.2523 -0.8304  0.2818
  266SOL    HW1 1611   0.366   0.356   7.445 -0.5558 -0.8435  1.9488
  266SOL    HW2 1612   0.271   0.417   7.345  1.2027 -1.6207 -0.2474
  267SOL     OW 1613   1.257   0.552   4.052  0.3592 -0.3358 -0.2868
  267SOL    HW1 1614   1.182   0.611   4.060  0.1359 -0.9467  2.7174
  267SOL    HW2 1615   1.235   0.494   3.979 -1.4294  0.4145 -0.3744
  268SOL     OW 1616   4.375   4.648   0.933 -0.1387 -0.2393 -0.4142
  268SOL    HW1 1617   4.383   4.736   0.972  2.0177  0.3166 -2.0096
  268SOL    HW2 1618   4.377   4.663   0.839 -1.8988 -1.8628 -0.7471
  269SOL     OW 1619   1.256   2.550   3.691 -0.2937  0.3542 -0.2724
  269SOL    HW1 1620   1.278   2.517   3.778  1.8422  0.0738 -0.8766
  269SOL    HW2 1621   1.259   2.473   3.634 -1.0842  0.6274 -0.6885
  270SOL     OW 1622   7.580   4.172   1.491  0.5746  0.2092 -0.2666
  270SOL    HW1 1623   7.580   4.096   1.432 -2.9526  1.8439 -2.6204
  270SOL    HW2 1624   7.614   4.243   1.437  1.1350  0.9150  1.0064
  271SOL     OW 1625   1.172   1.618   6.195  0.2852  0.1351 -0.9103
  271SOL    HW1 1626   1.202   1.533   6.226 -0.5037  0.1270 -0.1636
  271SOL    HW2 1627   1.200   1.621   6.104  1.7735 -0.2451 -0.4918
  272SOL     OW 1628   0.987   4.120   6.393 -0.9952 -0.2464 -0.3551
  272SOL    HW1 1629   0.903   4.074   6.384 -1.8338  1.7495 -3.4010
  272SOL    HW2 1630   1.050   4.062   6.349 -1.0622 -0.9797  0.5022
  273SOL     OW 1631   4.860   7.534   2.685 -0.2216  0.1024  0.7039
  273SOL    HW1 1632   4.827   7.623   2.673 -0.0605  0.1035  0.2610
  273SOL    HW2 1633   4.783   7.479   2.671 -0.5202  0.2149  1.8676
  274SOL     OW 1634   7.569   6.215   7.992 -0.1466  0.8728  0.3221
  274SOL    HW1 1635   7.503   6.278   8.020 -0.5561  1.0816 -1.0799
  274SOL    HW2 1636   7.652   6.259   8.007 -0.3801  1.1507  0.8058
  275SOL     OW 1637   1.090   0.967   0.543  0.3006  0.6620 -0.2776
  275SOL    HW1 1638   1.149   0.892   0.554  0.5580  0.5562 -2.1652
  275SOL    HW2 1639   1.146   1.044   0.554  0.1295  0.5948  1.1847
  276SOL     OW 1640   6.592   2.004   3.738  0.4605  0.0054 -0.6154
  276SOL    HW1 1641   6.603   2.038   3.827  3.5141  0.4121 -1.0947
  276SOL    HW2 1642   6.515   2.049   3.704 -1.4869 -1.0235  2.2004
  277SOL     OW 1643   1.072   3.895   2.415 -0.1595  0.3261 -0.1959
  277SOL    HW1 1644   1.024   3.975   2.437  0.3855  1.3789 -2.6561
  277SOL    HW2 1645   1.007   3.838   2.375 -0.2818  0.0009  0.4542
  278SOL     OW 1646   4.355   7.256   4.918 -0.0061  0.1176 -0.4765
  278SOL    HW1 1647   4.293   7.246   4.990 -0.5743 -0.9709 -1.1005
  278SOL    HW2 1648   4.336   7.342   4.881 -1.6604 -0.5340 -1.1442
  279SOL     OW 1649   6.126   4.031   7.219 -0.1324 -0.2452 -0.8080
  279SOL    HW1 1650   6.070   3.956   7.198  1.2676 -0.9691 -2.1631
  279SOL    HW2 1651   6.177   4.045   7.139 -0.8555  2.6116 -0.8027
  280SOL     OW 1652   4.279   5.814   5.097  0.6640  0.3347  0.2055
  280SOL    HW1 1653   4.337   5.883   5.129 -0.2384  0.5381  1.4321
  280SOL    HW2 1654   4.228   5.788   5.173 -0.1829 -0.5176 -0.6378
  281SOL     OW 1655   0.599   0.482   6.140  0.1522 -0.3161  0.2303
  281SOL    HW1 1656   0.615   0.504   6.048  0.0399  0.3481  0.3653
  281SOL    HW2 1657   0.540   0.407   6.137 -2.0443  1.3654 -0.2459
  282SOL     OW 1658   5.225   3.469   1.671  0.0295  0.2223  0.4762
  282SOL    HW1 1659   5.203   3.382   1.640  0.0573  0.4428 -0.1655
  282SOL    HW2 1660   5.319   3.466   1.688  0.0736  0.2008  0.2224
  283SOL     OW 1661   3.098   2.619   6.223  0.2496  0.2583  0.6752
  283SOL    HW1 1662   3.129   2.709   6.229  1.6465 -0.0955 -0.6975
  283SOL    HW2 1663   3.050   2.604   6.304 -0.2085  2.3087  0.8063
  284SOL     OW 1664   1.247   5.441   4.745 -0.1572  0.0408  0.2041
  284SOL    HW1 1665   1.323   5.467   4.797 -1.4679 -0.2817  2.3474
  284SOL    HW2 1666   1.172   5.453   4.804 -1.3739 -3.3804 -0.4927
  285SOL     OW 1667   3.181   3.213   5.788  0.1778 -0.1854 -0.0019
  285SOL    HW1 1668   3.096   3.168   5.784  0.7839 -1.2763 -1.3496
  285SOL    HW2 1669   3.163   3.300   5.753 -0.6014 -0.0409  0.7348
  286SOL     OW 1670   4.935   0.092   3.630  0.3403  0.1506  0.0146
  286SOL    HW1 1671   4.887   0.165   3.591 -1.4307 -0.6065  0.6904
  286SOL    HW2 1672   4.993   0.133   3.694 -1.1899  0.9335  0.9369
  287SOL     OW 1673   6.815   4.528   1.528  0.2895 -0.4160  0.3209
  287SOL    HW1 1674   6.901   4.498   1.496  0.2181 -0.1204 -0.1528
  287SOL    HW2 1675   6.833   4.561   1.616  0.0534 -3.4733  1.5723
  288SOL     OW 1676   1.574   5.689   6.017  0.5888 -0.2445 -0.0488
  288SOL    HW1 1677   1.558   5.777   6.054  1.4724 -0.0027 -0.2351
  288SOL    HW2 1678   1.602   5.705   5.927  1.9723 -0.6391  0.2897
  289SOL     OW 1679   1.769   5.357   0.648 -0.2226 -0.2418 -0.0825
  289SOL    HW1 1680   1.828   5.281   0.655 -0.5429 -0.6176 -1.4542
  289SOL    HW2 1681   1.774   5.398   0.735 -0.2654 -1.9935  0.7676
  290SOL     OW 1682   5.252   6.772   3.329 -0.0441  0.0056 -0.4734
  290SOL    HW1 1683   5.311   6.698   3.328 -0.7450 -0.5592 -0.6161
  290SOL    HW2 1684   5.303   6.844   3.367  0.2828 -0.8327  0.6848
  291SOL     OW 1685   5.980   6.507   5.593 -0.1554 -0.6723  0.3316
  291SOL    HW1 1686   6.002   6.557   5.671 -0.3268  1.4344 -0.9411
  291SOL    HW2 1687   5.907   6.554   5.554  0.3807 -1.3028 -1.4763
  292SOL     OW 1688   0.233   7.602   3.748 -0.5286 -0.2163  0.1115
  292SOL    HW1 1689   0.178   7.637   3.677 -1.3809 -0.7400  0.5078
  292SOL    HW2 1690   0.186   7.626   3.828 -0.2644 -0.8255  0.4476
  293SOL     OW 1691   2.793   0.466   6.877 -0.8975  0.2746  0.0743
  293SOL    HW1 1692   2.858   0.406   6.913  0.3777  1.6833  0.1670
  293SOL    HW2 1693   2.714   0.413   6.868  0.2251 -1.4293  0.0731
  294SOL     OW 1694   1.599   6.767   0.358  0.3406  0.5323  0.2782
  294SOL    HW1 1695   1.556   6.710   0.423  0.1270  0.9630  0.5147
  294SOL    HW2 1696   1.692   6.750   0.370  0.4096  1.8827  1.8983
  295SOL     OW 1697   4.832   2.609   2.952  0.6018  0.6111 -0.3186
  295SOL    HW1 1698   4.908   2.668   2.952 -0.7599  2.4308 -0.2082
  295SOL    HW2 1699   4.796   2.616   2.863  1.2033 -1.1169 -0.7129
  296SOL     OW 1700   0.981   1.909   5.892 -0.4315  1.1767  0.1771
  296SOL    HW1 1701   0.979   1.813   5.897 -0.8413  1.0863 -1.5632
  296SOL    HW2 1702   0.900   1.937   5.934 -0.4020  0.7653  0.5182
  297SOL     OW 1703   4.571   3.735   5.272  0.6626 -0.5951 -0.3186
  297SOL    HW1 1704   4.512   3.790   5.323  0.3628 -1.8624  0.7354
  297SOL    HW2 1705   4.655   3.781   5.274  0.2085  0.2325 -0.1687
  298SOL     OW 1706   6.021   1.766   0.286 -0.1226 -0.1583  0.2697
  298SOL    HW1 1707   6.094   1.728   0.237  0.9352  1.6903  0.3438
  298SOL    HW2 1708   6.015   1.856   0.253 -0.3598  0.6510  2.4234
  299SOL     OW 1709   6.165   1.567   2.913 -0.1033  0.0739 -0.4233
  299SOL    HW1 1710   6.093   1.504   2.922  0.5461 -0.9331 -2.0123
  299SOL    HW2 1711   6.123   1.652   2.920 -1.9137 -0.4280 -4.0754
  300SOL     OW 1712   3.645   5.673   5.795 -0.2787 -0.1794  0.0941
  300SOL    HW1 1713   3.672   5.589   5.756  0.5111 -0.1234  0.4997
  300SOL    HW2 1714   3.680   5.739   5.734 -1.0133 -0.1462 -0.2949
  301SOL     OW 1715   3.390   5.532   0.913 -0.0067 -0.0556  0.5299
  301SOL    HW1 1716   3.420   5.620   0.890  0.8226 -0.7763 -1.2744
  301SOL    HW2 1717   3.415   5.478   0.838 -0.5989 -1.8153  1.5663
  302SOL     OW 1718   0.597   3.787   7.942  0.1119 -0.2178 -0.3427
  302SOL    HW1 1719   0.535   3.814   7.874  0.5249 -0.3206 -0.7624
  302SOL    HW2 1720   0.682   3.812   7.908  0.2952 -0.0102  0.2707
  303SOL     OW 1721   2.715   3.048   6.677  0.4572 -1.0537 -0.2938
  303SOL    HW1 1722   2.791   3.001   6.711  0.8716 -1.0485 -1.2110
  303SOL    HW2 1723   2.641   2.988   6.693  0.4444 -0.5211  1.7697
  304SOL     OW 1724   5.365   3.316   5.522 -0.2748 -0.0443  0.2376
  304SOL    HW1 1725   5.274   3.328   5.552  0.0391  2.5674  0.3334
  304SOL    HW2 1726   5.377   3.383   5.455  1.3426 -0.9132 -0.3696
  305SOL     OW 1727   6.517   4.886   7.926 -0.0072 -0.5242 -0.2377
  305SOL    HW1 1728   6.548   4.837   8.002  0.1386 -1.8521 -1.1540
  305SOL    HW2 1729   6.424   4.864   7.920  0.4839 -2.2355 -1.8086
  306SOL     OW 1730   6.242   0.870   0.695 -0.1580 -0.3710  0.1812
  306SOL    HW1 1731   6.154   0.863   0.656 -0.6657  0.8073  1.0708
  306SOL    HW2 1732   6.230   0.928   0.770  1.8395  1.7861 -1.1091
  307SOL     OW 1733   2.907   0.052   7.424  0.2233  0.4658  0.0316
  307SOL    HW1 1734   2.855   0.007   7.491 -0.2770 -0.5599 -1.0292
  307SOL    HW2 1735   2.988   0.076   7.469  0.1777 -0.8322  0.8399
  308SOL     OW 1736   4.767   1.741   7.082  0.0080 -1.1019 -0.2732
  308SOL    HW1 1737   4.696   1.779   7.030 -0.3654 -0.7289  0.5042
  308SOL    HW2 1738   4.802   1.814   7.133  0.3693 -1.4685  0.0093
  309SOL     OW 1739   7.236   3.992   1.468  0.4676 -0.2930 -0.6676
  309SOL    HW1 1740   7.270   4.073   1.432 -3.2976  1.3312 -0.7195
  309SOL    HW2 1741   7.201   3.944   1.393  0.2719 -0.7782 -0.2711
  310SOL     OW 1742   5.222   7.197   7.956  0.3232  0.3932 -0.4117
  310SOL    HW1 1743   5.147   7.142   7.937  0.3619 -0.0115  0.5904
  310SOL    HW2 1744   5.250   7.230   7.870 -0.9468  0.5044 -0.7932
  311SOL     OW 1745   0.921   5.749   6.906  0.0393  0.2345 -0.7135
  311SOL    HW1 1746   0.902   5.667   6.861 -0.2009 -0.2978  0.3496
  311SOL    HW2 1747   0.837   5.777   6.942  0.3282  0.4031 -0.1719
  312SOL     OW 1748   1.654   5.780   1.209  0.1942  0.2440  0.4663
  312SOL    HW1 1749   1.748   5.771   1.225  0.2961 -0.3685 -0.4554
  312SOL    HW2 1750   1.644   5.868   1.172  0.5937 -0.2374 -0.7998
  313SOL     OW 1751   4.634   1.049   0.989 -0.2936 -0.2006 -0.8820
  313SOL    HW1 1752   4.587   0.971   1.018  0.5254 -0.1916  0.5422
  313SOL    HW2 1753   4.681   1.079   1.067  0.8201  0.6836 -1.8662
  314SOL     OW 1754   2.533   6.960   3.456 -0.4499 -0.0936 -0.0090
  314SOL    HW1 1755   2.559   6.886   3.401  0.4126 -0.3183  0.6918
  314SOL    HW2 1756   2.578   7.035   3.418 -1.2762  0.0706 -0.6833
  315SOL     OW 1757   4.929   3.693   3.723  0.2415 -0.1357 -0.2896
  315SOL    HW1 1758   4.958   3.682   3.814  2.0555  2.5920 -0.4652
  315SOL    HW2 1759   4.862   3.760   3.727 -0.1193 -0.4548 -0.9127
  316SOL     OW 1760   1.489   3.109   3.551 -0.4533  0.2354 -0.0259
  316SOL    HW1 1761   1.543   3.049   3.499 -1.0937 -0.4888  0.1422
  316SOL    HW2 1762   1.553   3.158   3.604  0.2254  1.2065 -1.7002
  317SOL     OW 1763   0.640   2.147   5.177  0.1428 -0.4096  0.6451
  317SOL    HW1 1764   0.643   2.151   5.082 -1.2497 -1.7584  0.5218
  317SOL    HW2 1765   0.654   2.237   5.205  0.2256  0.0551 -0.8524
  318SOL     OW 1766   0.114   2.292   5.671  0.7899  0.1609  0.3502
  318SOL    HW1 1767   0.047   2.238   5.628 -1.2100  1.2500  2.0186
  318SOL    HW2 1768   0.165   2.328   5.598 -2.7040  2.1848 -1.2456
  319SOL     OW 1769   4.706   0.066   3.121 -0.3492 -0.0230 -0.2786
  319SOL    HW1 1770   4.717   0.063   3.216  0.2905 -0.1069 -0.3521
  319SOL    HW2 1771   4.640   0.133   3.106 -0.3027  0.1317  0.2164
  320SOL     OW 1772   5.317   7.304   4.903  0.1600  0.1223  0.0127
  320SOL    HW1 1773   5.278   7.268   4.983  2.3427  0.0469  1.1014
  320SOL    HW2 1774   5.377   7.236   4.873 -1.0183 -0.0614 -2.0278
  321SOL     OW 1775   7.383   5.284   6.554  0.0172  0.5432  0.3785
  321SOL    HW1 1776   7.459   5.229   6.534  0.0999  1.1153 -0.9300
  321SOL    HW2 1777   7.346   5.305   6.468 -1.7398  0.1033  1.0235
  322SOL     OW 1778   7.176   0.131   5.502 -0.1853 -0.2639  0.2406
  322SOL    HW1 1779   7.129   0.179   5.434 -1.8338  0.8590  2.0985
  322SOL    HW2 1780   7.145   0.041   5.493  0.8697 -0.4820 -1.5213
  323SOL     OW 1781   4.315   4.931   0.501 -0.3356 -0.1843  0.0629
  323SOL    HW1 1782   4.296   5.010   0.451 -0.6952 -1.7995 -2.4689
  323SOL    HW2 1783   4.242   4.923   0.562 -1.0616  0.6764 -0.6786
  324SOL     OW 1784   7.534   5.008   1.557  0.1974 -0.3650 -0.6248
  324SOL    HW1 1785   7.532   5.067   1.482  2.2428  1.9392  1.0372
  324SOL    HW2 1786   7.457   5.031   1.609  0.0848 -0.2976 -0.8235
  325SOL     OW 1787   5.138   1.419   5.084  0.2491 -0.1986  0.5982
  325SOL    HW1 1788   5.058   1.369   5.066  0.0574  0.4361 -0.3434
  325SOL    HW2 1789   5.185   1.366   5.148 -1.3488 -0.1381  1.8729
  326SOL     OW 1790   5.735   0.642   4.646  0.6979 -0.2210  0.0883
  326SOL    HW1 1791   5.670   0.705   4.612  0.8336 -0.1293  0.0017
  326SOL    HW2 1792   5.686   0.560   4.654  0.0798  0.2772  1.7350
  327SOL     OW 1793   0.261   4.459   5.776 -0.2435 -0.4432 -0.4371
  327SOL    HW1 1794   0.291   4.480   5.688  0.3774 -0.0053 -0.1205
  327SOL    HW2 1795   0.285   4.535   5.829  1.6319 -1.7438  0.6247
  328SOL     OW 1796   0.639   4.501   6.615 -0.0489 -0.1945 -0.4598
  328SOL    HW1 1797   0.705   4.530   6.552 -0.0741  3.1434  0.9496
  328SOL    HW2 1798   0.564   4.476   6.562  1.2437 -1.1195 -1.9027
  329SOL     OW 1799   0.845   2.930   2.712 -0.2346 -0.0846  0.1515
  329SOL    HW1 1800   0.892   2.906   2.632  0.6303  0.2367  0.5491
  329SOL    HW2 1801   0.814   2.847   2.748 -1.6202 -0.1268 -1.1150
  330SOL     OW 1802   6.391   3.816   1.633 -0.4612  0.4460  0.0352
  330SOL    HW1 1803   6.430   3.880   1.693  0.6269  0.3466 -0.5673
  330SOL    HW2 1804   6.365   3.868   1.557  1.4440  0.0140 -0.9349
  331SOL     OW 1805   3.810   4.628   0.934  0.2235  0.2676  0.0424
  331SOL    HW1 1806   3.742   4.678   0.980  0.2444  1.3551 -1.0973
  331SOL    HW2 1807   3.881   4.619   0.999  0.4162  2.1318  0.1138
  332SOL     OW 1808   0.709   1.471   0.898 -0.4204  0.1170  0.3020
  332SOL    HW1 1809   0.717   1.459   0.993 -1.8982 -1.2349  0.2928
  332SOL    HW2 1810   0.639   1.535   0.888 -0.8334 -0.3594  0.1180
  333SOL     OW 1811   2.141   7.945   6.435  0.4733  0.0747  0.4382
  333SOL    HW1 1812   2.047   7.946   6.453  0.5720 -0.8387  1.0689
  333SOL    HW2 1813   2.173   8.028   6.469 -0.2922  0.9172 -0.8633
  334SOL     OW 1814   7.245   4.299   0.523  0.3605  0.0801 -0.7636
  334SOL    HW1 1815   7.238   4.393   0.537  2.1459 -0.1410  1.9251
  334SOL    HW2 1816   7.212   4.286   0.434  1.7362  3.4642 -1.8618
  335SOL     OW 1817   5.657   0.567   2.962  0.1314 -0.0396  0.3015
  335SOL    HW1 1818   5.591   0.633   2.981  1.2707  1.0049  0.6707
  335SOL    HW2 1819   5.705   0.557   3.044 -0.2085 -1.5472  0.3428
  336SOL     OW 1820   4.160   6.861   3.246 -0.4988 -0.0008  0.1091
  336SOL    HW1 1821   4.120   6.863   3.160  0.3012 -0.7926 -0.2900
  336SOL    HW2 1822   4.092   6.892   3.306 -0.7502  1.4435 -0.9108
  337SOL     OW 1823   2.335   0.193   4.568  0.3944 -0.1956  0.4000
  337SOL    HW1 1824   2.258   0.240   4.535  0.6294  0.1594  0.3452
  337SOL    HW2 1825   2.348   0.228   4.657  0.7234  0.0396  0.2643
  338SOL     OW 1826   5.154   3.125   2.359 -0.4466  0.1643 -0.8792
  338SOL    HW1 1827   5.065   3.123   2.394 -0.1640 -0.5063 -0.1671
  338SOL    HW2 1828   5.188   3.211   2.382 -0.0687 -0.4785  1.0317
  339SOL     OW 1829   1.424   6.321   1.671  0.0679  0.2764  1.2386
  339SOL    HW1 1830   1.473   6.258   1.619 -0.2745  0.8573  0.1837
  339SOL    HW2 1831   1.488   6.358   1.732  0.5931 -0.0181  0.8653
  340SOL     OW 1832   6.625   6.687   0.752 -0.2103 -0.5935  0.4523
  340SOL    HW1 1833   6.605   6.772   0.793  0.0076 -1.3773  2.2538
  340SOL    HW2 1834   6.672   6.639   0.820  0.9352 -1.6303 -1.0624
  341SOL     OW 1835   1.361   7.204   4.351  0.2922  0.1895 -0.5372
  341SOL    HW1 1836   1.389   7.180   4.440  0.1712 -1.1319 -0.8435
  341SOL    HW2 1837   1.394   7.293   4.339  1.0575  0.0664  0.5244
  342SOL     OW 1838   1.039   7.416   6.641 -0.3388  0.2729 -0.0791
  342SOL    HW1 1839   1.093   7.368   6.704  0.1126  0.7092 -0.1260
  342SOL    HW2 1840   1.011   7.495   6.688 -1.1271 -0.0592  0.0173
  343SOL     OW 1841   3.517   7.321   5.374 -0.1206 -0.4372  0.2642
  343SOL    HW1 1842   3.599   7.271   5.365  0.4953  0.7959 -1.2884
  343SOL    HW2 1843   3.454   7.272   5.322 -0.0189 -0.6421  0.3307
  344SOL     OW 1844   4.682   1.069   5.221 -0.2513  0.3127  0.3245
  344SOL    HW1 1845   4.637   1.076   5.137  0.6551 -0.3672 -0.2341
  344SOL    HW2 1846   4.755   1.009   5.204 -0.6869 -0.6901  1.8655
  345SOL     OW 1847   5.882   4.550   0.186 -0.0273 -0.2167  0.7802
  345SOL    HW1 1848   5.964   4.505   0.163 -0.5926 -0.5685 -0.6145
  345SOL    HW2 1849   5.846   4.578   0.102 -0.3332  1.7558  1.5399
  346SOL     OW 1850   4.102   1.823   1.712  0.1466  0.1509  0.0934
  346SOL    HW1 1851   4.015   1.790   1.736  0.0932  0.0393 -0.2519
  346SOL    HW2 1852   4.083   1.899   1.657  0.2598  1.2433  1.5220
  347SOL     OW 1853   4.558   2.265   7.427  0.2298  0.2626 -0.4558
  347SOL    HW1 1854   4.633   2.301   7.474 -1.0525 -1.7140  3.3089
  347SOL    HW2 1855   4.581   2.173   7.413 -0.4415  0.2593 -1.5505
  348SOL     OW 1856   7.287   0.785   4.005  0.6858 -0.5191  0.5395
  348SOL    HW1 1857   7.241   0.707   3.973 -0.6356  0.3380  0.3198
  348SOL    HW2 1858   7.307   0.835   3.926 -1.3607  0.9354  0.9090
  349SOL     OW 1859   5.854   1.494   1.452 -0.1191 -0.4175  0.3655
  349SOL    HW1 1860   5.780   1.525   1.504  0.3099  0.0351  0.7089
  349SOL    HW2 1861   5.833   1.521   1.362 -0.6926 -0.8919  0.3562
  350SOL     OW 1862   0.137   2.935   3.190  0.3574 -0.3345  0.3697
  350SOL    HW1 1863   0.181   2.875   3.250  0.8547 -1.3933 -1.0153
  350SOL    HW2 1864   0.117   2.881   3.113 -0.4074  0.9505 -0.3502
  351SOL     OW 1865   3.737   5.937   1.830  0.3216  0.0813 -0.0741
  351SOL    HW1 1866   3.717   6.028   1.853 -0.0250 -0.2110  0.8037
  351SOL    HW2 1867   3.819   5.918   1.876  0.2799 -0.1165 -0.0794
  352SOL     OW 1868   7.806   0.460   4.916  0.3074  0.9492 -0.2951
  352SOL    HW1 1869   7.887   0.413   4.937  0.5497  1.2850 -0.4557
  352SOL    HW2 1870   7.826   0.504   4.833  0.5912  2.4968  0.5741
  353SOL     OW 1871   0.693   7.624   1.315 -0.3185 -0.1195  0.1521
  353SOL    HW1 1872   0.741   7.614   1.398 -0.5499 -0.1777  0.2811
  353SOL    HW2 1873   0.681   7.534   1.284  0.1878 -0.0708 -0.1884
  354SOL     OW 1874   6.776   1.084   1.147  0.4692 -0.1150  0.0823
  354SOL    HW1 1875   6.688   1.084   1.186  0.0058  0.4196 -0.9605
  354SOL    HW2 1876   6.800   0.991   1.145 -0.5564 -0.3770 -0.6903
  355SOL     OW 1877   3.159   6.375   3.383  0.0073  0.0991 -0.2173
  355SOL    HW1 1878   3.218   6.417   3.446 -0.3267 -1.3410  1.0962
  355SOL    HW2 1879   3.144   6.441   3.316  1.6377  1.1184  0.3994
  356SOL     OW 1880   4.268   3.769   7.908 -0.1754 -0.4165  0.0623
  356SOL    HW1 1881   4.239   3.703   7.970  0.1180  0.8349  1.5785
  356SOL    HW2 1882   4.188   3.800   7.866 -0.9615  1.8277  3.0069
  357SOL     OW 1883   3.576   4.093   0.737  0.4886 -0.1073 -0.5748
  357SOL    HW1 1884   3.603   4.118   0.648 -2.5599  0.5615 -1.3664
  357SOL    HW2 1885   3.600   4.169   0.791 -0.3191  0.7174 -1.3550
  358SOL     OW 1886   5.252   6.055   0.456  0.0443 -0.0754 -0.5224
  358SOL    HW1 1887   5.217   5.977   0.498 -1.5524  0.7741 -0.2484
  358SOL    HW2 1888   5.241   6.125   0.520  0.1010  0.6822 -1.3198
  359SOL     OW 1889   3.802   7.617   1.008 -0.0610  0.1177 -0.2903
  359SOL    HW1 1890   3.857   7.650   0.936 -0.0019  0.4592 -0.0900
  359SOL    HW2 1891   3.858   7.554   1.053 -0.6037 -1.2207 -1.4298
  360SOL     OW 1892   1.131   5.660   7.935  0.1077  0.3523 -0.0836
  360SOL    HW1 1893   1.141   5.584   7.877  0.4142 -0.7385  1.3611
  360SOL    HW2 1894   1.212   5.661   7.987  0.8320  2.6403 -1.1915
  361SOL     OW 1895   0.588   2.642   5.820  0.1694  0.2608  0.2103
  361SOL    HW1 1896   0.594   2.626   5.914 -2.4161 -1.1943  0.1779
  361SOL    HW2 1897   0.548   2.729   5.812  1.0926  0.7084  0.4461
  362SOL     OW 1898   6.006   7.132   6.827 -0.1149  0.4856 -0.5131
  362SOL    HW1 1899   5.984   7.202   6.766 -0.6036 -0.1744 -1.0972
  362SOL    HW2 1900   6.057   7.176   6.896  2.2849  0.8792 -2.4592
  363SOL     OW 1901   7.300   5.322   6.311 -0.0284  0.0808 -0.3515
  363SOL    HW1 1902   7.266   5.385   6.248 -1.1720 -1.2545 -1.1023
  363SOL    HW2 1903   7.222   5.285   6.353  0.6993  0.4728  1.3743
  364SOL     OW 1904   7.470   5.708   2.866 -0.3057  0.2292 -0.5019
  364SOL    HW1 1905   7.479   5.642   2.798  0.0229  2.7037 -2.9673
  364SOL    HW2 1906   7.550   5.701   2.918  0.0265 -0.8278 -1.1510
  365SOL     OW 1907   7.652   0.492   3.703  0.4650  0.2365  0.9644
  365SOL    HW1 1908   7.650   0.458   3.793 -3.4287  0.2758  1.0104
  365SOL    HW2 1909   7.563   0.476   3.670  1.5846  0.9746 -2.6166
  366SOL     OW 1910   3.562   6.444   1.551  0.0492 -0.3365 -0.0449
  366SOL    HW1 1911   3.560   6.381   1.478 -0.4084 -0.4153  0.0379
  366SOL    HW2 1912   3.571   6.390   1.629 -0.6220 -0.3145  0.0483
  367SOL     OW 1913   7.571   7.637   5.900  0.2357 -0.7463 -0.0055
  367SOL    HW1 1914   7.615   7.594   5.974  0.2636 -0.0152  0.4059
  367SOL    HW2 1915   7.498   7.684   5.939 -0.6529 -1.5886 -0.6392
  368SOL     OW 1916   1.497   0.192   1.546  0.5962  0.5927  0.3049
  368SOL    HW1 1917   1.525   0.238   1.625  1.1945 -1.9698  1.6697
  368SOL    HW2 1918   1.566   0.127   1.531  0.2228  0.7086 -2.0458
  369SOL     OW 1919   7.708   0.302   2.749  0.6923  0.1160 -0.3141
  369SOL    HW1 1920   7.699   0.338   2.661 -0.3001  0.2145 -0.1825
  369SOL    HW2 1921   7.690   0.376   2.807 -0.4054 -0.3435 -0.0420
  370SOL     OW 1922   6.839   4.255   2.565  0.0032  0.3403  0.0667
  370SOL    HW1 1923   6.894   4.183   2.537 -0.9773 -0.0579 -0.9104
  370SOL    HW2 1924   6.852   4.262   2.659 -0.7975 -1.9074  0.3665
  371SOL     OW 1925   2.721   1.905   0.351 -0.2888  0.0721  0.3325
  371SOL    HW1 1926   2.784   1.838   0.325 -0.6405 -0.0278 -0.2700
  371SOL    HW2 1927   2.775   1.981   0.373  0.0252  0.1117 -0.5486
  372SOL     OW 1928   0.558   0.597   5.593 -0.5063  0.0257 -0.5440
  372SOL    HW1 1929   0.613   0.655   5.541 -0.2994  0.7738  0.5001
  372SOL    HW2 1930   0.610   0.517   5.602 -0.7736 -0.3210 -1.9396
  373SOL     OW 1931   1.965   2.095   7.104  0.3554 -0.2465 -0.2905
  373SOL    HW1 1932   1.892   2.135   7.150 -1.2896 -1.3354 -1.8418
  373SOL    HW2 1933   1.949   2.001   7.111  0.5071 -0.4572 -2.2890
  374SOL     OW 1934   4.463   3.449   2.191 -0.2548 -0.2889  0.0101
  374SOL    HW1 1935   4.428   3.532   2.223 -0.4268 -0.3290 -0.0689
  374SOL    HW2 1936   4.468   3.393   2.268 -0.0096 -0.1619  0.0871
  375SOL     OW 1937   2.632   2.683   4.284 -0.4965 -0.3223  0.0012
  375SOL    HW1 1938   2.610   2.686   4.191  1.6102 -0.9815 -0.5614
  375SOL    HW2 1939   2.688   2.605   4.292  0.6073  0.5997  1.5216
  376SOL     OW 1940   7.764   7.724   4.474 -0.3217  0.0168 -0.3003
  376SOL    HW1 1941   7.704   7.674   4.419 -0.2352 -0.5011  0.0714
  376SOL    HW2 1942   7.708   7.762   4.541 -0.0106 -1.9555  1.1251
  377SOL     OW 1943   3.613   6.294   5.505 -0.9074 -0.4482 -0.5017
  377SOL    HW1 1944   3.572   6.380   5.508  1.0550  0.4854  0.4242
  377SOL    HW2 1945   3.654   6.289   5.419  0.0655  0.0682 -0.0720
  378SOL     OW 1946   6.778   0.336   1.319  0.0385  0.1439 -0.6050
  378SOL    HW1 1947   6.862   0.317   1.278  0.7880  1.7125  0.1603
  378SOL    HW2 1948   6.780   0.286   1.401  0.5369  0.7623 -0.2394
  379SOL     OW 1949   0.483   5.938   5.888  0.1429  0.2075  0.4868
  379SOL    HW1 1950   0.461   5.859   5.839  0.6358  0.6854 -0.5108
  379SOL    HW2 1951   0.559   5.974   5.843 -0.7446  1.8363  0.2591
  380SOL     OW 1952   2.567   5.330   1.621  0.4464 -0.7932 -0.0317
  380SOL    HW1 1953   2.649   5.324   1.572  1.1268 -0.9190  1.1011
  380SOL    HW2 1954   2.507   5.272   1.574  0.2474  1.1632 -2.2993
  381SOL     OW 1955   0.441   0.017   7.498 -0.1479  0.1786  0.0059
  381SOL    HW1 1956   0.374  -0.019   7.556  0.1329  1.7969  1.3709
  381SOL    HW2 1957   0.420  -0.019   7.412 -3.8154  1.9892  0.0620
  382SOL     OW 1958   1.607   3.280   4.227 -0.4548  0.0941  0.2238
  382SOL    HW1 1959   1.635   3.364   4.191 -0.1366  1.0228  2.5319
  382SOL    HW2 1960   1.514   3.293   4.247 -0.5463 -0.2929  0.0441
  383SOL     OW 1961   7.644   6.808   6.633 -0.1342 -0.3313  0.6074
  383SOL    HW1 1962   7.555   6.806   6.600  0.5729  0.2633 -1.4016
  383SOL    HW2 1963   7.655   6.897   6.667  0.0347 -0.0630 -0.1417
  384SOL     OW 1964   2.673   1.120   6.700 -0.4383 -0.0294  0.1359
  384SOL    HW1 1965   2.745   1.175   6.670  0.7196 -1.1276  0.8504
  384SOL    HW2 1966   2.634   1.086   6.619  0.6621 -0.4593 -0.2148
  385SOL     OW 1967   7.244   3.663   3.594  0.3996  0.5181  0.3046
  385SOL    HW1 1968   7.237   3.749   3.552  1.1538  1.2016  1.5132
  385SOL    HW2 1969   7.320   3.672   3.652  0.8666 -1.1813 -0.0287
  386SOL     OW 1970   2.901   7.796   1.279 -0.4565 -0.7723 -0.1538
  386SOL    HW1 1971   2.911   7.890   1.268 -0.9358 -0.7134 -0.0838
  386SOL    HW2 1972   2.973   7.770   1.336 -1.4671 -0.1321  1.4656
  387SOL     OW 1973   6.386   2.789   7.656  0.1146  0.0019  0.3158
  387SOL    HW1 1974   6.374   2.703   7.615 -0.3992 -0.1606  0.8093
  387SOL    HW2 1975   6.298   2.816   7.680 -0.0209  1.6620 -1.8500
  388SOL     OW 1976   0.944   7.291   4.835 -0.2738 -0.0561 -0.1899
  388SOL    HW1 1977   0.941   7.341   4.754  1.0195 -0.5175 -0.5374
  388SOL    HW2 1978   0.921   7.354   4.904  1.1168  0.9714 -0.6410
  389SOL     OW 1979   2.327   7.944   2.790 -0.0070 -0.5783 -0.6424
  389SOL    HW1 1980   2.390   7.983   2.851 -0.5934 -0.6438  0.0124
  389SOL    HW2 1981   2.244   7.942   2.839 -1.0513  1.5619 -2.2603
  390SOL     OW 1982   2.427   0.615   1.496 -0.4142  0.3132  0.2576
  390SOL    HW1 1983   2.502   0.658   1.455  0.8891  0.2974  2.5964
  390SOL    HW2 1984   2.378   0.686   1.537  1.8297 -0.3573  4.2730
  391SOL     OW 1985   2.813   0.127   4.646  0.0574  0.0261 -0.0215
  391SOL    HW1 1986   2.743   0.088   4.699  2.2707 -2.2015  1.4348
  391SOL    HW2 1987   2.801   0.090   4.559 -0.9880  0.1792  0.0601
  392SOL     OW 1988   3.478   7.782   1.108 -0.2340  0.7593 -0.7220
  392SOL    HW1 1989   3.462   7.858   1.164 -0.5551  0.1376  0.0411
  392SOL    HW2 1990   3.539   7.727   1.159  0.3106  0.6940 -1.4357
  393SOL     OW 1991   6.294   2.968   2.228  0.5062  0.0278  0.2700
  393SOL    HW1 1992   6.388   2.978   2.243  0.9146  1.0159 -2.5980
  393SOL    HW2 1993   6.288   2.904   2.157 -1.0449 -0.8533  1.1779
  394SOL     OW 1994   3.928   4.702   7.061 -0.5141  0.2848 -0.3381
  394SOL    HW1 1995   3.996   4.707   7.129 -0.6009  2.2190 -0.3774
  394SOL    HW2 1996   3.851   4.742   7.101 -1.0310  0.0008 -1.0489
  395SOL     OW 1997   2.619   1.853   1.365 -0.5101 -0.8602  0.1949
  395SOL    HW1 1998   2.702   1.899   1.373 -0.6031 -0.7473  0.4917
  395SOL    HW2 1999   2.642   1.760   1.376 -0.2689 -0.9226 -0.7707
  396SOL     OW 2000   1.954   6.660   4.887  0.6454 -0.3374 -0.1285
  396SOL    HW1 2001   2.031   6.626   4.843 -0.3396 -2.7611 -0.0399
  396SOL    HW2 2002   1.880   6.631   4.833 -0.3678 -0.5121  1.3199
  397SOL     OW 2003   6.335   1.103   5.234 -0.0507  0.1204  0.1933
  397SOL    HW1 2004   6.333   1.037   5.304  0.7669 -0.5665 -0.4162
  397SOL    HW2 2005   6.309   1.055   5.156  0.4487  0.5405 -0.2350
  398SOL     OW 2006   2.485   4.463   6.008  0.3072  0.6359  0.4277
  398SOL    HW1 2007   2.452   4.513   5.933  0.5214 -0.9829 -0.7701
  398SOL    HW2 2008   2.580   4.468   6.001  0.3409  1.8717  1.5575
  399SOL     OW 2009   3.185   5.409   3.909 -0.2054  0.4003  0.8409
  399SOL    HW1 2010   3.212   5.408   4.001 -1.8925 -0.0607  1.3489
  399SOL    HW2 2011   3.168   5.317   3.888  1.3878  0.3587 -0.3090
  400SOL     OW 2012   6.312   1.689   2.035 -0.1550  0.1321 -0.3263
  400SOL    HW1 2013   6.230   1.656   1.998  0.2683 -1.1212 -0.1537
  400SOL    HW2 2014   6.378   1.625   2.009  0.3101 -0.2830  1.8005
  401SOL     OW 2015   7.859   6.512   1.723  0.5383  0.3133 -0.4134
  401SOL    HW1 2016   7.842   6.606   1.723  0.3960  0.3046  0.7083
  401SOL    HW2 2017   7.915   6.496   1.648  2.3258  1.6257  0.6287
  402SOL     OW 2018   3.610   2.896   1.893  0.0276  0.1592 -0.0941
  402SOL    HW1 2019   3.571   2.884   1.806  0.4867  1.0090 -0.4263
  402SOL    HW2 2020   3.542   2.866   1.954 -0.8602  0.9101 -0.6909
  403SOL     OW 2021   4.462   2.454   4.969  0.0075  0.2724 -0.1940
  403SOL    HW1 2022   4.453   2.359   4.970  0.7319  0.1813 -1.7968
  403SOL    HW2 2023   4.524   2.473   5.039  0.0832 -0.4529 -0.0608
  404SOL     OW 2024   1.782   1.210   5.127 -0.0911 -0.1546  0.3379
  404SOL    HW1 2025   1.731   1.248   5.055 -1.5467 -1.1666  0.8091
  404SOL    HW2 2026   1.780   1.116   5.111  2.0978 -0.1763  0.0862
  405SOL     OW 2027   5.748   1.126   4.895  0.1848 -0.1787  0.3702
  405SOL    HW1 2028   5.670   1.111   4.841  0.8212 -1.0727 -0.3252
  405SOL    HW2 2029   5.791   1.040   4.898  1.9452  0.6543 -0.5280
  406SOL     OW 2030   5.781   7.170   3.045 -0.5399  0.0044  0.0302
  406SOL    HW1 2031   5.796   7.076   3.036  0.9689  0.4128 -2.3505
  406SOL    HW2 2032   5.784   7.203   2.955 -0.3721  2.4202  0.8829
  407SOL     OW 2033   1.013   6.610   4.710  0.6053 -0.2991  0.5432
  407SOL    HW1 2034   0.986   6.522   4.738 -2.8521  0.8254  0.9849
  407SOL    HW2 2035   0.975   6.668   4.776 -0.5863  1.7973 -1.9249
  408SOL     OW 2036   4.975   4.053   5.775  0.0067  0.3156  0.0580
  408SOL    HW1 2037   4.910   4.025   5.840 -1.0269  0.8772 -0.7217
  408SOL    HW2 2038   4.923   4.077   5.698  1.2563 -0.9402 -1.2130
  409SOL     OW 2039   7.830   4.778   1.783 -0.0196 -0.0617 -0.4434
  409SOL    HW1 2040   7.812   4.861   1.739 -1.8535  0.5251  1.3526
  409SOL    HW2 2041   7.854   4.802   1.872  1.5806 -1.3598 -0.4878
  410SOL     OW 2042   4.003   2.566   5.264  0.3680  0.1121 -0.1058
  410SOL    HW1 2043   3.973   2.648   5.304 -1.3585 -0.5716  0.0269
  410SOL    HW2 2044   3.929   2.536   5.212  0.9289 -1.4706 -0.0030
  411SOL     OW 2045   5.366   4.690   1.438 -0.3723 -0.2738  0.6276
  411SOL    HW1 2046   5.338   4.678   1.529 -0.2203  0.7086  0.8109
  411SOL    HW2 2047   5.343   4.608   1.395 -3.4920  0.4517  0.7713
  412SOL     OW 2048   7.558   1.406   0.358  0.5326 -0.1324  0.5839
  412SOL    HW1 2049   7.592   1.417   0.270 -2.3981  0.0069 -0.5987
  412SOL    HW2 2050   7.478   1.355   0.347 -1.0280  1.6608  2.8731
  413SOL     OW 2051   2.595   7.504   3.858 -0.5507 -0.3966 -0.1423
  413SOL    HW1 2052   2.512   7.531   3.897 -0.4254  0.6473 -0.5643
  413SOL    HW2 2053   2.639   7.587   3.837  0.3820 -0.9410 -0.3708
  414SOL     OW 2054   1.464   4.461   7.022  0.1266 -0.1337  0.1417
  414SOL    HW1 2055   1.378   4.448   7.062 -0.9287  1.1532 -1.6629
  414SOL    HW2 2056   1.468   4.396   6.951  0.1149  0.6320 -0.5760
  415SOL     OW 2057   1.314   4.794   7.009  0.0901 -0.0688  0.2555
  415SOL    HW1 2058   1.262   4.741   7.069  1.3971 -2.7003 -0.8531
  415SOL    HW2 2059   1.400   4.800   7.050  0.1789  0.4976 -0.0121
  416SOL     OW 2060   6.346   2.578   0.329  0.3387 -0.1023  1.0676
  416SOL    HW1 2061   6.255   2.565   0.301  1.0414  0.6610 -1.6211
  416SOL    HW2 2062   6.399   2.560   0.252  2.4879 -0.0308  2.4633
  417SOL     OW 2063   5.860   5.249   4.927  0.1118  0.0476 -0.1129
  417SOL    HW1 2064   5.774   5.214   4.904 -0.1578  1.1775 -0.8356
  417SOL    HW2 2065   5.886   5.197   5.003 -2.3785  1.4152  1.7767
  418SOL     OW 2066   2.814   3.448   6.170  0.0533 -0.2500 -0.1379
  418SOL    HW1 2067   2.844   3.359   6.189 -0.9677 -0.5761 -0.0495
  418SOL    HW2 2068   2.739   3.437   6.113 -0.5119  0.5314  0.4362
  419SOL     OW 2069   1.642   7.095   3.721  0.0185 -0.0496  0.1454
  419SOL    HW1 2070   1.553   7.131   3.728 -0.3245 -0.7807 -0.2862
  419SOL    HW2 2071   1.653   7.043   3.801 -0.2523 -0.6034 -0.1706
  420SOL     OW 2072   1.563   7.148   4.889 -0.2118  0.0782  0.0918
  420SOL    HW1 2073   1.523   7.130   4.974  2.8065 -0.0871  1.5635
  420SOL    HW2 2074   1.552   7.067   4.839 -0.0577 -0.5797  1.1254
  421SOL     OW 2075   5.237   1.551   3.057  0.3908 -0.2173 -0.1047
  421SOL    HW1 2076   5.243   1.612   2.984 -0.0443  0.0851  0.1083
  421SOL    HW2 2077   5.157   1.501   3.039  1.2211 -1.3345 -0.7457
  422SOL     OW 2078   2.541   4.616   4.217 -0.1781  0.0122 -0.4473
  422SOL    HW1 2079   2.613   4.610   4.153  0.6218 -0.6326  0.5016
  422SOL    HW2 2080   2.533   4.709   4.234  0.2080  0.1201 -0.8214
  423SOL     OW 2081   3.762   1.741   6.837  0.0800 -0.3989  0.4207
  423SOL    HW1 2082   3.806   1.776   6.914  1.3724 -1.5699  0.2372
  423SOL    HW2 2083   3.702   1.675   6.871  0.4819 -0.7511  0.4506
  424SOL     OW 2084   1.818   7.370   3.309 -0.5752  0.0929  0.3283
  424SOL    HW1 2085   1.889   7.342   3.250 -0.5421  0.0898  0.3697
  424SOL    HW2 2086   1.801   7.293   3.363 -1.5682 -0.3632 -0.6111
  425SOL     OW 2087   5.777   2.688   4.600  0.0545  0.2181 -0.1747
  425SOL    HW1 2088   5.820   2.751   4.658  0.1464  0.4581 -0.4992
  425SOL    HW2 2089   5.738   2.742   4.531 -0.2631 -0.0441 -0.2027
  426SOL     OW 2090   0.904   0.593   1.745 -0.0845  0.6370  0.2142
  426SOL    HW1 2091   0.825   0.603   1.798  0.2172  1.8604  0.4440
  426SOL    HW2 2092   0.878   0.622   1.658 -0.2755 -0.3289 -0.0576
  427SOL     OW 2093   4.787   4.607   6.399  0.2817  0.1707 -0.2374
  427SOL    HW1 2094   4.729   4.682   6.383  0.0774 -0.0991 -0.7768
  427SOL    HW2 2095   4.792   4.601   6.494 -2.4140 -1.1945 -0.1125
  428SOL     OW 2096   7.234   3.454   0.284  0.4599 -0.1931 -0.0165
  428SOL    HW1 2097   7.289   3.463   0.362  0.0945 -2.4094  0.5232
  428SOL    HW2 2098   7.147   3.431   0.318  0.4205 -1.6987 -1.0714
  429SOL     OW 2099   4.581   1.336   4.696 -1.0576  0.3133 -0.1242
  429SOL    HW1 2100   4.616   1.424   4.711 -2.0107  0.9395 -1.5531
  429SOL    HW2 2101   4.487   1.344   4.714 -0.8045 -0.9573  1.9682
  430SOL     OW 2102   3.042   5.993   1.493 -0.3006  0.1280  0.4379
  430SOL    HW1 2103   3.106   5.952   1.435 -0.7759  0.7794 -0.5522
  430SOL    HW2 2104   3.058   5.952   1.579  1.4663  0.3412  0.2195
  431SOL     OW 2105   4.268   6.656   2.758  0.2364  0.2669 -0.0130
  431SOL    HW1 2106   4.280   6.678   2.666  0.4048 -1.2057 -0.3513
  431SOL    HW2 2107   4.345   6.604   2.781  0.0141  0.3107  0.8524
  432SOL     OW 2108   7.602   2.548   1.515 -0.2062 -0.4455  0.2925
  432SOL    HW1 2109   7.531   2.516   1.459  1.4990 -1.0451 -1.5766
  432SOL    HW2 2110   7.583   2.510   1.601 -0.8802 -2.5265 -0.7355
  433SOL     OW 2111   6.976   2.330   5.878 -0.4070 -0.4137  0.1481
  433SOL    HW1 2112   6.967   2.241   5.912  0.6670 -0.6251 -0.0968
  433SOL    HW2 2113   6.901   2.340   5.819 -1.7707 -0.3606  1.8671
  434SOL     OW 2114   4.879   7.286   3.568  0.5062  0.5110 -0.3846
  434SOL    HW1 2115   4.835   7.336   3.499  0.9310 -1.3738 -2.0631
  434SOL    HW2 2116   4.833   7.202   3.571  0.2535  0.6915  1.9243
  435SOL     OW 2117   6.273   2.492   4.626  0.2646 -0.4597 -0.2146
  435SOL    HW1 2118   6.211   2.545   4.677 -0.2482 -0.3341 -0.9649
  435SOL    HW2 2119   6.242   2.402   4.639 -0.3594 -0.3575 -0.9686
  436SOL     OW 2120   0.581   7.040   0.767  0.2047  0.9972 -0.0310
  436SOL    HW1 2121   0.646   7.090   0.718 -0.2088  2.2922  0.7363
  436SOL    HW2 2122   0.497   7.061   0.725  0.2525 -0.5617 -0.9350
  437SOL     OW 2123   6.079   5.942   0.810  0.1464  0.1465  0.1006
  437SOL    HW1 2124   6.065   6.006   0.880 -1.3561 -0.2398  0.1854
  437SOL    HW2 2125   6.033   5.978   0.735 -1.0573 -0.9917  0.2608
  438SOL     OW 2126   1.938   7.744   7.199  0.2169 -0.0744 -0.3921
  438SOL    HW1 2127   1.874   7.815   7.205  2.2410  1.6314  1.3847
  438SOL    HW2 2128   1.992   7.766   7.123  0.8205  0.2270  0.1337
  439SOL     OW 2129   4.930   5.081   1.370 -0.0724 -0.3779 -0.2395
  439SOL    HW1 2130   4.980   5.094   1.451  0.1827  0.6230 -0.5535
  439SOL    HW2 2131   4.889   4.995   1.381  1.1369 -0.8992  0.3292
  440SOL     OW 2132   2.735   3.868   6.598 -0.1379  0.3889  0.4223
  440SOL    HW1 2133   2.740   3.872   6.502  1.0817 -0.8836  0.4257
  440SOL    HW2 2134   2.732   3.960   6.625 -0.6561  0.7558 -0.8329
  441SOL     OW 2135   5.062   3.215   0.335 -0.0889  0.4176 -0.7338
  441SOL    HW1 2136   5.031   3.209   0.244 -0.8814 -3.1106 -0.2937
  441SOL    HW2 2137   5.155   3.192   0.330 -0.7594 -2.5760 -0.3636
  442SOL     OW 2138   1.774   2.461   3.068  0.8321  0.1420  0.3050
  442SOL    HW1 2139   1.745   2.538   3.020  1.4677  0.0409 -0.2394
  442SOL    HW2 2140   1.694   2.414   3.090  0.3946  1.3470  1.2815
  443SOL     OW 2141   2.601   3.000   7.343 -0.3508 -0.7245 -0.5513
  443SOL    HW1 2142   2.627   3.087   7.312 -1.8479  0.2045  0.7305
  443SOL    HW2 2143   2.647   2.990   7.426  0.5423 -1.5657 -1.1307
  444SOL     OW 2144   7.662   3.827   7.558 -0.2525 -0.3901  0.2419
  444SOL    HW1 2145   7.583   3.799   7.512  0.1553  0.5180 -1.0803
  444SOL    HW2 2146   7.640   3.824   7.650 -1.4879 -1.1603 -0.0758
  445SOL     OW 2147   4.770   5.192   2.678 -0.0562 -0.7527 -0.7034
  445SOL    HW1 2148   4.818   5.274   2.692  1.7122 -2.1884  2.2443
  445SOL    HW2 2149   4.708   5.212   2.608  2.6697  2.1173 -2.4699
  446SOL     OW 2150   3.714   5.074   4.196  0.3536  0.2097 -0.9058
  446SOL    HW1 2151   3.635   5.119   4.169 -0.2892 -0.4656 -0.2110
  446SOL    HW2 2152   3.687   5.022   4.272  1.3256 -0.4679 -1.0064
  447SOL     OW 2153   5.671   3.812   3.968 -0.1501  0.3639  0.2704
  447SOL    HW1 2154   5.628   3.728   3.952  0.0997  0.5218 -1.3062
  447SOL    HW2 2155   5.752   3.789   4.014  0.6903 -0.4225 -1.5399
  448SOL     OW 2156   1.788   0.469   2.815 -0.0704  0.4583 -0.4167
  448SOL    HW1 2157   1.863   0.528   2.806  0.7025 -0.7414 -1.9796
  448SOL    HW2 2158   1.817   0.386   2.778 -0.6525 -1.3938  3.0239
  449SOL     OW 2159   2.713   6.522   1.516 -0.5517  0.1179  0.3065
  449SOL    HW1 2160   2.712   6.495   1.608  1.9606 -0.0055  0.3184
  449SOL    HW2 2161   2.703   6.617   1.520 -1.6360 -0.0024  0.6378
  450SOL     OW 2162   5.152   5.004   1.555  0.2706 -0.2573  0.2933
  450SOL    HW1 2163   5.206   4.978   1.630  0.4866 -0.9646 -0.1072
  450SOL    HW2 2164   5.129   5.096   1.573 -0.6372 -0.7566  1.7945
  451SOL     OW 2165   6.103   1.209   7.078 -0.5833 -0.7016  0.3350
  451SOL    HW1 2166   6.029   1.259   7.112 -0.7550 -1.6761  1.4020
  451SOL    HW2 2167   6.145   1.268   7.015 -1.5530  0.2959  0.6188
  452SOL     OW 2168   6.093   4.721   3.352  0.3451  0.3358 -0.3035
  452SOL    HW1 2169   6.072   4.778   3.278  1.5488 -0.6078 -1.4157
  452SOL    HW2 2170   6.181   4.746   3.377  0.0869  0.3786  0.5537
  453SOL     OW 2171   6.006   0.321   5.962 -1.0298 -0.1354 -0.0277
  453SOL    HW1 2172   5.934   0.380   5.982  1.0867  2.4223  0.2450
  453SOL    HW2 2173   6.010   0.319   5.867 -0.6778  0.7442 -0.0378
  454SOL     OW 2174   6.328   7.227   2.235  0.6880  0.1531  0.0718
  454SOL    HW1 2175   6.264   7.274   2.181  0.3405 -0.7895 -0.3688
  454SOL    HW2 2176   6.312   7.257   2.324 -0.6076 -0.3064  0.0086
  455SOL     OW 2177   3.143   0.945   4.183  0.2081  0.5519  0.5341
  455SOL    HW1 2178   3.191   1.009   4.235  0.5589 -1.2158  2.4266
  455SOL    HW2 2179   3.190   0.941   4.100  0.0991  2.8130  0.3197
  456SOL     OW 2180   7.398   3.454   3.960  0.2785  0.0066 -0.1111
  456SOL    HW1 2181   7.372   3.370   3.921 -4.2320  1.6717 -1.1209
  456SOL    HW2 2182   7.345   3.460   4.040  1.9822  1.0716  0.9528
  457SOL     OW 2183   7.692   2.475   2.878  0.6345  0.0969 -0.1632
  457SOL    HW1 2184   7.746   2.510   2.807 -1.5014  0.4027 -1.7045
  457SOL    HW2 2185   7.666   2.552   2.929 -2.4499  0.6878 -2.4149
  458SOL     OW 2186   6.241   2.990   3.298  0.5443 -0.2122  0.0584
  458SOL    HW1 2187   6.251   3.037   3.381 -1.1370  0.0589  0.1227
  458SOL    HW2 2188   6.290   2.908   3.312 -0.3030 -0.4881  1.5919
  459SOL     OW 2189   6.809   1.879   2.626 -0.6971  0.1958 -0.5482
  459SOL    HW1 2190   6.730   1.902   2.575  0.3401  0.3513 -2.1168
  459SOL    HW2 2191   6.833   1.793   2.594 -0.6326 -0.1549  0.4485
  460SOL     OW 2192   0.353   1.998   1.795  0.1435  0.3503 -0.0498
  460SOL    HW1 2193   0.418   2.035   1.735  1.2220 -1.8330 -0.2632
  460SOL    HW2 2194   0.291   1.952   1.739 -0.8802  1.3409  0.2562
  461SOL     OW 2195   7.300   6.304   7.057  0.2801 -0.1693 -0.1018
  461SOL    HW1 2196   7.248   6.309   7.137 -0.8073  0.4335 -0.8261
  461SOL    HW2 2197   7.383   6.346   7.079  0.0961 -0.2830  0.8030
  462SOL     OW 2198   2.086   2.162   2.180 -0.0508 -0.3553 -0.3481
  462SOL    HW1 2199   2.020   2.206   2.234 -0.5141 -0.0721 -1.1260
  462SOL    HW2 2200   2.064   2.069   2.186  0.7058 -0.4569  1.0047
  463SOL     OW 2201   3.252   3.148   3.622 -0.2011  0.0595  0.0461
  463SOL    HW1 2202   3.231   3.229   3.667 -0.4983  0.1330 -0.2274
  463SOL    HW2 2203   3.328   3.170   3.568 -0.3531  0.1819 -0.1150
  464SOL     OW 2204   6.908   6.738   4.915 -0.3698 -0.3122 -0.2001
  464SOL    HW1 2205   6.957   6.693   4.984 -0.1437  0.8960  0.4515
  464SOL    HW2 2206   6.975   6.776   4.858 -0.4698  2.3026  1.3255
  465SOL     OW 2207   7.751   0.695   4.227 -0.0433  0.3930 -0.4724
  465SOL    HW1 2208   7.675   0.642   4.208 -1.3049  1.7455  0.6590
  465SOL    HW2 2209   7.738   0.776   4.177  1.7893 -0.2632 -2.0860
  466SOL     OW 2210   5.467   2.782   2.816 -0.1223  0.2055  0.1895
  466SOL    HW1 2211   5.434   2.716   2.877 -0.1314 -0.1565 -0.1983
  466SOL    HW2 2212   5.392   2.840   2.801  0.0326  0.5857  0.9127
  467SOL     OW 2213   3.111   0.907   0.207 -0.1673 -0.4719  0.3972
  467SOL    HW1 2214   3.152   0.874   0.127  0.8981 -2.7432  1.8411
  467SOL    HW2 2215   3.036   0.850   0.221  0.1437 -0.6088  1.4897
  468SOL     OW 2216   7.147   0.041   3.053  0.1933 -0.3168 -0.2397
  468SOL    HW1 2217   7.179  -0.033   3.105  0.7015  1.2317  1.7416
  468SOL    HW2 2218   7.209   0.112   3.073 -0.5963  0.7930 -1.6590
  469SOL     OW 2219   4.901   3.220   1.307  0.2108  0.1399  0.2275
  469SOL    HW1 2220   4.863   3.222   1.219 -0.4326 -0.0641  0.5019
  469SOL    HW2 2221   4.972   3.284   1.304  0.2847  0.0234 -0.4862
  470SOL     OW 2222   3.277   1.119   4.006  0.0186 -0.4384  0.1308
  470SOL    HW1 2223   3.318   1.113   4.093 -0.3043 -0.5845  0.2755
  470SOL    HW2 2224   3.226   1.199   4.009  1.4715  0.5315 -0.5649
  471SOL     OW 2225   4.202   2.977   6.179  0.5403 -0.1132  0.4939
  471SOL    HW1 2226   4.162   3.019   6.103  1.1650  2.3254  1.4690
  471SOL    HW2 2227   4.295   3.002   6.174  0.5179  0.3555  2.2284
  472SOL     OW 2228   3.019   0.640   0.542 -0.0322 -0.1125 -0.6080
  472SOL    HW1 2229   2.999   0.716   0.597  0.4075 -0.8583  0.5967
  472SOL    HW2 2230   3.113   0.649   0.524  0.4430 -1.3495  1.0931
  473SOL     OW 2231   3.346   0.591   0.804  0.1053 -0.0913 -0.4017
  473SOL    HW1 2232   3.325   0.617   0.715 -0.1148 -2.3345 -1.0368
  473SOL    HW2 2233   3.358   0.496   0.800 -1.1087 -0.4192  2.1647
  474SOL     OW 2234   4.853   6.135   4.173  0.3460 -0.0130  0.4791
  474SOL    HW1 2235   4.785   6.075   4.145 -0.2932  0.0518  1.8501
  474SOL    HW2 2236   4.812   6.222   4.169  1.2566  0.3652 -1.4834
  475SOL     OW 2237   2.171   6.274   1.102  0.4261 -0.2615  0.3733
  475SOL    HW1 2238   2.203   6.230   1.023 -0.9150  0.2388 -0.4769
  475SOL    HW2 2239   2.193   6.366   1.088  1.2366 -0.3433  1.1228
  476SOL     OW 2240   1.261   3.233   3.733  0.0196  0.1534 -0.5838
  476SOL    HW1 2241   1.314   3.201   3.660  0.1035 -0.3911 -0.2842
  476SOL    HW2 2242   1.192   3.285   3.691 -0.8425 -1.4214 -1.1524
  477SOL     OW 2243   3.278   4.723   5.052 -0.0426  0.2137  0.2117
  477SOL    HW1 2244   3.202   4.680   5.013  0.0579 -0.4310  0.7257
  477SOL    HW2 2245   3.244   4.808   5.082 -0.8223 -0.5035  1.4182
  478SOL     OW 2246   1.946   4.710   5.701  0.2209 -0.2684  0.0021
  478SOL    HW1 2247   1.986   4.788   5.664 -0.8247 -0.3329 -1.3355
  478SOL    HW2 2248   1.900   4.669   5.627  2.4215 -3.2542  0.1867
  479SOL     OW 2249   5.608   1.513   7.570 -0.2207 -0.2812 -0.1401
  479SOL    HW1 2250   5.677   1.460   7.609  1.7245  0.9282 -1.7922
  479SOL    HW2 2251   5.543   1.523   7.639  1.5855 -0.8680  1.7095
  480SOL     OW 2252   7.652   7.375   6.925 -0.0882 -0.4569 -0.9169
  480SOL    HW1 2253   7.600   7.352   6.848 -1.4542  0.5591 -0.3285
  480SOL    HW2 2254   7.707   7.448   6.897 -1.7934  1.0243 -0.4994
  481SOL     OW 2255   1.768   0.568   5.799 -0.6016 -0.0895 -0.2745
  481SOL    HW1 2256   1.862   0.585   5.800 -0.4646 -0.8045 -0.5512
  481SOL    HW2 2257   1.728   0.651   5.825  0.1497 -0.0555  0.8090
  482SOL     OW 2258   5.753   1.701   7.947  0.1928 -0.0125  0.3959
  482SOL    HW1 2259   5.811   1.626   7.955  0.1123 -0.2884 -1.3197
  482SOL    HW2 2260   5.738   1.730   8.037  2.0058 -0.6741  0.9332
  483SOL     OW 2261   0.397   3.721   3.441  0.3357 -0.1454  0.5019
  483SOL    HW1 2262   0.449   3.642   3.422  1.0154  0.4019  0.0708
  483SOL    HW2 2263   0.458   3.779   3.487  0.2312  0.6732 -0.3814
  484SOL     OW 2264   4.104   7.816   6.002 -0.3577 -0.0107  0.5939
  484SOL    HW1 2265   4.183   7.814   5.948  0.0266 -1.4772  1.1726
  484SOL    HW2 2266   4.032   7.814   5.940  0.0815 -0.7636  0.1051
  485SOL     OW 2267   3.117   1.686   7.393  0.4000  0.1706 -0.3778
  485SOL    HW1 2268   3.193   1.733   7.360  0.5955 -0.5262 -0.9513
  485SOL    HW2 2269   3.140   1.594   7.383 -0.3104 -0.0464 -0.0627
  486SOL     OW 2270   6.857   4.358   0.071  0.0483  0.0393  0.0192
  486SOL    HW1 2271   6.837   4.275   0.114 -1.6877  0.3801 -0.1148
  486SOL    HW2 2272   6.942   4.343   0.030 -0.9122 -2.1503 -1.2315
  487SOL     OW 2273   1.851   0.962   7.629  0.4194 -0.0474 -0.2048
  487SOL    HW1 2274   1.898   0.906   7.568  0.1128  1.0993 -1.5168
  487SOL    HW2 2275   1.758   0.941   7.614  0.2466  1.4017 -1.3364
  488SOL     OW 2276   2.462   1.300   7.134  0.2548  0.0580  0.1707
  488SOL    HW1 2277   2.459   1.245   7.055  0.2043 -0.3777  0.4744
  488SOL    HW2 2278   2.516   1.375   7.109 -1.6819  1.0947 -1.0160
  489SOL     OW 2279   3.750   2.716   7.543 -0.0620 -0.1408 -0.3911
  489SOL    HW1 2280   3.685   2.647   7.527  0.4865 -0.6266 -0.5731
  489SOL    HW2 2281   3.778   2.744   7.456  0.1369 -0.0959 -0.3150
  490SOL     OW 2282   5.154   2.833   2.193  0.1789 -0.5342 -0.1243
  490SOL    HW1 2283   5.143   2.771   2.120  1.3385 -1.8260  0.7710
  490SOL    HW2 2284   5.222   2.893   2.163  1.0726 -1.4165  0.1101
  491SOL     OW 2285   7.323   1.534   1.195 -0.6838  0.4973 -0.4591
  491SOL    HW1 2286   7.278   1.536   1.111 -1.4794 -0.3286 -0.0500
  491SOL    HW2 2287   7.398   1.593   1.183 -1.8556  1.8637 -1.1338
  492SOL     OW 2288   7.949   2.502   4.446 -0.9982 -0.4466 -0.3979
  492SOL    HW1 2289   7.996   2.423   4.418  0.3937 -0.3098  1.4457
  492SOL    HW2 2290   7.891   2.522   4.373 -0.5569 -2.5282 -1.3713
  493SOL     OW 2291   6.939   6.346   5.115  0.1393 -0.1202 -0.1971
  493SOL    HW1 2292   6.949   6.441   5.117 -1.3719  0.0617 -0.7549
  493SOL    HW2 2293   6.884   6.330   5.038  0.1112 -1.4176  0.0917
  494SOL     OW 2294   1.137   2.828   6.214  0.3395 -0.4464  0.6154
  494SOL    HW1 2295   1.220   2.783   6.201  0.5942  0.1887  0.0094
  494SOL    HW2 2296   1.144   2.907   6.161 -1.1071 -0.9495 -0.3715
  495SOL     OW 2297   2.380   2.492   6.377  0.3713  0.5863  0.3088
  495SOL    HW1 2298   2.303   2.469   6.325  1.6282 -1.2436 -0.8137
  495SOL    HW2 2299   2.354   2.569   6.427 -1.2257  1.7167 -2.2226
  496SOL     OW 2300   4.388   1.108   0.345  0.0842  0.0892  0.1092
  496SOL    HW1 2301   4.424   1.130   0.431 -1.7749  2.0104  0.4675
  496SOL    HW2 2302   4.361   1.016   0.353 -0.2401  0.3007  1.6580
  497SOL     OW 2303   1.117   7.978   0.245  0.7962  0.2157 -0.3075
  497SOL    HW1 2304   1.050   8.006   0.307 -0.7289 -0.5856 -1.5551
  497SOL    HW2 2305   1.171   8.056   0.231 -0.4640  1.1471 -0.0187
  498SOL     OW 2306   4.082   3.282   6.327  0.5758 -0.1861 -0.1633
  498SOL    HW1 2307   3.989   3.287   6.304  0.4888  0.9047  0.4321
  498SOL    HW2 2308   4.127   3.312   6.248  0.3081  2.3811  0.6066
  499SOL     OW 2309   1.052   7.702   7.151 -0.1652  0.6448  0.6448
  499SOL    HW1 2310   0.993   7.724   7.223 -1.9306 -0.5586 -0.3610
  499SOL    HW2 2311   1.050   7.779   7.094 -0.6157  0.7112  0.7433
  500SOL     OW 2312   5.509   5.088   4.393  0.5323  0.1283 -0.1716
  500SOL    HW1 2313   5.484   5.154   4.327 -2.3107 -0.1106  0.5915
  500SOL    HW2 2314   5.428   5.070   4.440  1.8934 -1.8936  1.4717
  501SOL     OW 2315   3.550   6.772   7.725 -0.2531  0.1155 -0.2253
  501SOL    HW1 2316   3.466   6.727   7.713 -0.0037 -0.8061  1.2995
  501SOL    HW2 2317   3.556   6.787   7.820  1.4515 -0.1316 -0.2771
  502SOL     OW 2318   4.594   2.110   2.584  0.4882 -0.6116 -0.9662
  502SOL    HW1 2319   4.689   2.112   2.571  0.5822 -0.1961 -0.2233
  502SOL    HW2 2320   4.570   2.200   2.604 -0.0402 -0.7545 -0.9394
  503SOL     OW 2321   2.320   7.224   7.990  0.6850 -0.1610  1.0390
  503SOL    HW1 2322   2.257   7.215   8.062 -0.0694  0.1824  0.4174
  503SOL    HW2 2323   2.359   7.310   8.003  0.5244 -0.0854  1.0119
  504SOL     OW 2324   6.137   6.541   5.359 -0.2138 -0.3631  0.1199
  504SOL    HW1 2325   6.163   6.633   5.352 -1.0783 -0.0648  0.8415
  504SOL    HW2 2326   6.091   6.535   5.443 -1.5397 -1.1270 -0.6460
  505SOL     OW 2327   2.801   1.048   3.519 -0.3337  0.2725  0.2836
  505SOL    HW1 2328   2.708   1.033   3.501 -0.3515 -2.6402  2.4240
  505SOL    HW2 2329   2.845   1.016   3.440 -1.0601 -0.4503  0.1530
  506SOL     OW 2330   4.898   0.720   3.311 -0.0174  0.1367 -0.4486
  506SOL    HW1 2331   4.958   0.700   3.239  1.1798 -0.0535  0.5768
  506SOL    HW2 2332   4.935   0.797   3.352 -0.9670  0.5282 -0.3280
  507SOL     OW 2333   6.832   2.822   2.595 -0.3136  0.9580 -0.2313
  507SOL    HW1 2334   6.849   2.845   2.504 -0.7479 -1.5818 -0.9655
  507SOL    HW2 2335   6.815   2.907   2.638  0.2799  2.2034 -2.3940
  508SOL     OW 2336   6.018   6.539   6.229 -0.8508 -0.0250  0.7477
  508SOL    HW1 2337   6.054   6.467   6.178 -0.8823 -0.3568  1.1832
  508SOL    HW2 2338   6.076   6.546   6.305 -1.2409 -0.0450  1.0506
  509SOL     OW 2339   1.609   7.996   6.636  0.1431 -0.3113 -0.1769
  509SOL    HW1 2340   1.522   7.964   6.613  1.5368 -2.6315 -2.6508
  509SOL    HW2 2341   1.616   7.983   6.731 -1.8131 -1.1070 -0.1261
  510SOL     OW 2342   3.956   7.171   1.268 -0.3635 -0.3838 -0.7330
  510SOL    HW1 2343   3.918   7.088   1.297  1.8298 -0.8777  0.8485
  510SOL    HW2 2344   3.951   7.227   1.345  0.0407  0.2667 -1.1785
  511SOL     OW 2345   4.171   1.087   1.082 -0.4323 -0.6214  0.3798
  511SOL    HW1 2346   4.228   1.121   1.013 -0.5266  1.8751  1.4983
  511SOL    HW2 2347   4.227   1.026   1.130 -0.1422 -1.8164 -1.3946
  512SOL     OW 2348   3.888   5.406   2.740 -0.0478  0.1663  0.1991
  512SOL    HW1 2349   3.936   5.425   2.659  0.6748  0.9946  0.8133
  512SOL    HW2 2350   3.854   5.318   2.727 -0.8358  0.6949 -1.4458
  513SOL     OW 2351   4.219   7.074   1.607 -0.1336 -0.1959 -0.3176
  513SOL    HW1 2352   4.304   7.043   1.639 -0.1047  0.0284 -0.1774
  513SOL    HW2 2353   4.240   7.116   1.523  0.2459  1.9356  0.8048
  514SOL     OW 2354   6.881   7.577   5.105 -0.2375  0.0883 -0.2780
  514SOL    HW1 2355   6.890   7.655   5.160 -0.5994  0.4178 -0.6815
  514SOL    HW2 2356   6.805   7.596   5.049  0.6427  0.1222 -1.4843
  515SOL     OW 2357   4.679   3.066   6.959 -0.3455  0.6871 -0.5437
  515SOL    HW1 2358   4.675   2.971   6.953 -3.1706  0.6946  0.6180
  515SOL    HW2 2359   4.597   3.097   6.920 -0.5226  2.5218  1.1632
  516SOL     OW 2360   4.761   6.729   0.942  0.0093 -0.1331  0.2261
  516SOL    HW1 2361   4.805   6.654   0.983  0.7343  0.5200  0.6648
  516SOL    HW2 2362   4.764   6.798   1.009  0.9522  0.8655 -0.8049
  517SOL     OW 2363   2.543   6.567   1.058  0.2637  0.1290 -0.1708
  517SOL    HW1 2364   2.566   6.604   1.144  0.1245 -0.1802  0.0024
  517SOL    HW2 2365   2.609   6.499   1.043  0.6049  0.5419 -0.5548
  518SOL     OW 2366   7.426   3.282   4.731 -0.0768 -0.2846  0.0915
  518SOL    HW1 2367   7.353   3.306   4.789  0.7231  0.8059  0.6505
  518SOL    HW2 2368   7.435   3.356   4.671 -0.0250 -0.8253 -0.5751
  519SOL     OW 2369   2.241   6.460   1.922 -0.2400 -0.0212  0.3845
  519SOL    HW1 2370   2.267   6.466   1.830 -0.9891  1.5025  0.2524
  519SOL    HW2 2371   2.239   6.366   1.940  0.5270 -0.3215 -0.9692
  520SOL     OW 2372   2.774   3.014   2.032  0.0307 -0.0926  0.5353
  520SOL    HW1 2373   2.808   2.965   1.957 -0.3976 -1.6224  1.3180
  520SOL    HW2 2374   2.820   3.098   2.029  1.7138 -1.0120 -0.1205
  521SOL     OW 2375   7.384   5.330   4.321  0.0435 -0.5108  0.4725
  521SOL    HW1 2376   7.319   5.374   4.266  1.4834 -0.0445 -0.8731
  521SOL    HW2 2377   7.352   5.342   4.410 -0.0064  2.5997  0.0718
  522SOL     OW 2378   1.853   3.287   4.449  0.1706 -0.5284 -0.2628
  522SOL    HW1 2379   1.926   3.344   4.470  0.4188 -0.7697 -0.4686
  522SOL    HW2 2380   1.876   3.248   4.365 -0.4017 -0.2563 -0.5541
  523SOL     OW 2381   0.357   0.297   4.855 -0.2501 -0.2389 -0.0711
  523SOL    HW1 2382   0.406   0.223   4.889  0.1255 -0.3415 -0.8270
  523SOL    HW2 2383   0.407   0.374   4.882 -1.8757 -0.0919  2.7849
  524SOL     OW 2384   1.927   0.490   3.445  0.1927  0.0876 -0.0218
  524SOL    HW1 2385   2.008   0.468   3.398  0.3972  2.5431 -0.8879
  524SOL    HW2 2386   1.944   0.466   3.536  0.9647 -1.7506 -0.6404
  525SOL     OW 2387   1.119   4.909   4.318 -0.6732 -0.4134 -0.0272
  525SOL    HW1 2388   1.182   4.980   4.325  1.6052 -2.5032  1.4598
  525SOL    HW2 2389   1.048   4.934   4.378  0.2589  0.4668  0.7352
  526SOL     OW 2390   0.522   3.923   4.714  0.3705  0.0463 -0.6295
  526SOL    HW1 2391   0.509   3.944   4.621 -2.3384 -1.1175 -0.5708
  526SOL    HW2 2392   0.544   3.830   4.714 -0.2637 -0.1046 -0.0778
  527SOL     OW 2393   3.640   2.213   2.061 -0.5458 -0.0652 -0.3194
  527SOL    HW1 2394   3.732   2.219   2.088 -0.6619 -1.0267  0.3531
  527SOL    HW2 2395   3.638   2.138   2.002 -0.5963  1.0202 -1.7003
  528SOL     OW 2396   0.561   3.600   6.261  0.5129 -0.2042 -0.7035
  528SOL    HW1 2397   0.537   3.527   6.204 -1.4061 -1.8665  2.0795
  528SOL    HW2 2398   0.614   3.560   6.330  1.1704  1.4087 -0.2581
  529SOL     OW 2399   7.138   4.083   0.373 -0.3447  0.3717 -0.0118
  529SOL    HW1 2400   7.131   3.992   0.403  2.1605  0.1342 -0.0317
  529SOL    HW2 2401   7.086   4.087   0.293 -0.4067 -1.0687 -0.0512
  530SOL     OW 2402   7.679   6.109   0.603  0.3064  0.1304 -0.2743
  530SOL    HW1 2403   7.708   6.137   0.516  0.1435  1.4976  0.1069
  530SOL    HW2 2404   7.584   6.115   0.599  0.3312  0.9387  0.2362
  531SOL     OW 2405   6.765   5.550   0.855 -0.1852  0.1485 -0.1530
  531SOL    HW1 2406   6.794   5.482   0.916  0.1674  0.4969  0.0752
  531SOL    HW2 2407   6.676   5.571   0.883 -0.2585 -0.1525 -0.1633
  532SOL     OW 2408   3.011   1.360   4.705  0.1741  0.3196  0.1045
  532SOL    HW1 2409   2.986   1.269   4.690  0.3539 -0.3235  3.4016
  532SOL    HW2 2410   3.106   1.359   4.707  0.1707  0.5271  0.4091
  533SOL     OW 2411   5.214   6.073   5.148 -0.7604  0.2972  0.3105
  533SOL    HW1 2412   5.300   6.031   5.142 -1.6941 -1.3482 -2.5394
  533SOL    HW2 2413   5.231   6.165   5.130  0.6385  0.2791  1.4780
  534SOL     OW 2414   1.717   6.541   1.129  0.0275 -0.6120 -0.3581
  534SOL    HW1 2415   1.795   6.557   1.181 -0.4676 -0.4869  0.3514
  534SOL    HW2 2416   1.732   6.455   1.089  0.7002 -0.4056 -0.5466
  535SOL     OW 2417   4.408   7.417   5.942  0.5529 -0.1798 -0.2985
  535SOL    HW1 2418   4.492   7.463   5.936 -0.2850  1.2696 -1.2377
  535SOL    HW2 2419   4.392   7.407   6.036  0.8657  1.2401 -0.0902
  536SOL     OW 2420   5.369   6.683   2.899 -0.2502 -0.2637 -0.0755
  536SOL    HW1 2421   5.420   6.605   2.921  0.6043  0.2513 -0.1668
  536SOL    HW2 2422   5.309   6.655   2.830 -0.4133 -1.0020  0.3738
  537SOL     OW 2423   2.569   7.810   0.242  0.5944  0.6531  0.6860
  537SOL    HW1 2424   2.647   7.759   0.264  0.6331  0.1936 -0.4909
  537SOL    HW2 2425   2.598   7.870   0.174 -0.4067 -0.4856 -0.7712
  538SOL     OW 2426   1.435   1.107   7.298 -0.4519 -0.2339  0.0550
  538SOL    HW1 2427   1.475   1.020   7.286  1.2085  0.3691  0.9459
  538SOL    HW2 2428   1.447   1.150   7.214  1.0832  0.0257  0.3747
  539SOL     OW 2429   1.678   4.284   0.138  0.5199 -0.0571 -0.2751
  539SOL    HW1 2430   1.628   4.301   0.059 -0.3914 -0.6550  0.1571
  539SOL    HW2 2431   1.656   4.193   0.161 -0.3160  0.5480  1.4266
  540SOL     OW 2432   5.242   0.526   4.383  0.0624 -0.1526  0.6732
  540SOL    HW1 2433   5.297   0.450   4.398 -0.3140 -0.5235  0.1761
  540SOL    HW2 2434   5.293   0.583   4.326  0.2310 -0.1546  0.8212
  541SOL     OW 2435   4.989   1.637   0.880 -0.3333 -0.4382  0.4329
  541SOL    HW1 2436   4.936   1.705   0.923 -0.7459 -0.4429 -0.0604
  541SOL    HW2 2437   5.070   1.682   0.857 -1.1387  0.2757 -1.1190
  542SOL     OW 2438   4.110   2.122   1.888  0.3853  0.3036 -0.1568
  542SOL    HW1 2439   4.046   2.067   1.931 -0.9939  1.8097 -0.2291
  542SOL    HW2 2440   4.122   2.083   1.802  0.1820 -0.4492  0.1568
  543SOL     OW 2441   4.724   2.106   1.971 -0.0143  0.0933  0.1622
  543SOL    HW1 2442   4.770   2.028   1.939  1.0305  1.5740 -2.0379
  543SOL    HW2 2443   4.667   2.073   2.040  1.5654 -2.3859  0.3610
  544SOL     OW 2444   5.974   3.787   7.145 -0.5358 -0.5075 -0.0460
  544SOL    HW1 2445   6.010   3.725   7.083 -0.6080  0.1132 -0.7189
  544SOL    HW2 2446   5.940   3.734   7.217 -1.6308 -1.3126 -1.1413
  545SOL     OW 2447   7.536   7.257   5.209 -0.2138 -0.4019 -0.0967
  545SOL    HW1 2448   7.542   7.308   5.128  0.8419  1.1002  0.8921
  545SOL    HW2 2449   7.456   7.207   5.200 -1.3317  1.5073 -1.0937
  546SOL     OW 2450   0.717   7.724   1.960  0.6052 -0.5481  0.2016
  546SOL    HW1 2451   0.675   7.759   1.881 -0.3933 -1.9110  0.1287
  546SOL    HW2 2452   0.740   7.802   2.011 -0.1555  0.2781 -0.7043
  547SOL     OW 2453   4.690   2.546   4.270  0.5029 -0.0975 -0.7792
  547SOL    HW1 2454   4.620   2.486   4.296  0.9959 -0.1249  0.5227
  547SOL    HW2 2455   4.748   2.549   4.345  1.5893  0.4065 -1.6227
  548SOL     OW 2456   2.336   5.403   7.501 -0.4313 -0.2640 -0.0091
  548SOL    HW1 2457   2.297   5.473   7.449 -0.0876  0.7804  1.0953
  548SOL    HW2 2458   2.415   5.378   7.454 -0.1990  0.5723 -0.0678
  549SOL     OW 2459   3.007   7.766   4.405 -0.1879  0.5873  0.0176
  549SOL    HW1 2460   3.022   7.836   4.468  0.9420 -0.3409  0.7898
  549SOL    HW2 2461   3.059   7.692   4.437 -2.2677 -0.9918 -0.1479
  550SOL     OW 2462   7.690   6.212   0.339 -0.1220 -0.0769 -0.0658
  550SOL    HW1 2463   7.648   6.276   0.282  1.4251 -0.4686 -1.6989
  550SOL    HW2 2464   7.764   6.260   0.378 -0.7124 -0.0344  1.0287
  551SOL     OW 2465   2.249   2.062   1.466 -0.0308  0.1604  0.5119
  551SOL    HW1 2466   2.296   2.118   1.528 -2.1112  2.2164  0.2841
  551SOL    HW2 2467   2.182   2.118   1.428 -0.4845 -1.7886 -1.7052
  552SOL     OW 2468   6.745   6.904   3.564 -0.8182 -0.7014  0.8611
  552SOL    HW1 2469   6.683   6.908   3.637 -0.1407 -1.0652  1.4635
  552SOL    HW2 2470   6.724   6.982   3.511 -0.2613  0.4607  2.3041
  553SOL     OW 2471   4.628   6.146   1.130  0.5907  0.2664 -0.2918
  553SOL    HW1 2472   4.602   6.073   1.073  0.5031  0.8059 -0.9554
  553SOL    HW2 2473   4.576   6.135   1.209  1.0082 -0.7266 -0.1559
  554SOL     OW 2474   7.298   4.657   1.545 -0.3625  0.0479 -0.1130
  554SOL    HW1 2475   7.264   4.574   1.511 -0.8383  0.3721 -0.4155
  554SOL    HW2 2476   7.362   4.685   1.480  1.2860 -1.0876  0.9516
  555SOL     OW 2477   3.030   6.857   2.055 -0.0305  0.0563 -0.5881
  555SOL    HW1 2478   3.117   6.888   2.076 -0.0003 -0.8316  0.7025
  555SOL    HW2 2479   3.024   6.771   2.099 -2.7895  1.6606  2.4236
  556SOL     OW 2480   0.159   1.826   5.394  0.1376  0.0422 -0.1420
  556SOL    HW1 2481   0.108   1.784   5.463  1.3481  1.0993  1.4661
  556SOL    HW2 2482   0.204   1.754   5.350  0.3613 -0.5580  1.0416
  557SOL     OW 2483   5.187   7.048   4.539  0.2417  0.4981  0.2587
  557SOL    HW1 2484   5.133   7.004   4.605  0.4269 -0.7526 -0.4084
  557SOL    HW2 2485   5.274   7.055   4.580  0.3157 -0.1344  0.2231
  558SOL     OW 2486   3.675   1.177   7.522  0.3136 -0.1869  0.1664
  558SOL    HW1 2487   3.613   1.106   7.509  0.9222 -0.8968  1.1557
  558SOL    HW2 2488   3.696   1.175   7.615  0.6513  1.0246  0.1281
  559SOL     OW 2489   7.678   5.046   4.810 -0.1581 -0.0258  0.3824
  559SOL    HW1 2490   7.745   5.081   4.752  0.5171 -1.4804  0.2547
  559SOL    HW2 2491   7.721   5.039   4.895  0.1604 -1.7707  0.1112
  560SOL     OW 2492   2.407   7.540   4.837 -0.1040 -0.1250 -0.2488
  560SOL    HW1 2493   2.489   7.589   4.852  0.1713 -0.9036  0.9037
  560SOL    HW2 2494   2.413   7.511   4.746 -0.2929  1.9978 -0.9779
  561SOL     OW 2495   1.631   2.300   7.705  0.1546  0.5051 -0.1540
  561SOL    HW1 2496   1.626   2.205   7.698  0.2076  0.4025  1.1791
  561SOL    HW2 2497   1.540   2.328   7.716  0.1750  0.5820 -0.1810
  562SOL     OW 2498   5.796   5.956   1.715 -0.3856  0.1930  0.2439
  562SOL    HW1 2499   5.714   5.925   1.753  0.8463 -2.2551  1.0246
  562SOL    HW2 2500   5.856   5.882   1.726  2.1413  2.2408  0.4310
  563SOL     OW 2501   4.417   3.147   3.139 -0.4423  0.5032  0.2605
  563SOL    HW1 2502   4.361   3.218   3.106 -0.4405  0.8791  1.0596
  563SOL    HW2 2503   4.495   3.191   3.171  0.1574  0.0080 -0.5099
  564SOL     OW 2504   2.542   3.749   5.389 -0.1434 -0.6192  0.0088
  564SOL    HW1 2505   2.583   3.714   5.310  0.7220 -1.1569  0.6838
  564SOL    HW2 2506   2.594   3.826   5.411 -0.1567 -0.6778  0.2507
  565SOL     OW 2507   6.581   4.768   0.162 -0.2006 -0.1463 -0.8145
  565SOL    HW1 2508   6.593   4.832   0.232 -2.1212 -1.3561  0.6632
  565SOL    HW2 2509   6.668   4.730   0.150 -0.0488 -0.7202  1.7157
  566SOL     OW 2510   7.956   4.849   2.919  0.4643 -0.6836  0.5493
  566SOL    HW1 2511   7.935   4.866   2.828 -0.6977 -1.6676  0.6219
  566SOL    HW2 2512   7.922   4.924   2.967  0.8212 -0.3036  0.2073
  567SOL     OW 2513   4.801   1.782   3.436  0.1848 -0.1192 -0.1317
  567SOL    HW1 2514   4.840   1.837   3.504  0.5527  0.4727 -0.8256
  567SOL    HW2 2515   4.874   1.758   3.379 -0.0723 -0.8657 -0.1538
  568SOL     OW 2516   6.124   2.810   1.719 -0.1991  0.4241  0.3088
  568SOL    HW1 2517   6.099   2.886   1.667 -0.4382  0.3827  0.3631
  568SOL    HW2 2518   6.183   2.845   1.786  0.5963  0.3785 -0.3685
  569SOL     OW 2519   7.053   1.225   7.426  0.1020  0.3487  0.3292
  569SOL    HW1 2520   7.144   1.196   7.426  0.0511  0.1706 -0.6254
  569SOL    HW2 2521   7.009   1.167   7.364 -0.1934  1.8490 -0.9012
  570SOL     OW 2522   5.070   7.741   1.212  0.2719  0.0770 -0.1562
  570SOL    HW1 2523   5.074   7.652   1.246  0.5155  0.3646  0.5596
  570SOL    HW2 2524   5.161   7.764   1.195  0.2093  0.1985 -0.3265
  571SOL     OW 2525   1.853   5.660   0.713 -0.2522 -0.1550 -0.1942
  571SOL    HW1 2526   1.836   5.745   0.753  0.1689 -0.3587  0.4217
  571SOL    HW2 2527   1.803   5.662   0.631 -1.2140  0.2166  0.3932
  572SOL     OW 2528   6.120   1.683   6.215 -0.0981 -0.2952  0.3408
  572SOL    HW1 2529   6.070   1.602   6.219 -0.1015 -0.3026  0.1589
  572SOL    HW2 2530   6.209   1.656   6.192 -0.1084 -0.2451  0.2406
  573SOL     OW 2531   1.431   7.211   6.906  0.1621  0.0597  0.5551
  573SOL    HW1 2532   1.463   7.160   6.831 -0.8317 -0.4333  0.4579
  573SOL    HW2 2533   1.494   7.193   6.976  0.3485 -0.5405  0.2376
  574SOL     OW 2534   2.327   3.582   3.632  0.0557 -0.1996 -0.5001
  574SOL    HW1 2535   2.304   3.596   3.724 -1.0639 -1.1631 -0.6301
  574SOL    HW2 2536   2.354   3.668   3.602  0.8340  0.0473  0.8448
  575SOL     OW 2537   4.032   1.384   1.598 -0.5476  0.1801 -0.0337
  575SOL    HW1 2538   4.108   1.403   1.654 -0.5571 -0.9146  0.3602
  575SOL    HW2 2539   3.976   1.460   1.609 -0.0057  0.5093  0.5322
  576SOL     OW 2540   0.837   0.668   4.298 -0.8436  0.2664  0.5339
  576SOL    HW1 2541   0.900   0.603   4.266 -1.6558  0.2401 -1.0984
  576SOL    HW2 2542   0.848   0.667   4.393  0.4382 -0.9430  0.4003
  577SOL     OW 2543   3.312   2.972   2.737 -0.6480 -0.5543 -0.0687
  577SOL    HW1 2544   3.235   2.919   2.718  0.7993 -2.4765 -0.6805
  577SOL    HW2 2545   3.327   2.962   2.831 -1.1131 -0.2044  0.0433
  578SOL     OW 2546   5.761   6.238   1.298 -0.1459  0.2324 -0.2233
  578SOL    HW1 2547   5.786   6.217   1.387  1.3140  1.4467 -0.3142
  578SOL    HW2 2548   5.770   6.156   1.250  0.4651 -0.1000  0.4544
  579SOL     OW 2549   7.856   6.543   2.846  0.1562 -0.2470 -0.4876
  579SOL    HW1 2550   7.851   6.594   2.927 -1.0423  0.0149 -0.7166
  579SOL    HW2 2551   7.769   6.503   2.838  0.7019 -1.3421 -0.9468
  580SOL     OW 2552   0.739   6.460   7.244  0.5231  0.2150 -0.2687
  580SOL    HW1 2553   0.709   6.520   7.313 -0.5185  0.2641 -0.7616
  580SOL    HW2 2554   0.697   6.493   7.165  1.3665 -0.1137 -0.8501
  581SOL     OW 2555   5.143   1.910   3.356  0.5200 -0.4947  0.2498
  581SOL    HW1 2556   5.075   1.971   3.383 -0.8939 -2.2304  0.6881
  581SOL    HW2 2557   5.221   1.937   3.404  0.0987  1.3821 -0.0991
  582SOL     OW 2558   0.583   4.575   4.618  0.0886  0.1093 -0.3123
  582SOL    HW1 2559   0.545   4.660   4.637  1.2917  0.6719 -0.3538
  582SOL    HW2 2560   0.556   4.519   4.691 -0.2913  0.6556 -0.0321
  583SOL     OW 2561   4.815   7.197   6.575 -0.5101  0.4077  0.1547
  583SOL    HW1 2562   4.873   7.123   6.561  0.1828  1.1684 -1.0586
  583SOL    HW2 2563   4.727   7.159   6.578 -0.2892 -0.3144 -1.9049
  584SOL     OW 2564   2.715   2.526   6.750  0.2438  0.5310 -0.2764
  584SOL    HW1 2565   2.681   2.509   6.663 -0.2812 -0.7112  0.1653
  584SOL    HW2 2566   2.639   2.553   6.802  0.4132  0.4749  0.0040
  585SOL     OW 2567   2.940   7.671   1.556  0.1100  0.0493 -0.2744
  585SOL    HW1 2568   2.936   7.604   1.488 -0.1498 -0.5234  0.2975
  585SOL    HW2 2569   3.010   7.730   1.527 -0.1866 -0.0296 -1.1761
  586SOL     OW 2570   4.912   2.924   5.341 -0.4722  0.6294  0.1360
  586SOL    HW1 2571   4.932   3.010   5.377 -1.5532  1.2319 -0.7023
  586SOL    HW2 2572   4.838   2.892   5.393 -0.5097  0.4903 -0.0022
  587SOL     OW 2573   5.437   6.399   7.041  0.1760  0.3330  0.5580
  587SOL    HW1 2574   5.424   6.366   7.130 -0.6596 -0.3397  0.1962
  587SOL    HW2 2575   5.360   6.368   6.993  0.5625  0.7982 -0.3652
  588SOL     OW 2576   1.632   7.592   2.297  0.5529 -0.2383  0.2902
  588SOL    HW1 2577   1.713   7.541   2.300 -0.2294 -1.6318 -1.1488
  588SOL    HW2 2578   1.642   7.648   2.220  0.4060  0.0323  0.4665
  589SOL     OW 2579   6.125   7.163   6.183  0.0614  0.4516  1.0364
  589SOL    HW1 2580   6.071   7.194   6.256 -2.0441  0.7409 -0.5824
  589SOL    HW2 2581   6.106   7.069   6.178  0.2292  0.4265  0.8733
  590SOL     OW 2582   7.086   1.315   3.692  0.2682  0.2073  0.1981
  590SOL    HW1 2583   7.113   1.243   3.635 -1.2423 -1.0757  1.0424
  590SOL    HW2 2584   7.125   1.295   3.777  0.2464  0.6432  0.3128
  591SOL     OW 2585   7.547   1.074   5.705 -0.2591 -0.7685  0.4937
  591SOL    HW1 2586   7.486   1.060   5.633 -0.2411  1.1572  0.0657
  591SOL    HW2 2587   7.633   1.056   5.667 -0.4106 -1.6811  0.5833
  592SOL     OW 2588   7.378   4.921   6.007  0.8904 -0.2471 -0.2642
  592SOL    HW1 2589   7.473   4.912   5.996  1.0185  2.0779 -1.4630
  592SOL    HW2 2590   7.368   4.989   6.074  0.0512 -1.4506  0.8559
  593SOL     OW 2591   0.815   5.322   3.843 -0.2432  0.5810 -0.6000
  593SOL    HW1 2592   0.766   5.323   3.925 -0.1714 -0.4483 -0.5349
  593SOL    HW2 2593   0.875   5.248   3.852  0.4388  1.0537 -1.1925
  594SOL     OW 2594   0.155   2.684   4.230  0.0263 -0.0347  0.6352
  594SOL    HW1 2595   0.095   2.637   4.172 -0.6266  0.7592  0.6729
  594SOL    HW2 2596   0.099   2.725   4.296  0.4906  1.6801 -0.0113
  595SOL     OW 2597   2.471   4.941   1.222  0.1897  0.2175  0.2488
  595SOL    HW1 2598   2.487   5.006   1.290 -0.0683  0.0568  0.4643
  595SOL    HW2 2599   2.434   4.992   1.149 -0.1645  0.2928  0.4767
  596SOL     OW 2600   5.415   6.348   5.311  0.0188 -0.6109  0.0424
  596SOL    HW1 2601   5.440   6.341   5.219  1.6220 -0.0189  0.4213
  596SOL    HW2 2602   5.495   6.330   5.359 -0.3086  1.1431  1.3029
  597SOL     OW 2603   3.381   0.431   0.358 -0.4689 -0.2940  0.2865
  597SOL    HW1 2604   3.460   0.404   0.312  1.9706  2.8999  2.4047
  597SOL    HW2 2605   3.369   0.367   0.427  0.5359 -0.5360  0.2349
  598SOL     OW 2606   0.667   6.603   0.052  0.5510 -0.1807  0.5785
  598SOL    HW1 2607   0.583   6.642   0.073  1.2322  1.4768  0.2820
  598SOL    HW2 2608   0.663   6.583  -0.041  0.2500 -0.7141  0.7041
  599SOL     OW 2609   2.155   7.049   4.482  0.1486 -0.4914 -0.0078
  599SOL    HW1 2610   2.150   7.110   4.556 -2.4154 -0.9704  0.2813
  599SOL    HW2 2611   2.205   6.974   4.515 -1.7440 -1.0993  1.5810
  600SOL     OW 2612   6.088   5.998   4.394  0.4381 -0.1283  0.6259
  600SOL    HW1 2613   6.027   5.948   4.340  0.3909  0.4434  0.1450
  600SOL    HW2 2614   6.032   6.058   4.444  0.3134 -1.9646  2.7365
  601SOL     OW 2615   7.032   6.282   6.625  0.0469 -0.3397  0.6267
  601SOL    HW1 2616   7.020   6.191   6.652 -0.3990 -0.5521 -0.2563
  601SOL    HW2 2617   7.035   6.332   6.707 -1.5874 -0.9338  1.0647
  602SOL     OW 2618   0.860   2.332   6.503  0.2359 -0.5668  0.1482
  602SOL    HW1 2619   0.906   2.360   6.581  2.1651 -0.6135 -0.9415
  602SOL    HW2 2620   0.833   2.413   6.460  0.0897 -0.5181  0.3329
  603SOL     OW 2621   0.268   0.506   5.585  0.1298 -0.4312 -0.0232
  603SOL    HW1 2622   0.343   0.541   5.633 -0.1176 -0.5083  0.4219
  603SOL    HW2 2623   0.294   0.511   5.492  0.0667  0.9613  0.0299
  604SOL     OW 2624   6.038   1.265   7.417  0.1910  0.5260 -0.2477
  604SOL    HW1 2625   6.047   1.332   7.349  1.0398 -0.1267 -0.7988
  604SOL    HW2 2626   5.945   1.269   7.442  0.2022  1.7874 -0.3788
  605SOL     OW 2627   1.701   0.653   3.824 -0.1585 -0.4607 -0.1188
  605SOL    HW1 2628   1.758   0.646   3.748 -2.1612 -0.7099 -1.6609
  605SOL    HW2 2629   1.724   0.737   3.864  2.1620 -1.1565  0.0644
  606SOL     OW 2630   3.280   3.481   1.849  0.4105  0.1906 -0.3624
  606SOL    HW1 2631   3.275   3.387   1.868 -0.7981  0.5707  1.3088
  606SOL    HW2 2632   3.365   3.507   1.886  0.8170 -0.2606 -0.9608
  607SOL     OW 2633   4.618   5.823   1.958 -0.6249 -0.4230  0.4796
  607SOL    HW1 2634   4.602   5.747   1.901 -3.0080 -0.2462  0.8492
  607SOL    HW2 2635   4.549   5.818   2.024 -0.6490  1.9312  0.6531
  608SOL     OW 2636   0.761   2.861   7.653  0.0720  0.7147  0.0273
  608SOL    HW1 2637   0.676   2.874   7.611  0.1253  1.5042  0.1566
  608SOL    HW2 2638   0.817   2.930   7.618  0.7353  0.0534 -0.2391
  609SOL     OW 2639   0.573   4.836   7.544 -0.3872 -0.2966  0.0178
  609SOL    HW1 2640   0.578   4.929   7.521 -1.5024 -0.4358 -0.7922
  609SOL    HW2 2641   0.660   4.816   7.579 -0.0878  1.0123  0.0572
  610SOL     OW 2642   7.276   2.912   5.598 -0.2312 -0.5901  0.1095
  610SOL    HW1 2643   7.362   2.870   5.588  0.1646  0.1747  0.2504
  610SOL    HW2 2644   7.224   2.877   5.526  0.6668  0.0945 -0.8923
  611SOL     OW 2645   3.862   7.118   1.585 -0.0831  0.4242 -0.4710
  611SOL    HW1 2646   3.865   7.038   1.637  0.2766  0.2449 -0.7667
  611SOL    HW2 2647   3.829   7.184   1.645 -1.3680 -0.1693 -0.5120
  612SOL     OW 2648   7.329   7.904   7.446 -0.2782  0.3097  0.3888
  612SOL    HW1 2649   7.324   7.862   7.360  0.7595 -1.7016  1.2999
  612SOL    HW2 2650   7.242   7.943   7.458 -2.8656 -5.2156  1.3188
  613SOL     OW 2651   4.194   2.437   1.107  0.2697 -0.6279  0.1998
  613SOL    HW1 2652   4.238   2.389   1.037 -0.2302  1.3003 -1.5045
  613SOL    HW2 2653   4.264   2.464   1.167  1.2017  0.7830 -1.4818
  614SOL     OW 2654   1.941   0.803   4.658  0.0973 -0.0408 -0.0250
  614SOL    HW1 2655   1.902   0.862   4.723 -1.1467 -0.4705 -0.3671
  614SOL    HW2 2656   2.029   0.785   4.691  0.8744  2.7668 -0.3952
  615SOL     OW 2657   6.682   2.932   1.168 -0.5559  0.5165 -0.0338
  615SOL    HW1 2658   6.610   2.994   1.177 -0.8643  0.0969  0.4001
  615SOL    HW2 2659   6.714   2.918   1.257  0.1520  0.8080 -0.2396
  616SOL     OW 2660   5.263   6.793   0.847  0.3092  0.2203 -0.5065
  616SOL    HW1 2661   5.278   6.750   0.931  0.8687  1.0351 -0.1818
  616SOL    HW2 2662   5.348   6.789   0.802  1.0238  2.9801  0.4706
  617SOL     OW 2663   5.689   1.070   6.595  1.3938 -0.3332  0.7369
  617SOL    HW1 2664   5.660   1.154   6.559  0.8346 -1.4910 -1.5501
  617SOL    HW2 2665   5.727   1.093   6.680  0.4997  2.1285  0.5094
  618SOL     OW 2666   0.673   6.780   5.785  0.1709  0.5543  0.7715
  618SOL    HW1 2667   0.669   6.740   5.872  1.5861  0.8990  0.9978
  618SOL    HW2 2668   0.602   6.844   5.785 -0.4321 -0.1003  1.3356
  619SOL     OW 2669   5.061   0.069   5.680  0.1245  0.0981  0.2151
  619SOL    HW1 2670   4.982   0.120   5.695 -0.7601 -0.6069 -1.9553
  619SOL    HW2 2671   5.076   0.074   5.586  0.1665 -3.3712 -0.0173
  620SOL     OW 2672   4.862   4.886   5.357  0.0734 -0.2164 -0.3928
  620SOL    HW1 2673   4.805   4.899   5.433 -2.0106  0.8127 -2.0869
  620SOL    HW2 2674   4.828   4.806   5.315  0.4480 -0.1005 -0.9176
  621SOL     OW 2675   7.936   6.864   1.375  0.5404 -0.2590 -0.2804
  621SOL    HW1 2676   7.949   6.847   1.469 -1.1870 -0.5447 -0.0840
  621SOL    HW2 2677   7.891   6.949   1.373  0.8173 -0.1243 -0.8752
  622SOL     OW 2678   3.882   5.054   1.421  0.1049  0.2883 -0.2882
  622SOL    HW1 2679   3.816   5.049   1.351 -0.5145  0.3770  0.2767
  622SOL    HW2 2680   3.885   5.147   1.443 -0.8603  0.0674  0.8723
  623SOL     OW 2681   3.842   6.269   3.969 -0.2246 -0.1661 -0.2839
  623SOL    HW1 2682   3.849   6.181   3.931 -0.6724 -0.0808 -0.5649
  623SOL    HW2 2683   3.829   6.326   3.894 -0.4999  0.0742 -0.0518
  624SOL     OW 2684   1.402   5.827   4.327 -0.2724 -0.1164 -0.0097
  624SOL    HW1 2685   1.308   5.815   4.332 -0.2552 -0.4571 -0.4726
  624SOL    HW2 2686   1.416   5.870   4.242 -0.0181 -0.0096  0.0855
  625SOL     OW 2687   0.022   7.951   1.405 -0.1941 -0.6444  0.7404
  625SOL    HW1 2688  -0.064   7.909   1.405  0.1723 -1.3948  0.5962
  625SOL    HW2 2689   0.084   7.879   1.395  0.4769 -0.1505  1.3191
  626SOL     OW 2690   3.605   6.669   5.955 -0.5869 -0.4444 -0.2550
  626SOL    HW1 2691   3.647   6.746   5.993  1.1538 -1.9224  0.8659
  626SOL    HW2 2692   3.606   6.604   6.026 -0.7711 -1.9670 -1.6266
  627SOL     OW 2693   3.996   3.554   1.081  0.1265 -0.2964 -0.1799
  627SOL    HW1 2694   3.936   3.540   1.154  1.3251  0.9258  1.0716
  627SOL    HW2 2695   4.071   3.599   1.120  0.1321  1.7131 -2.4517
  628SOL     OW 2696   6.136   3.582   4.606  0.1792  0.0321 -0.1082
  628SOL    HW1 2697   6.057   3.527   4.606 -0.4760  0.9722 -1.1097
  628SOL    HW2 2698   6.180   3.561   4.523  0.6107  0.0558  0.1123
  629SOL     OW 2699   0.943   5.271   0.267 -0.3716 -0.4075  0.3629
  629SOL    HW1 2700   0.999   5.244   0.340  0.8627  0.3308 -0.2928
  629SOL    HW2 2701   0.884   5.337   0.306  0.3305  0.0391  0.6767
  630SOL     OW 2702   5.424   7.140   4.110 -0.1809 -0.5829 -0.1879
  630SOL    HW1 2703   5.407   7.207   4.177  1.2926  0.4025 -0.7778
  630SOL    HW2 2704   5.358   7.156   4.043 -0.6562 -0.5681  0.2738
  631SOL     OW 2705   3.944   6.764   0.315 -0.1725  0.1211  0.6093
  631SOL    HW1 2706   4.023   6.712   0.326 -0.6863 -0.8716 -0.3730
  631SOL    HW2 2707   3.945   6.824   0.390  0.8236 -0.7654  1.3222
  632SOL     OW 2708   6.636   0.623   6.017  0.3747 -0.0230  0.1695
  632SOL    HW1 2709   6.728   0.609   5.994  0.4690 -1.6383  1.4509
  632SOL    HW2 2710   6.595   0.652   5.936  1.8000 -0.3094 -0.6660
  633SOL     OW 2711   6.827   3.273   6.770 -0.2607  0.2653  0.8376
  633SOL    HW1 2712   6.777   3.197   6.740 -1.8115  0.9414  1.6115
  633SOL    HW2 2713   6.882   3.239   6.840 -0.3540 -0.3033  0.6412
  634SOL     OW 2714   0.260   7.144   1.216 -0.1928  0.2828 -0.8337
  634SOL    HW1 2715   0.211   7.225   1.205 -0.0540  0.4015 -0.5752
  634SOL    HW2 2716   0.281   7.116   1.127 -1.4725 -0.2191 -0.9888
  635SOL     OW 2717   0.557   2.537   7.758 -0.4735 -0.0387  0.1524
  635SOL    HW1 2718   0.489   2.598   7.731 -0.3395 -0.6160 -1.5422
  635SOL    HW2 2719   0.620   2.591   7.806 -1.3743  0.7592  0.4553
  636SOL     OW 2720   1.648   7.952   4.665 -0.0935 -0.0382  0.2516
  636SOL    HW1 2721   1.620   8.040   4.641  0.6022 -0.1636 -1.0896
  636SOL    HW2 2722   1.582   7.894   4.627 -0.6841 -0.0913  1.3415
  637SOL     OW 2723   1.730   7.340   3.030 -0.4467 -0.2489  0.2659
  637SOL    HW1 2724   1.722   7.248   3.055 -0.7836 -0.5594 -0.9327
  637SOL    HW2 2725   1.824   7.358   3.035 -0.3963 -0.6098  0.6704
  638SOL     OW 2726   1.484   4.473   2.789 -0.3122  0.1379 -0.0698
  638SOL    HW1 2727   1.437   4.396   2.821  1.8550 -0.6157  1.4301
  638SOL    HW2 2728   1.469   4.473   2.695 -1.5551 -1.2765  0.1210
  639SOL     OW 2729   6.399   6.340   3.377  0.1423 -0.3922 -0.6013
  639SOL    HW1 2730   6.393   6.256   3.423  4.3972 -0.3404  0.3068
  639SOL    HW2 2731   6.438   6.318   3.293  2.7588  0.7779  0.2522
  640SOL     OW 2732   2.455   0.010   3.202  0.4208 -0.2165 -0.5127
  640SOL    HW1 2733   2.449  -0.056   3.134  2.7485 -0.9159 -0.0519
  640SOL    HW2 2734   2.510  -0.029   3.269  0.6496  1.6474  0.4136
  641SOL     OW 2735   7.345   0.767   6.062  0.0316  0.2899  0.6269
  641SOL    HW1 2736   7.355   0.679   6.098 -1.5176 -0.6298 -1.1300
  641SOL    HW2 2737   7.381   0.760   5.973 -2.4080  0.7436 -0.4347
  642SOL     OW 2738   7.995   5.767   2.510 -0.1828  0.3723  0.3477
  642SOL    HW1 2739   8.083   5.748   2.477  0.4784  2.0084  1.1265
  642SOL    HW2 2740   8.010   5.812   2.593 -1.6605  3.5199 -1.0148
  643SOL     OW 2741   2.964   4.706   7.190 -0.1086  0.2589 -0.0096
  643SOL    HW1 2742   2.889   4.726   7.246  0.4322 -0.6437  1.0419
  643SOL    HW2 2743   2.990   4.792   7.155 -0.6716  0.7852  0.8316
  644SOL     OW 2744   5.623   7.709   1.754  0.0775 -0.1169  0.1739
  644SOL    HW1 2745   5.531   7.681   1.760  0.0533 -0.3279 -1.1413
  644SOL    HW2 2746   5.642   7.744   1.841 -1.4571  0.5481  0.2620
  645SOL     OW 2747   1.295   3.740   3.843 -0.2877  0.2222  0.1494
  645SOL    HW1 2748   1.245   3.662   3.870 -0.1768  0.6240  1.5397
  645SOL    HW2 2749   1.333   3.773   3.924  2.1685  0.0008 -0.8600
  646SOL     OW 2750   6.341   4.835   1.508 -0.3174  0.1366  0.5537
  646SOL    HW1 2751   6.385   4.876   1.582  0.3966 -1.3332  0.9700
  646SOL    HW2 2752   6.296   4.907   1.463  1.9109  1.5508  0.5301
  647SOL     OW 2753   1.013   1.207   0.216  0.5452  0.1835  0.0814
  647SOL    HW1 2754   1.020   1.168   0.129 -0.6633 -0.1387  0.1173
  647SOL    HW2 2755   1.012   1.132   0.276 -0.8254  0.2836  0.2131
  648SOL     OW 2756   7.312   5.505   7.611  0.4533  0.1275 -0.9160
  648SOL    HW1 2757   7.335   5.485   7.702 -1.1555  0.8085 -0.3404
  648SOL    HW2 2758   7.388   5.553   7.578  0.0817  2.0502  0.8594
  649SOL     OW 2759   3.271   0.668   6.898  0.4463  1.0306 -0.2208
  649SOL    HW1 2760   3.320   0.586   6.885  0.9641  1.4052 -0.6811
  649SOL    HW2 2761   3.179   0.641   6.899  0.6573  0.3317  0.5569
  650SOL     OW 2762   2.216   5.165   3.345  0.4970 -0.2439  0.5830
  650SOL    HW1 2763   2.266   5.246   3.340  0.3812 -0.2157 -0.0923
  650SOL    HW2 2764   2.132   5.190   3.383  0.1543  0.0959 -0.3904
  651SOL     OW 2765   7.094   7.689   3.934 -0.3307 -0.5766  0.5054
  651SOL    HW1 2766   7.066   7.695   4.025  1.3332  1.2323  0.9384
  651SOL    HW2 2767   7.177   7.642   3.936 -1.6395 -2.9777 -0.3985
  652SOL     OW 2768   3.750   4.643   7.586  0.4758 -0.0193  1.0609
  652SOL    HW1 2769   3.715   4.608   7.668 -2.3351 -0.4498 -0.2429
  652SOL    HW2 2770   3.680   4.698   7.552  2.3587  1.6912 -0.1315
  653SOL     OW 2771   4.074   4.154   1.301  0.4829  0.0799  0.0382
  653SOL    HW1 2772   4.071   4.213   1.225 -2.3582  0.7260  0.6156
  653SOL    HW2 2773   4.050   4.068   1.266  1.6687 -0.1442 -0.2451
  654SOL     OW 2774   1.902   2.837   2.791 -0.3840  0.0581  0.2077
  654SOL    HW1 2775   1.853   2.852   2.711 -0.2559 -1.8779 -0.2471
  654SOL    HW2 2776   1.856   2.890   2.857 -1.7515 -0.0078 -0.6708
  655SOL     OW 2777   3.980   7.306   0.639 -0.0533 -0.4128 -0.1342
  655SOL    HW1 2778   4.005   7.356   0.716 -0.3401  2.4415 -1.8531
  655SOL    HW2 2779   3.896   7.266   0.663  0.4559 -0.5585  1.4532
  656SOL     OW 2780   0.215   3.239   7.582  0.0635  0.8241 -0.4039
  656SOL    HW1 2781   0.309   3.222   7.577  0.2957  2.7034 -3.5391
  656SOL    HW2 2782   0.189   3.203   7.667  3.6472  0.5311  0.6563
  657SOL     OW 2783   0.981   6.136   7.412 -0.2732  0.1649 -0.1622
  657SOL    HW1 2784   1.000   6.145   7.505 -0.3945 -1.2646  0.0011
  657SOL    HW2 2785   0.897   6.092   7.408  0.6097 -1.5129 -0.9468
  658SOL     OW 2786   1.851   5.241   2.228  0.7601  0.0977  0.0128
  658SOL    HW1 2787   1.772   5.245   2.281  0.6009 -0.6448 -0.1589
  658SOL    HW2 2788   1.918   5.285   2.281  0.8935 -1.6474  1.3482
  659SOL     OW 2789   5.827   2.832   7.342 -0.4651  0.3234  0.1520
  659SOL    HW1 2790   5.922   2.840   7.357 -0.4223  1.3065 -0.5725
  659SOL    HW2 2791   5.820   2.765   7.274 -0.4634 -1.6656  2.0633
  660SOL     OW 2792   5.883   4.944   7.744  0.0712 -0.1736  0.3602
  660SOL    HW1 2793   5.931   4.886   7.685 -0.8761 -0.3996 -0.2052
  660SOL    HW2 2794   5.934   4.943   7.825 -0.1282 -2.0947  0.4784
  661SOL     OW 2795   1.294   6.295   4.827 -0.5059  0.3094  0.0953
  661SOL    HW1 2796   1.345   6.376   4.831 -0.3387  0.1251  2.1470
  661SOL    HW2 2797   1.230   6.302   4.898 -1.4944 -0.7008 -0.6672
  662SOL     OW 2798   7.577   1.362   5.990  0.2599  0.5213 -0.0610
  662SOL    HW1 2799   7.504   1.352   5.930 -0.7577  0.7298  1.1218
  662SOL    HW2 2800   7.537   1.382   6.074  1.5928 -1.4002  1.0746
  663SOL     OW 2801   7.366   4.532   2.086 -0.4152 -0.4360  0.0129
  663SOL    HW1 2802   7.286   4.578   2.058 -0.0911  0.3275  0.3144
  663SOL    HW2 2803   7.437   4.581   2.043  0.0591  0.4515  1.7732
  664SOL     OW 2804   1.018   1.233   3.319  0.0070  0.1015 -0.0067
  664SOL    HW1 2805   1.051   1.149   3.288 -0.9063 -0.0323 -0.6291
  664SOL    HW2 2806   0.959   1.263   3.250 -1.2426  0.2870  1.1260
  665SOL     OW 2807   0.878   1.936   2.704 -0.2723  0.2959  0.5388
  665SOL    HW1 2808   0.847   2.004   2.764  0.7432  0.8199  0.4902
  665SOL    HW2 2809   0.974   1.943   2.707 -0.2068  0.4217 -1.2397
  666SOL     OW 2810   0.285   5.636   3.807  0.1395  0.2492  0.4544
  666SOL    HW1 2811   0.248   5.553   3.777  1.6359 -0.0057 -0.7509
  666SOL    HW2 2812   0.279   5.693   3.730  0.1489  0.9049  0.9380
  667SOL     OW 2813   3.717   5.838   7.827  0.0895  0.3622  0.0212
  667SOL    HW1 2814   3.741   5.757   7.782  0.7251  0.5762 -0.0364
  667SOL    HW2 2815   3.705   5.902   7.756  0.6734  0.5917  0.1207
  668SOL     OW 2816   0.309   2.175   4.680  0.4421  0.0117 -0.1979
  668SOL    HW1 2817   0.365   2.168   4.603 -1.2223 -1.5295 -1.2976
  668SOL    HW2 2818   0.284   2.267   4.683  2.2350  0.5174 -0.2450
  669SOL     OW 2819   3.127   1.804   2.067  0.0079 -0.7408  0.1756
  669SOL    HW1 2820   3.136   1.875   2.004 -0.7123 -0.6796  0.1352
  669SOL    HW2 2821   3.206   1.752   2.057  0.6788  0.2222  0.4157
  670SOL     OW 2822   4.546   6.045   2.504  0.2494  0.4085 -0.4650
  670SOL    HW1 2823   4.589   6.095   2.435 -0.5768  1.5166 -0.1857
  670SOL    HW2 2824   4.618   6.011   2.557  0.8629  0.0783 -1.4995
  671SOL     OW 2825   7.072   1.419   4.146  0.5952 -0.2599  0.6340
  671SOL    HW1 2826   7.096   1.357   4.077  0.9509  1.0097 -0.4126
  671SOL    HW2 2827   7.035   1.365   4.215 -1.4270 -1.4131 -1.2829
  672SOL     OW 2828   0.160   4.483   3.704 -0.2715  0.2571  0.5028
  672SOL    HW1 2829   0.173   4.441   3.620  0.5565  2.0280 -0.2888
  672SOL    HW2 2830   0.065   4.493   3.712 -0.2597  2.0079 -1.2292
  673SOL     OW 2831   2.665   2.986   7.884 -0.4177  0.5676 -0.4976
  673SOL    HW1 2832   2.642   2.899   7.852 -0.8279  0.0604  1.1338
  673SOL    HW2 2833   2.755   2.977   7.914 -1.3441 -0.0213  2.1822
  674SOL     OW 2834   7.357   6.604   0.933 -0.3574  0.1558 -0.3584
  674SOL    HW1 2835   7.445   6.565   0.934 -0.1983  0.5080 -0.7765
  674SOL    HW2 2836   7.372   6.698   0.929 -0.7459  0.2697  0.6793
  675SOL     OW 2837   2.220   1.040   4.692  0.1557 -0.3559 -0.1445
  675SOL    HW1 2838   2.158   1.035   4.620 -0.3821  0.5074  0.2488
  675SOL    HW2 2839   2.221   0.951   4.729 -0.2625 -0.5654 -0.6312
  676SOL     OW 2840   2.384   5.493   2.901  0.0986 -0.1744 -0.1447
  676SOL    HW1 2841   2.434   5.566   2.939  1.6879 -0.9183 -0.7852
  676SOL    HW2 2842   2.416   5.416   2.948 -1.2895 -0.5193  0.2411
  677SOL     OW 2843   7.826   1.639   3.185  0.6526  0.2236  0.4330
  677SOL    HW1 2844   7.815   1.674   3.096  1.9645 -1.5154 -0.4289
  677SOL    HW2 2845   7.858   1.713   3.236  1.6496  0.7655 -0.9614
  678SOL     OW 2846   1.955   2.087   7.646 -0.1090 -0.2493 -0.3134
  678SOL    HW1 2847   1.884   2.135   7.604 -1.1385 -0.1337  1.5008
  678SOL    HW2 2848   1.930   1.995   7.636  0.1868 -0.2638 -0.8997
  679SOL     OW 2849   5.143   4.473   0.172  0.1456 -0.1525 -0.3868
  679SOL    HW1 2850   5.078   4.481   0.102 -0.0322 -0.9794 -0.3207
  679SOL    HW2 2851   5.222   4.515   0.136 -0.3707  0.7354 -0.5140
  680SOL     OW 2852   7.285   4.612   7.475  0.5048  0.3673 -0.3553
  680SOL    HW1 2853   7.263   4.666   7.550  0.4050 -0.3295  0.1267
  680SOL    HW2 2854   7.241   4.528   7.492  1.0587 -0.0286 -0.8420
  681SOL     OW 2855   4.626   7.035   6.251  0.1500 -0.2049 -0.5351
  681SOL    HW1 2856   4.648   7.105   6.312  0.6705  1.3199 -2.4286
  681SOL    HW2 2857   4.543   7.061   6.212 -0.3154 -1.2968 -0.3018
  682SOL     OW 2858   3.390   1.554   1.337 -0.5189 -0.1460 -0.1804
  682SOL    HW1 2859   3.337   1.526   1.262 -1.1558 -0.8775  0.5360
  682SOL    HW2 2860   3.404   1.474   1.388  1.6782 -0.0669 -0.5953
  683SOL     OW 2861   2.934   7.160   3.628 -0.1995  0.0638 -0.2101
  683SOL    HW1 2862   2.913   7.073   3.593 -0.5451 -0.4434  1.1998
  683SOL    HW2 2863   2.864   7.217   3.596 -1.6330 -0.8120  1.2669
  684SOL     OW 2864   2.958   2.260   3.654  0.3574  0.4029 -0.2352
  684SOL    HW1 2865   2.957   2.248   3.560 -0.9670  1.9190 -0.4407
  684SOL    HW2 2866   3.027   2.201   3.686 -1.4508 -2.5961 -1.7655
  685SOL     OW 2867   0.236   7.066   2.661  0.6359 -0.2241 -0.0156
  685SOL    HW1 2868   0.207   7.053   2.752 -1.2488  1.5982 -0.3180
  685SOL    HW2 2869   0.331   7.065   2.666  0.5606 -1.1193  1.8351
  686SOL     OW 2870   2.140   4.969   2.175  0.6699  0.3065  0.3372
  686SOL    HW1 2871   2.084   4.918   2.234 -1.0893 -0.0512 -1.5809
  686SOL    HW2 2872   2.187   4.903   2.125 -0.3242  0.5611 -0.9476
  687SOL     OW 2873   1.384   6.960   5.119  0.3326 -0.4044  0.0096
  687SOL    HW1 2874   1.363   6.882   5.171  1.6047 -0.3563  0.6442
  687SOL    HW2 2875   1.320   6.961   5.048 -2.6463  0.5385  2.6072
  688SOL     OW 2876   6.680   7.748   4.959 -0.1327 -0.0476  0.3422
  688SOL    HW1 2877   6.636   7.792   4.887  1.9145  0.7560 -0.4583
  688SOL    HW2 2878   6.669   7.807   5.034  0.6499  0.7580 -0.1679
  689SOL     OW 2879   3.329   4.081   1.452 -0.4871  0.4045 -0.4589
  689SOL    HW1 2880   3.404   4.117   1.498  0.6890 -0.3112 -1.7924
  689SOL    HW2 2881   3.339   3.986   1.461 -1.4786  0.3137 -0.2509
  690SOL     OW 2882   7.107   7.328   7.253  0.1301  0.2010  0.3593
  690SOL    HW1 2883   7.130   7.284   7.171 -1.7331 -1.4925  0.7117
  690SOL    HW2 2884   7.100   7.421   7.228  0.4804 -0.1651 -1.1912
  691SOL     OW 2885   3.474   6.728   4.384 -0.2025 -0.6523 -0.0124
  691SOL    HW1 2886   3.421   6.757   4.459  0.4874  1.2655 -0.2297
  691SOL    HW2 2887   3.440   6.778   4.310  0.5666 -0.9212 -0.5534
  692SOL     OW 2888   5.168   0.236   4.960 -0.5127 -0.2524  0.1273
  692SOL    HW1 2889   5.236   0.211   4.898 -0.3802  1.4821 -0.4476
  692SOL    HW2 2890   5.132   0.318   4.925 -0.0464  1.0598  2.6275
  693SOL     OW 2891   4.726   0.117   2.722 -0.1622  0.1051  0.0698
  693SOL    HW1 2892   4.808   0.072   2.742 -0.6236 -0.7255  0.1537
  693SOL    HW2 2893   4.729   0.130   2.627 -0.8332 -1.7990 -0.2484
  694SOL     OW 2894   7.077   0.132   0.582 -0.3048  0.0275  0.2195
  694SOL    HW1 2895   7.041   0.203   0.530  0.8644  0.0672 -0.5592
  694SOL    HW2 2896   7.113   0.176   0.660 -1.7640  0.0038  0.9078
  695SOL     OW 2897   4.917   1.060   3.091 -0.3916 -0.1529 -0.4705
  695SOL    HW1 2898   4.889   1.145   3.056  0.3763  0.5344  0.5292
  695SOL    HW2 2899   4.841   1.003   3.081 -0.6912  0.4674 -1.7836
  696SOL     OW 2900   1.488   2.645   7.709  0.5495  0.1099  0.0251
  696SOL    HW1 2901   1.431   2.721   7.721  0.9968  0.4527 -0.0106
  696SOL    HW2 2902   1.487   2.629   7.615  0.2048 -0.1231  0.0684
  697SOL     OW 2903   1.643   3.298   3.749  0.3550 -0.1780  0.0038
  697SOL    HW1 2904   1.651   3.211   3.789 -0.5771  0.0623  0.7527
  697SOL    HW2 2905   1.634   3.358   3.824 -1.3672  0.2885 -0.5459
  698SOL     OW 2906   0.982   1.455   3.643  0.1491  0.8555  0.6958
  698SOL    HW1 2907   0.915   1.467   3.576  0.2553 -0.6726  0.2858
  698SOL    HW2 2908   0.951   1.381   3.696 -0.0439  2.1746  2.4808
  699SOL     OW 2909   2.777   6.629   3.355 -0.4262 -0.1113 -0.1034
  699SOL    HW1 2910   2.694   6.660   3.392  0.3424  2.1894 -0.2694
  699SOL    HW2 2911   2.760   6.537   3.334 -2.4125 -0.1217  1.3875
  700SOL     OW 2912   7.337   0.358   0.557  0.0315 -0.0393  0.0834
  700SOL    HW1 2913   7.412   0.409   0.586 -1.3161  1.6696  0.7181
  700SOL    HW2 2914   7.352   0.271   0.592  1.8822  0.1926 -0.1090
  701SOL     OW 2915   6.380   5.413   1.161 -0.5093  0.5846  0.2665
  701SOL    HW1 2916   6.357   5.453   1.077 -0.3466  2.1995  0.9611
  701SOL    HW2 2917   6.474   5.396   1.155 -0.7698 -0.6283 -0.4066
  702SOL     OW 2918   0.143   3.751   3.964 -0.5073 -0.0397  0.3759
  702SOL    HW1 2919   0.197   3.712   3.896 -0.0441 -1.6528  1.6265
  702SOL    HW2 2920   0.167   3.843   3.965 -1.5726  0.3188 -2.5997
  703SOL     OW 2921   5.180   3.798   4.475 -0.0349  0.2389 -0.2874
  703SOL    HW1 2922   5.139   3.854   4.541  1.0207  1.8193 -0.9476
  703SOL    HW2 2923   5.121   3.803   4.399  1.1909  2.3218 -1.1527
  704SOL     OW 2924   3.363   3.941   6.144  0.3146 -0.1824 -0.2427
  704SOL    HW1 2925   3.374   4.001   6.218 -0.2376 -0.8453  0.3842
  704SOL    HW2 2926   3.268   3.930   6.137  0.3127  0.5302 -1.5857
  705SOL     OW 2927   2.207   6.269   7.933 -0.4583 -0.2954  0.1682
  705SOL    HW1 2928   2.293   6.312   7.925 -0.1443 -1.1226 -1.0984
  705SOL    HW2 2929   2.228   6.178   7.955 -1.0348 -0.2964  0.6946
  706SOL     OW 2930   1.070   2.722   4.879 -0.0328  0.0082  0.3629
  706SOL    HW1 2931   1.023   2.733   4.962  1.0192  1.2420  0.8099
  706SOL    HW2 2932   1.152   2.770   4.891 -0.0900  0.6213 -1.5861
  707SOL     OW 2933   6.079   4.715   7.065  0.3160 -0.4076  0.1946
  707SOL    HW1 2934   6.008   4.718   7.001  0.9626  0.3290 -0.4873
  707SOL    HW2 2935   6.155   4.751   7.019  0.9702 -0.5681  1.1372
  708SOL     OW 2936   2.992   6.787   6.776 -0.5929  0.0174  0.6417
  708SOL    HW1 2937   3.071   6.836   6.754 -0.8028  0.0547 -0.0653
  708SOL    HW2 2938   2.924   6.854   6.782 -0.6369 -0.0516  0.8955
  709SOL     OW 2939   3.363   1.404   2.142  0.4922 -0.8938  0.1819
  709SOL    HW1 2940   3.308   1.326   2.140 -0.7713 -0.0008 -0.5530
  709SOL    HW2 2941   3.360   1.433   2.233 -2.6197  0.7676 -0.3678
  710SOL     OW 2942   0.518   5.257   0.303  0.3599  0.4127  0.7114
  710SOL    HW1 2943   0.520   5.350   0.281 -1.9448  0.4552  0.5689
  710SOL    HW2 2944   0.593   5.245   0.362  2.2160  1.7967 -1.2950
  711SOL     OW 2945   5.076   4.796   0.626  0.7093 -0.5614  0.5303
  711SOL    HW1 2946   5.044   4.710   0.652  1.6160 -0.5365  1.7640
  711SOL    HW2 2947   5.057   4.853   0.701  0.2456  0.2783 -0.2195
  712SOL     OW 2948   4.836   4.505   5.263  0.0270  0.0312 -0.2141
  712SOL    HW1 2949   4.758   4.451   5.269 -0.0870 -0.0590 -2.0142
  712SOL    HW2 2950   4.845   4.524   5.169  2.2926 -0.1716 -0.0852
  713SOL     OW 2951   3.718   0.993   6.889  0.3931 -0.7228 -0.1101
  713SOL    HW1 2952   3.661   0.917   6.900 -0.7331  0.0144 -0.7150
  713SOL    HW2 2953   3.675   1.046   6.822  2.7899 -1.0782 -2.0206
  714SOL     OW 2954   2.953   6.731   5.333 -0.4784 -0.3513  0.0160
  714SOL    HW1 2955   2.895   6.771   5.399  0.5259 -0.2233  0.8418
  714SOL    HW2 2956   2.930   6.775   5.251 -1.9058 -0.6678  0.2234
  715SOL     OW 2957   7.910   2.176   4.663  0.0047 -0.8416  0.4686
  715SOL    HW1 2958   7.893   2.119   4.588 -1.5471  0.0753  0.1090
  715SOL    HW2 2959   7.830   2.227   4.674  0.8046  0.1874  1.7427
  716SOL     OW 2960   0.410   3.483   3.748 -0.2565 -0.4044  0.5555
  716SOL    HW1 2961   0.469   3.412   3.722 -0.6690 -0.6733  0.3462
  716SOL    HW2 2962   0.347   3.442   3.807  0.3487  0.0905  1.5637
  717SOL     OW 2963   5.459   6.766   6.839  0.5537 -0.3189  0.0258
  717SOL    HW1 2964   5.538   6.748   6.788 -0.9905 -0.1001 -2.5242
  717SOL    HW2 2965   5.410   6.684   6.835  0.3504 -0.2506  1.0760
  718SOL     OW 2966   7.597   1.242   2.981  0.2062 -0.0753  1.0420
  718SOL    HW1 2967   7.675   1.230   2.927 -0.9043 -1.7880 -0.2420
  718SOL    HW2 2968   7.630   1.245   3.071  1.6003 -2.2690  0.6269
  719SOL     OW 2969   2.148   6.498   4.727  0.0427 -0.0026 -0.2718
  719SOL    HW1 2970   2.236   6.517   4.760 -0.7603  1.8321  0.8674
  719SOL    HW2 2971   2.131   6.565   4.662  0.2744 -1.6092 -2.0364
  720SOL     OW 2972   2.338   2.619   0.902 -0.2059 -0.0065 -0.5951
  720SOL    HW1 2973   2.284   2.565   0.845 -0.7826  0.9275 -0.9446
  720SOL    HW2 2974   2.329   2.579   0.989 -3.3138  1.4805 -0.1996
  721SOL     OW 2975   2.590   3.010   2.225  0.4271  0.2676  0.0799
  721SOL    HW1 2976   2.641   3.018   2.144  0.3717  0.6980  0.0884
  721SOL    HW2 2977   2.631   3.072   2.286 -0.0539  0.5512  0.1150
  722SOL     OW 2978   1.873   6.546   7.969  0.3446 -0.1885  0.3384
  722SOL    HW1 2979   1.917   6.591   7.897 -0.6037 -0.9804 -0.7527
  722SOL    HW2 2980   1.866   6.613   8.037  1.9512  0.3419  0.0021
  723SOL     OW 2981   0.757   2.597   4.680  0.5819  0.0472 -0.2167
  723SOL    HW1 2982   0.849   2.600   4.705  0.6359  2.1726 -0.4994
  723SOL    HW2 2983   0.755   2.541   4.602  1.8028  0.7410 -0.7681
  724SOL     OW 2984   7.138   4.424   6.914  0.0667 -0.1070 -0.5099
  724SOL    HW1 2985   7.060   4.445   6.964 -0.2315 -1.6730 -0.2965
  724SOL    HW2 2986   7.109   4.425   6.823 -0.6955 -2.5840 -0.3338
  725SOL     OW 2987   4.786   6.759   1.642  0.0802  0.2232 -0.1310
  725SOL    HW1 2988   4.833   6.686   1.602  1.1737  0.4845  0.6318
  725SOL    HW2 2989   4.823   6.765   1.731  0.7620  2.3543 -0.5211
  726SOL     OW 2990   1.821   3.305   1.444  0.0361 -0.2258 -0.6900
  726SOL    HW1 2991   1.878   3.229   1.432  0.8809  0.2862  0.0179
  726SOL    HW2 2992   1.855   3.349   1.522 -0.8738  0.4999 -0.6898
  727SOL     OW 2993   1.494   6.059   1.615 -0.2271 -0.1930  0.0066
  727SOL    HW1 2994   1.403   6.034   1.604 -0.4306 -0.1854  1.5349
  727SOL    HW2 2995   1.516   6.030   1.704  0.5300  2.0353  0.5814
  728SOL     OW 2996   3.320   5.437   6.001 -0.4605 -0.2735  0.5755
  728SOL    HW1 2997   3.404   5.464   6.038  0.0595 -1.7277  0.4808
  728SOL    HW2 2998   3.305   5.498   5.928  0.2916  0.2667  0.8725
  729SOL     OW 2999   5.125   6.529   6.918  0.3635 -0.2469 -0.3413
  729SOL    HW1 3000   5.077   6.600   6.875  0.1571 -0.6822 -0.8367
  729SOL    HW2 3001   5.174   6.573   6.988  1.1873  0.5697 -1.3946
  730SOL     OW 3002   4.348   1.012   4.701  0.4587 -0.7876 -0.9309
  730SOL    HW1 3003   4.269   0.993   4.751  0.5844 -1.0937 -0.8470
  730SOL    HW2 3004   4.354   1.107   4.700  1.2202 -0.7968  0.8515
  731SOL     OW 3005   4.113   5.872   2.574  0.1641 -0.2386  0.4919
  731SOL    HW1 3006   4.103   5.942   2.638  0.3839 -0.7719  1.1148
  731SOL    HW2 3007   4.200   5.837   2.591 -0.6974 -1.9435  1.4743
  732SOL     OW 3008   1.772   6.482   5.675  0.0887  0.0666 -0.0040
  732SOL    HW1 3009   1.715   6.499   5.750 -1.5333  1.5782 -1.5061
  732SOL    HW2 3010   1.797   6.570   5.645  2.2508 -0.5710 -0.0832
  733SOL     OW 3011   6.177   5.356   7.322  0.3073 -0.1782  0.1480
  733SOL    HW1 3012   6.140   5.269   7.308 -0.1131  0.0946 -0.4246
  733SOL    HW2 3013   6.110   5.402   7.373 -0.8295  0.8128 -2.1946
  734SOL     OW 3014   2.936   6.632   3.575  0.2774 -0.0949 -0.2496
  734SOL    HW1 3015   2.887   6.618   3.495  0.2991  0.7429 -0.4175
  734SOL    HW2 3016   3.005   6.695   3.551  0.0398  0.4712  0.5054
  735SOL     OW 3017   4.381   0.894   4.953  0.1279  0.0029 -0.3375
  735SOL    HW1 3018   4.347   0.963   5.011 -0.1875  0.2255 -0.7808
  735SOL    HW2 3019   4.405   0.941   4.873 -0.0812 -0.4075 -0.6380
  736SOL     OW 3020   7.327   5.778   5.756  0.9509 -0.2164  0.0363
  736SOL    HW1 3021   7.345   5.800   5.665 -1.9912  0.5800 -0.3793
  736SOL    HW2 3022   7.328   5.861   5.802 -1.8104 -0.0990 -0.0535
  737SOL     OW 3023   6.161   0.784   7.904 -0.8615  0.2396 -0.0032
  737SOL    HW1 3024   6.236   0.814   7.954 -0.0928 -0.3962 -0.7646
  737SOL    HW2 3025   6.089   0.782   7.967  0.1041 -0.6438  1.0783
  738SOL     OW 3026   3.634   2.935   0.594 -0.0075  0.2395  0.4815
  738SOL    HW1 3027   3.691   2.942   0.671 -0.9731 -1.1293  1.3222
  738SOL    HW2 3028   3.570   2.868   0.617 -1.3318  1.0217 -0.8723
  739SOL     OW 3029   0.490   5.522   4.486  0.2785  0.3569  0.1818
  739SOL    HW1 3030   0.418   5.573   4.451 -2.1114 -2.1321  1.2769
  739SOL    HW2 3031   0.516   5.567   4.566 -2.3218 -0.4725  1.5580
  740SOL     OW 3032   4.242   5.519   1.406  0.6098  0.2582 -0.2849
  740SOL    HW1 3033   4.207   5.435   1.434  0.2411  1.3597  2.7833
  740SOL    HW2 3034   4.332   5.519   1.439  0.4850  1.1992  0.0648
  741SOL     OW 3035   5.432   5.896   5.081 -0.0188  0.3459  0.4902
  741SOL    HW1 3036   5.439   5.801   5.095  1.2770  0.4538  0.6938
  741SOL    HW2 3037   5.467   5.909   4.992  2.1292  0.8836  1.3684
  742SOL     OW 3038   3.624   5.157   6.493  0.6757  0.5129  0.0459
  742SOL    HW1 3039   3.637   5.232   6.552 -0.1311 -0.8430  1.9938
  742SOL    HW2 3040   3.562   5.189   6.427 -3.2487  0.2709  3.4317
  743SOL     OW 3041   2.062   3.741   2.966 -0.5013 -0.0903 -0.1474
  743SOL    HW1 3042   2.149   3.746   2.927 -0.8426  2.0093 -0.7378
  743SOL    HW2 3043   2.047   3.829   3.001 -1.7788 -0.8474  1.2836
  744SOL     OW 3044   2.877   7.038   2.523  0.6093  0.0150  0.1396
  744SOL    HW1 3045   2.880   7.053   2.428 -0.4191 -1.4526 -0.1414
  744SOL    HW2 3046   2.898   7.123   2.561 -3.0507  1.7514 -1.4042
  745SOL     OW 3047   6.026   4.187   6.254  0.0702  0.2095 -0.5647
  745SOL    HW1 3048   6.037   4.238   6.334  0.9795  2.9878 -2.3939
  745SOL    HW2 3049   6.051   4.098   6.278 -2.9671  0.2331  3.0873
  746SOL     OW 3050   4.331   2.411   6.734  0.6183 -0.1856  0.4076
  746SOL    HW1 3051   4.314   2.505   6.725 -0.8337 -0.2764  1.8122
  746SOL    HW2 3052   4.256   2.378   6.784  0.9725 -2.1457 -0.2973
  747SOL     OW 3053   7.328   6.463   3.317 -0.3208 -0.2827  0.1784
  747SOL    HW1 3054   7.387   6.399   3.357 -0.7705  0.3599  1.8873
  747SOL    HW2 3055   7.267   6.411   3.265 -0.4848 -1.2304  1.3089
  748SOL     OW 3056   3.737   2.762   2.437 -0.0247 -0.6420 -0.1619
  748SOL    HW1 3057   3.792   2.711   2.496  1.2591  1.1534  0.1961
  748SOL    HW2 3058   3.689   2.822   2.493 -1.5248 -1.3831 -0.5957
  749SOL     OW 3059   6.380   5.125   6.264  0.2469 -0.2625 -0.6113
  749SOL    HW1 3060   6.381   5.123   6.359  1.4799  1.6479 -0.5764
  749SOL    HW2 3061   6.338   5.042   6.239 -1.3064 -0.1828  1.5922
  750SOL     OW 3062   4.611   7.921   5.710  0.0936 -0.0690 -0.2692
  750SOL    HW1 3063   4.655   7.846   5.670  0.4980  0.7125 -1.3461
  750SOL    HW2 3064   4.539   7.883   5.761  1.2640 -1.2743  0.4981
  751SOL     OW 3065   5.762   7.456   7.348 -0.2378  0.5854  0.4859
  751SOL    HW1 3066   5.783   7.419   7.434 -0.4523 -0.4067  0.1268
  751SOL    HW2 3067   5.825   7.526   7.335  1.9420 -1.4030  0.0357
  752SOL     OW 3068   6.259   3.930   2.204  0.2950 -0.4143  0.2015
  752SOL    HW1 3069   6.168   3.953   2.224  0.1221 -0.2260 -0.7727
  752SOL    HW2 3070   6.259   3.911   2.110  1.4167  0.3572  0.0308
  753SOL     OW 3071   2.292   3.219   7.098 -0.0501 -0.7012 -0.1056
  753SOL    HW1 3072   2.235   3.155   7.138 -1.6511 -0.4311 -1.8646
  753SOL    HW2 3073   2.256   3.232   7.010  2.0395  0.3285 -0.8564
  754SOL     OW 3074   1.001   1.018   6.840 -0.0149  0.4575 -0.5414
  754SOL    HW1 3075   0.998   0.984   6.751  1.0748 -0.1570 -0.3506
  754SOL    HW2 3076   0.925   0.977   6.883  0.4405 -0.6074 -0.7240
  755SOL     OW 3077   2.050   4.725   3.234  0.4044 -0.2204  0.4511
  755SOL    HW1 3078   2.090   4.791   3.291  0.5419 -0.5635  0.7563
  755SOL    HW2 3079   2.123   4.695   3.179  0.5212 -0.6759  0.8461
  756SOL     OW 3080   3.836   1.038   0.671 -0.3669  0.3101  0.4670
  756SOL    HW1 3081   3.928   1.054   0.647 -0.4477  0.0790  0.0012
  756SOL    HW2 3082   3.798   1.125   0.681  0.2515  0.4251  2.0070
  757SOL     OW 3083   2.574   5.776   0.127 -0.0943 -0.1210 -0.7539
  757SOL    HW1 3084   2.644   5.747   0.186 -0.1414  0.9187 -0.1688
  757SOL    HW2 3085   2.568   5.870   0.142 -1.5454 -0.1788 -0.8861
  758SOL     OW 3086   5.274   2.126   5.544 -0.3105 -0.2327  0.0956
  758SOL    HW1 3087   5.347   2.126   5.606  0.5474 -0.9393 -0.8822
  758SOL    HW2 3088   5.242   2.216   5.544  1.2896  0.3605 -0.2905
  759SOL     OW 3089   2.052   6.932   0.417  0.2642 -0.7824  0.1083
  759SOL    HW1 3090   2.146   6.919   0.427  0.3799 -0.6302 -0.7926
  759SOL    HW2 3091   2.038   6.938   0.323 -0.4419  0.7268  0.2973
  760SOL     OW 3092   5.378   4.616   3.153 -0.7981  0.0574  0.5667
  760SOL    HW1 3093   5.319   4.546   3.127  1.3101 -1.1766 -1.0691
  760SOL    HW2 3094   5.349   4.692   3.102 -1.6235 -0.2573  0.5674
  761SOL     OW 3095   2.476   7.450   7.203 -0.1433 -0.2184 -0.3398
  761SOL    HW1 3096   2.390   7.408   7.207 -1.0952  1.3756 -2.7689
  761SOL    HW2 3097   2.468   7.527   7.259  0.1898 -0.8898  0.6328
  762SOL     OW 3098   6.146   3.356   5.149  0.8479 -0.5792 -0.1237
  762SOL    HW1 3099   6.154   3.449   5.132  0.2048 -0.5324 -0.1943
  762SOL    HW2 3100   6.229   3.331   5.188  0.4228  0.3489  1.4049
  763SOL     OW 3101   1.813   6.926   1.238  0.0761 -0.9875  0.3969
  763SOL    HW1 3102   1.876   6.874   1.189 -0.4561 -0.4516 -0.8861
  763SOL    HW2 3103   1.753   6.959   1.171 -0.9880 -0.7036  1.4918
  764SOL     OW 3104   0.924   6.644   7.946  0.3582  1.0135 -0.3699
  764SOL    HW1 3105   0.974   6.693   8.012  0.9289 -0.4408  0.3070
  764SOL    HW2 3106   0.839   6.628   7.986  1.1930 -1.1064  0.6084
  765SOL     OW 3107   5.997   3.717   0.806  0.2392  0.4138  0.0901
  765SOL    HW1 3108   5.984   3.808   0.834  0.1223  0.3608  0.2040
  765SOL    HW2 3109   5.934   3.705   0.735  0.2417  0.4148  0.0877
  766SOL     OW 3110   0.391   3.656   5.493 -0.6817 -0.4873 -0.2733
  766SOL    HW1 3111   0.482   3.662   5.522  0.1406 -4.5173 -1.7620
  766SOL    HW2 3112   0.383   3.724   5.426  0.9670  0.4051  0.4015
  767SOL     OW 3113   2.451   5.807   2.708  0.3097  0.0687 -0.5546
  767SOL    HW1 3114   2.509   5.761   2.648  0.6591  1.4149 -1.2853
  767SOL    HW2 3115   2.503   5.883   2.736 -0.6481  0.6077 -0.2414
  768SOL     OW 3116   3.064   1.340   5.818  0.4990  0.3343  0.2331
  768SOL    HW1 3117   3.036   1.416   5.767  0.6958  0.3642  0.1687
  768SOL    HW2 3118   2.990   1.279   5.813  0.9114 -0.0797 -0.9228
  769SOL     OW 3119   1.844   3.020   2.296  0.8168 -0.6153  0.2576
  769SOL    HW1 3120   1.828   3.070   2.216 -2.2322 -0.6732  0.7562
  769SOL    HW2 3121   1.801   2.936   2.281  0.8386 -0.9020  1.6849
  770SOL     OW 3122   0.288   7.291   2.021  0.4678 -0.3737 -0.3202
  770SOL    HW1 3123   0.226   7.249   2.081  0.4849  0.4616  0.3018
  770SOL    HW2 3124   0.321   7.220   1.966  1.6879 -1.4879  1.7570
  771SOL     OW 3125   1.386   0.423   0.905  0.1910 -0.2995  0.3110
  771SOL    HW1 3126   1.429   0.500   0.944 -1.0518  0.2510  0.6096
  771SOL    HW2 3127   1.294   0.435   0.925 -0.6157  0.3962 -3.4401
  772SOL     OW 3128   5.816   4.120   3.129  0.0236 -0.3747  0.1219
  772SOL    HW1 3129   5.740   4.079   3.170 -0.4664  0.6077  0.2303
  772SOL    HW2 3130   5.866   4.048   3.092 -2.2738 -0.8471 -2.1875
  773SOL     OW 3131   0.179   0.006   5.795 -0.3824  0.6877  0.5920
  773SOL    HW1 3132   0.093   0.020   5.834 -0.2420  2.1440  0.3916
  773SOL    HW2 3133   0.216   0.094   5.786  0.2471  0.2371 -1.3070
  774SOL     OW 3134   5.464   2.087   5.764 -0.5114  0.3828 -0.7601
  774SOL    HW1 3135   5.536   2.127   5.714  0.1970  0.8287  0.6067
  774SOL    HW2 3136   5.482   1.993   5.762 -0.8023  0.3374 -1.8145
  775SOL     OW 3137   4.601   6.580   7.059 -0.4627 -0.3169  0.5228
  775SOL    HW1 3138   4.555   6.650   7.106 -0.3036 -0.5728  1.0593
  775SOL    HW2 3139   4.626   6.620   6.975 -0.4641  0.2366  0.7829
  776SOL     OW 3140   4.639   1.153   2.061 -0.2952  0.1099  0.1872
  776SOL    HW1 3141   4.707   1.104   2.015  1.2141  1.4240  0.9824
  776SOL    HW2 3142   4.560   1.101   2.048  0.9190 -1.6396 -0.4374
  777SOL     OW 3143   6.290   6.331   5.078 -0.4368 -0.4681 -0.0962
  777SOL    HW1 3144   6.374   6.370   5.103 -0.9279  1.6263 -1.5924
  777SOL    HW2 3145   6.273   6.366   4.991 -2.9312 -0.7585  0.2508
  778SOL     OW 3146   1.786   7.420   1.118  0.4455 -0.4124 -0.1288
  778SOL    HW1 3147   1.724   7.448   1.050  0.2524 -0.9127 -0.1559
  778SOL    HW2 3148   1.755   7.334   1.146  0.4993 -0.1956  0.6239
  779SOL     OW 3149   7.017   3.487   0.850  0.3615  0.0087  0.0135
  779SOL    HW1 3150   6.985   3.397   0.853  4.4102 -1.5267  0.1219
  779SOL    HW2 3151   7.038   3.502   0.758  1.6818  0.0715  0.3112
  780SOL     OW 3152   6.932   3.850   7.667 -0.2053 -0.2853 -0.1097
  780SOL    HW1 3153   6.885   3.830   7.587 -0.0114 -1.7856  0.1415
  780SOL    HW2 3154   7.021   3.820   7.651 -0.6936 -2.6797  1.4639
  781SOL     OW 3155   3.780   7.054   7.604  0.2001 -0.1024 -0.4335
  781SOL    HW1 3156   3.731   7.079   7.526  0.2403 -0.7766 -0.6735
  781SOL    HW2 3157   3.734   7.097   7.676 -0.3346 -0.1758 -0.7320
  782SOL     OW 3158   0.256   5.869   2.053 -0.1458  0.5527 -0.3950
  782SOL    HW1 3159   0.347   5.887   2.075 -0.0084 -0.1033 -0.4196
  782SOL    HW2 3160   0.253   5.869   1.958 -0.0379 -0.0663 -0.4015
  783SOL     OW 3161   1.226   1.313   3.573  0.0315  0.0434  0.0886
  783SOL    HW1 3162   1.190   1.400   3.558  0.0467  0.0558  0.1245
  783SOL    HW2 3163   1.150   1.258   3.592  0.0046  0.0111 -0.1087
  784SOL     OW 3164   7.643   3.158   5.361 -0.4922 -0.3406 -0.0599
  784SOL    HW1 3165   7.557   3.179   5.397 -1.5185  1.3833 -3.3416
  784SOL    HW2 3166   7.701   3.225   5.398 -1.1953  0.3721 -0.2195
  785SOL     OW 3167   3.004   4.071   7.319 -0.0397 -0.5231 -0.2091
  785SOL    HW1 3168   2.923   4.068   7.268 -0.4491 -0.7811  0.4391
  785SOL    HW2 3169   2.974   4.065   7.410  0.7062 -0.5535  0.0353
  786SOL     OW 3170   7.969   3.188   1.475 -0.5878  0.0536  0.1269
  786SOL    HW1 3171   7.963   3.241   1.555 -0.0465  1.1356 -0.5254
  786SOL    HW2 3172   7.915   3.111   1.492  0.0456 -0.0353  1.7729
  787SOL     OW 3173   5.638   5.841   7.617  0.3620 -0.2048 -0.1128
  787SOL    HW1 3174   5.644   5.915   7.557 -0.3838  0.5058  0.6887
  787SOL    HW2 3175   5.557   5.796   7.591 -0.2667  0.4282  0.7157
  788SOL     OW 3176   1.121   0.070   2.064 -0.2547 -0.3305  0.2864
  788SOL    HW1 3177   1.125  -0.024   2.044  0.5951  0.0766 -1.5946
  788SOL    HW2 3178   1.037   0.099   2.027  0.2805 -0.0297 -0.7348
  789SOL     OW 3179   1.420   6.682   7.413  0.2077 -0.1923  0.0186
  789SOL    HW1 3180   1.445   6.743   7.344 -0.9549  1.9425  1.4412
  789SOL    HW2 3181   1.428   6.732   7.494 -1.6923 -1.6198  1.1317
  790SOL     OW 3182   4.070   4.212   6.415 -0.4938  0.3378  0.2108
  790SOL    HW1 3183   4.026   4.130   6.437 -0.9405 -0.4589 -3.2771
  790SOL    HW2 3184   4.129   4.188   6.343  3.0257  2.1172  2.4174
  791SOL     OW 3185   3.985   5.153   6.685 -0.2935 -0.5258 -0.0377
  791SOL    HW1 3186   4.080   5.150   6.691 -0.2930 -1.4119 -0.4251
  791SOL    HW2 3187   3.962   5.083   6.624 -1.3968 -2.4202  2.4271
  792SOL     OW 3188   3.460   5.728   0.192  0.5267  0.0155  0.6493
  792SOL    HW1 3189   3.509   5.725   0.274  1.5203  1.4564  0.1336
  792SOL    HW2 3190   3.504   5.795   0.140 -0.6463 -0.2335 -0.7112
  793SOL     OW 3191   7.960   4.375   0.994 -0.0516  0.3391  0.2179
  793SOL    HW1 3192   7.926   4.461   1.016 -1.1969  0.1896 -0.8844
  793SOL    HW2 3193   8.050   4.375   1.027  0.1767  2.1848 -0.3768
  794SOL     OW 3194   6.492   7.973   2.574  0.2740  0.2009 -0.4258
  794SOL    HW1 3195   6.402   7.965   2.541 -0.2264  6.2273 -1.2308
  794SOL    HW2 3196   6.546   7.966   2.496  0.3736 -1.1482 -0.2509
  795SOL     OW 3197   6.293   1.658   3.557 -0.2365  0.2503 -0.2493
  795SOL    HW1 3198   6.330   1.703   3.633  0.2494 -0.3527 -0.1220
  795SOL    HW2 3199   6.361   1.666   3.490 -1.6141  2.8835 -1.4342
  796SOL     OW 3200   2.978   1.482   6.557 -0.0694 -0.2443  0.7235
  796SOL    HW1 3201   2.977   1.399   6.509  0.3951 -0.0774  0.4103
  796SOL    HW2 3202   3.006   1.459   6.645 -0.0171 -0.4334  0.6577
  797SOL     OW 3203   7.568   4.376   5.393  0.6970 -1.0642  0.2520
  797SOL    HW1 3204   7.642   4.357   5.336  0.9314 -2.5668  1.0153
  797SOL    HW2 3205   7.491   4.360   5.338  0.9138  0.0748 -0.4085
  798SOL     OW 3206   6.863   0.185   4.764 -0.3208 -0.4940  0.1335
  798SOL    HW1 3207   6.925   0.115   4.783  0.5427  0.5789  1.4322
  798SOL    HW2 3208   6.914   0.249   4.715 -1.1185 -0.7917 -1.0943
  799SOL     OW 3209   2.760   7.687   4.339 -0.4204  0.8118 -0.0571
  799SOL    HW1 3210   2.846   7.722   4.361 -0.4783  0.3552  0.9283
  799SOL    HW2 3211   2.742   7.720   4.251  0.7543  0.9182 -0.2595
  800SOL     OW 3212   3.470   5.196   2.616  1.0401 -0.2157  0.0095
  800SOL    HW1 3213   3.397   5.253   2.595  2.2819  1.4175  0.0358
  800SOL    HW2 3214   3.438   5.141   2.687 -1.0949 -1.4885 -1.8671
  801SOL     OW 3215   3.496   3.470   6.440  0.2098 -0.4034  0.6498
  801SOL    HW1 3216   3.490   3.554   6.395  0.8992 -0.0796  1.1404
  801SOL    HW2 3217   3.418   3.422   6.413  0.0017  0.2518  0.0738
  802SOL     OW 3218   5.048   3.976   2.807  0.7947 -0.2061 -0.1645
  802SOL    HW1 3219   5.008   3.902   2.759  1.4784 -1.4837  1.2116
  802SOL    HW2 3220   5.101   3.935   2.875  2.6581  1.5404 -0.5239
  803SOL     OW 3221   4.982   1.237   6.220 -0.9679 -0.0696  0.2158
  803SOL    HW1 3222   4.947   1.325   6.225  2.5324  1.3804  0.9162
  803SOL    HW2 3223   4.965   1.199   6.306 -1.1363  0.4900  0.4299
  804SOL     OW 3224   6.738   5.037   6.893 -0.2948 -0.9282  0.5175
  804SOL    HW1 3225   6.693   5.114   6.928 -2.3945 -0.8311 -2.2170
  804SOL    HW2 3226   6.830   5.053   6.912 -0.6802  2.2707  0.0591
  805SOL     OW 3227   7.085   1.166   3.263 -0.1885  0.4901 -0.0468
  805SOL    HW1 3228   7.136   1.157   3.182  0.3460  0.3661  0.3029
  805SOL    HW2 3229   7.050   1.255   3.260 -0.5240  0.3447 -0.6168
  806SOL     OW 3230   5.418   4.679   1.734  0.3803  0.4178 -0.5117
  806SOL    HW1 3231   5.386   4.608   1.790 -0.5443  2.4530  1.6416
  806SOL    HW2 3232   5.511   4.688   1.757  0.2759  0.5032 -0.1280
  807SOL     OW 3233   5.977   7.855   6.130 -0.0177 -0.1521  0.1885
  807SOL    HW1 3234   6.005   7.911   6.202 -1.2739 -1.4731  1.7731
  807SOL    HW2 3235   5.893   7.891   6.103  1.0214  1.0609 -1.4389
  808SOL     OW 3236   4.990   3.599   1.634 -0.3269  0.9922 -0.4111
  808SOL    HW1 3237   5.081   3.571   1.640 -0.5742  0.1432 -0.5040
  808SOL    HW2 3238   4.940   3.520   1.653 -1.0462  1.5365 -0.0144
  809SOL     OW 3239   6.186   0.480   3.710  0.2777 -0.5159 -0.5901
  809SOL    HW1 3240   6.252   0.413   3.729 -0.4627 -0.8900  0.7350
  809SOL    HW2 3241   6.177   0.529   3.792 -1.0245 -0.4165 -0.7829
  810SOL     OW 3242   4.547   5.790   3.107  0.4241  0.5803  0.1487
  810SOL    HW1 3243   4.493   5.766   3.031  1.6143  0.9722 -0.8460
  810SOL    HW2 3244   4.494   5.766   3.183 -1.1831  1.0389 -0.8023
  811SOL     OW 3245   7.232   4.985   0.845 -0.3256 -0.0550 -0.4909
  811SOL    HW1 3246   7.214   5.078   0.829 -1.3456 -0.2241 -0.3618
  811SOL    HW2 3247   7.145   4.946   0.857  0.1176 -0.9759 -0.2759
  812SOL     OW 3248   1.556   7.920   5.921  0.2274  0.1417 -0.2608
  812SOL    HW1 3249   1.630   7.862   5.905 -0.0429 -0.4219  0.4858
  812SOL    HW2 3250   1.500   7.909   5.844  0.6717  0.1790 -0.5869
  813SOL     OW 3251   0.604   1.458   4.451  0.2592  0.3544 -0.2556
  813SOL    HW1 3252   0.613   1.518   4.525  0.8195  0.1513 -0.1573
  813SOL    HW2 3253   0.550   1.387   4.484  0.7641  0.1119  0.0541
  814SOL     OW 3254   1.562   0.067   2.881  0.1353  0.1560 -0.6935
  814SOL    HW1 3255   1.494   0.093   2.944  1.0704 -2.8124  1.6678
  814SOL    HW2 3256   1.639   0.116   2.908 -0.0463  0.6067 -0.9785
  815SOL     OW 3257   0.193   7.311   0.451 -0.4070  0.1953  0.3926
  815SOL    HW1 3258   0.104   7.321   0.486 -0.8368  0.3224 -0.7269
  815SOL    HW2 3259   0.185   7.244   0.383  0.4602 -0.1547  0.6225
  816SOL     OW 3260   6.773   1.156   3.038  0.1986  0.6086 -0.3835
  816SOL    HW1 3261   6.693   1.203   3.063  0.0484  0.9118 -1.3982
  816SOL    HW2 3262   6.785   1.091   3.107 -1.8642 -0.5581 -1.0508
  817SOL     OW 3263   1.579   7.275   2.580 -0.0839 -0.3639 -0.1202
  817SOL    HW1 3264   1.601   7.367   2.564 -1.6087 -0.2350 -1.6297
  817SOL    HW2 3265   1.504   7.258   2.523  0.4728 -2.6839 -0.2270
  818SOL     OW 3266   7.694   6.761   0.421 -0.3257 -0.2004 -0.2645
  818SOL    HW1 3267   7.612   6.808   0.438 -0.3583  0.2436 -1.5743
  818SOL    HW2 3268   7.740   6.815   0.357  1.2842 -0.1321  0.9159
  819SOL     OW 3269   7.337   5.191   5.454 -0.4781  0.5432 -0.5399
  819SOL    HW1 3270   7.396   5.146   5.515 -1.8263 -0.6081 -0.0579
  819SOL    HW2 3271   7.356   5.152   5.369 -0.5103  0.2044 -0.3915
  820SOL     OW 3272   5.829   7.718   3.778 -0.1281  0.2221  0.5807
  820SOL    HW1 3273   5.798   7.799   3.738 -0.4782 -0.2540 -0.1240
  820SOL    HW2 3274   5.918   7.737   3.807  0.1938  0.5164 -0.5927
  821SOL     OW 3275   0.183   3.512   5.284  0.3039 -0.2534  0.3739
  821SOL    HW1 3276   0.257   3.470   5.327  1.2900  0.5103 -0.5731
  821SOL    HW2 3277   0.165   3.590   5.338  2.2664  1.3291 -1.1863
  822SOL     OW 3278   2.862   7.759   3.479  0.7893 -0.5665  0.0437
  822SOL    HW1 3279   2.782   7.737   3.430  0.5449  0.0424  0.1646
  822SOL    HW2 3280   2.919   7.683   3.466  0.2874 -0.9026 -0.2467
  823SOL     OW 3281   2.718   5.955   5.586  0.4273 -0.2293 -0.8114
  823SOL    HW1 3282   2.668   6.026   5.546  0.9371  0.4136 -0.3234
  823SOL    HW2 3283   2.722   5.978   5.679  1.6491 -0.2543 -0.8451
  824SOL     OW 3284   5.280   4.355   6.448  0.1684 -0.7499  0.1510
  824SOL    HW1 3285   5.329   4.286   6.494  0.9734  0.0408  0.4900
  824SOL    HW2 3286   5.246   4.312   6.370  2.6962 -0.9509 -0.8973
  825SOL     OW 3287   6.930   6.488   7.021 -0.3161  0.0646 -0.1475
  825SOL    HW1 3288   6.854   6.541   7.000 -1.0012 -0.1882  1.5938
  825SOL    HW2 3289   6.925   6.413   6.962 -0.7401  0.6668 -0.8756
  826SOL     OW 3290   6.139   2.827   0.027  0.4210 -0.0744 -0.1133
  826SOL    HW1 3291   6.081   2.766   0.073 -1.2665  0.4779 -1.4767
  826SOL    HW2 3292   6.182   2.876   0.097 -1.5586  0.2355  0.9083
  827SOL     OW 3293   7.818   1.051   5.627 -0.3650  0.1367  0.3514
  827SOL    HW1 3294   7.889   1.019   5.571 -2.6690 -1.7260 -1.5665
  827SOL    HW2 3295   7.830   1.146   5.628  0.1611  0.1490 -2.7051
  828SOL     OW 3296   1.430   6.592   2.239 -0.1765  0.2070  0.2159
  828SOL    HW1 3297   1.350   6.546   2.264  1.2327 -2.0223  0.7282
  828SOL    HW2 3298   1.464   6.628   2.321 -0.5989  1.1068  0.0065
  829SOL     OW 3299   7.050   2.609   1.126  0.5864 -0.0750 -0.1406
  829SOL    HW1 3300   6.962   2.634   1.153  0.4422  0.8384 -1.4526
  829SOL    HW2 3301   7.056   2.635   1.035  1.6858 -1.5520 -0.5177
  830SOL     OW 3302   3.576   6.705   2.710  0.1661 -0.9714 -0.0237
  830SOL    HW1 3303   3.607   6.616   2.695  0.8460 -0.5722 -1.0845
  830SOL    HW2 3304   3.480   6.699   2.702  0.3226 -1.2871 -1.8986
  831SOL     OW 3305   7.796   4.397   4.130 -0.8766 -0.7529 -0.1923
  831SOL    HW1 3306   7.755   4.355   4.055 -0.3702  0.3894 -1.1135
  831SOL    HW2 3307   7.873   4.441   4.094 -0.5432 -0.3208  1.0178
  832SOL     OW 3308   0.398   0.417   2.890 -0.0187 -0.2136  0.6091
  832SOL    HW1 3309   0.400   0.438   2.797 -0.5039  0.5018  0.7545
  832SOL    HW2 3310   0.483   0.379   2.908 -0.2496 -1.1776 -0.3201
  833SOL     OW 3311   0.489   1.041   4.893 -0.0093 -0.3542 -0.7248
  833SOL    HW1 3312   0.489   1.036   4.989 -0.4578 -0.8246 -0.7501
  833SOL    HW2 3313   0.437   1.119   4.874  0.0911 -0.2521 -0.5910
  834SOL     OW 3314   4.673   4.793   7.508 -0.1335 -0.1254 -0.5208
  834SOL    HW1 3315   4.705   4.723   7.451  1.5578  0.5960 -0.4797
  834SOL    HW2 3316   4.686   4.873   7.457 -1.8328  0.1912 -0.4723
  835SOL     OW 3317   4.933   4.547   3.700  0.3439 -0.1732 -0.1172
  835SOL    HW1 3318   4.890   4.534   3.616 -1.7255 -1.0730  1.0498
  835SOL    HW2 3319   4.887   4.620   3.740 -0.0889 -1.0918  1.1096
  836SOL     OW 3320   4.383   2.898   3.180 -0.2178 -0.0979 -0.3639
  836SOL    HW1 3321   4.374   2.985   3.140  1.1133  0.1115 -0.2290
  836SOL    HW2 3322   4.446   2.911   3.251 -2.3388 -0.5070  1.6753
  837SOL     OW 3323   7.612   7.884   1.635  0.3217  0.2443  0.1061
  837SOL    HW1 3324   7.625   7.912   1.725 -0.9084  1.2141 -0.0027
  837SOL    HW2 3325   7.649   7.955   1.582 -3.3870  2.0757 -0.1742
  838SOL     OW 3326   3.924   2.651   4.298 -0.3749 -0.8088  0.2792
  838SOL    HW1 3327   3.952   2.649   4.389 -0.8076 -0.0169  0.4413
  838SOL    HW2 3328   3.882   2.737   4.288 -0.8669 -1.1299 -0.4989
  839SOL     OW 3329   7.087   1.484   1.964  0.5491  0.3217 -0.5266
  839SOL    HW1 3330   7.101   1.429   2.040 -0.7810  0.4453 -0.1807
  839SOL    HW2 3331   7.158   1.548   1.967 -1.1670  2.2193  2.3359
  840SOL     OW 3332   3.334   6.580   3.487  0.2961 -0.1368 -0.0900
  840SOL    HW1 3333   3.372   6.618   3.409 -2.9326  0.4837 -1.4286
  840SOL    HW2 3334   3.326   6.653   3.549 -0.3031  0.1008 -0.4449
  841SOL     OW 3335   3.852   1.366   3.978 -0.1233  0.2672 -0.8473
  841SOL    HW1 3336   3.814   1.379   4.065 -1.2239 -1.8148 -1.0067
  841SOL    HW2 3337   3.818   1.439   3.926 -1.9983 -0.2573 -0.3706
  842SOL     OW 3338   7.845   6.939   0.232  0.1014 -0.2762  0.1301
  842SOL    HW1 3339   7.937   6.964   0.237 -0.3917  1.6783 -0.0816
  842SOL    HW2 3340   7.826   6.936   0.138 -1.0316  3.2913  0.1644
  843SOL     OW 3341   0.983   1.096   2.048  1.2146  0.4814 -0.1781
  843SOL    HW1 3342   1.065   1.112   2.001  1.4951  1.2248  0.5476
  843SOL    HW2 3343   0.987   1.004   2.072  0.6242 -0.1788 -2.4426
  844SOL     OW 3344   1.928   3.636   6.831 -0.2320  0.2910  0.3268
  844SOL    HW1 3345   1.858   3.630   6.895 -1.0929  1.2421 -0.5098
  844SOL    HW2 3346   1.945   3.730   6.822  0.1865  0.1482 -0.4877
  845SOL     OW 3347   4.394   6.174   6.457 -0.2424  0.1954  0.3264
  845SOL    HW1 3348   4.334   6.176   6.381  1.6569 -0.4974 -1.2270
  845SOL    HW2 3349   4.380   6.087   6.496 -0.1746 -0.0018 -0.0868
  846SOL     OW 3350   0.005   7.323   2.930 -0.0526 -0.1080  0.4249
  846SOL    HW1 3351  -0.007   7.360   2.843  0.1483  0.1018  0.4850
  846SOL    HW2 3352   0.041   7.395   2.982 -2.7740  0.5967  1.4116
  847SOL     OW 3353   1.831   3.138   6.402 -0.5207  0.1062 -0.0646
  847SOL    HW1 3354   1.749   3.156   6.356 -0.9768 -0.3446  0.5648
  847SOL    HW2 3355   1.868   3.063   6.356 -0.3333  0.4648 -0.5063
  848SOL     OW 3356   1.287   2.938   2.414  0.2463 -0.3588  0.7132
  848SOL    HW1 3357   1.209   2.993   2.404 -0.0284 -0.2087  3.2079
  848SOL    HW2 3358   1.340   2.955   2.337 -1.0012  1.5258  0.2584
  849SOL     OW 3359   2.080   2.887   5.084  0.2673  0.3817 -0.4851
  849SOL    HW1 3360   2.089   2.972   5.041 -2.2982  1.5489  1.1825
  849SOL    HW2 3361   2.010   2.844   5.036  0.0611  0.1124  0.0570
  850SOL     OW 3362   5.571   1.649   5.927  0.1789  0.5155  0.3750
  850SOL    HW1 3363   5.553   1.727   5.875  0.1381  0.5812  0.4873
  850SOL    HW2 3364   5.498   1.591   5.910  0.8317 -0.0068 -0.6925
  851SOL     OW 3365   0.673   2.373   2.327  0.0202  0.2639  0.3736
  851SOL    HW1 3366   0.638   2.380   2.416 -1.5589 -1.4984 -0.0645
  851SOL    HW2 3367   0.708   2.284   2.323  0.6657  0.5632 -0.5643
  852SOL     OW 3368   3.859   7.025   0.921 -0.1999 -0.1214  0.3556
  852SOL    HW1 3369   3.842   6.932   0.940  0.6289 -0.2551  0.4592
  852SOL    HW2 3370   3.793   7.048   0.855 -0.8016 -0.6190  0.7687
  853SOL     OW 3371   2.265   3.536   1.966  0.0336 -0.3898 -0.0051
  853SOL    HW1 3372   2.276   3.494   1.881 -2.5678 -0.8000 -0.1886
  853SOL    HW2 3373   2.285   3.628   1.951 -0.7098 -0.4119 -1.1230
  854SOL     OW 3374   7.845   1.220   6.265 -0.1542 -0.0622 -0.4514
  854SOL    HW1 3375   7.851   1.314   6.249  0.5971 -0.1003 -0.3971
  854SOL    HW2 3376   7.899   1.205   6.343  0.1270 -0.6136 -0.7474
  855SOL     OW 3377   3.390   0.887   3.181 -0.4757  0.2196  0.5231
  855SOL    HW1 3378   3.364   0.916   3.094  2.0165 -0.8022 -0.6122
  855SOL    HW2 3379   3.451   0.954   3.212  0.3300 -0.5150  0.5542
  856SOL     OW 3380   0.713   5.538   5.679  0.0451  0.3770  0.1058
  856SOL    HW1 3381   0.756   5.498   5.755 -0.7294  2.0201  1.4244
  856SOL    HW2 3382   0.620   5.520   5.693  0.0083 -0.4377 -1.1309
  857SOL     OW 3383   1.295   2.735   7.028  0.5584  0.4418  0.0308
  857SOL    HW1 3384   1.273   2.816   7.075 -0.6897 -0.0673  0.3526
  857SOL    HW2 3385   1.272   2.754   6.936  0.4083  0.5039  0.0809
  858SOL     OW 3386   6.981   1.388   6.365 -0.4350  1.5760  0.1063
  858SOL    HW1 3387   7.003   1.356   6.452 -1.3091 -0.2101 -0.3145
  858SOL    HW2 3388   6.887   1.407   6.370 -1.1170 -1.2426 -1.2409
  859SOL     OW 3389   2.588   7.921   1.669 -0.8373  1.0062 -0.2605
  859SOL    HW1 3390   2.659   7.870   1.706 -1.4329 -0.3486 -0.9680
  859SOL    HW2 3391   2.625   7.958   1.588 -0.5640  1.2915 -0.0056
  860SOL     OW 3392   1.429   3.870   1.988  0.6171  0.1748  0.2613
  860SOL    HW1 3393   1.415   3.794   1.931  2.1640 -0.5884  0.8676
  860SOL    HW2 3394   1.359   3.864   2.053  0.0171 -0.0563 -0.3941
  861SOL     OW 3395   7.108   1.509   2.948  0.3544 -0.4572  0.3777
  861SOL    HW1 3396   7.197   1.480   2.967  0.3758 -0.1719  0.7143
  861SOL    HW2 3397   7.065   1.512   3.033  0.8419  2.1457  0.5502
  862SOL     OW 3398   2.883   3.369   4.457 -0.2010 -0.5184 -0.4236
  862SOL    HW1 3399   2.799   3.344   4.495 -0.9413  1.2045 -0.8576
  862SOL    HW2 3400   2.929   3.412   4.529 -0.1647 -0.4169 -0.5080
  863SOL     OW 3401   4.249   2.659   6.836 -0.2081  0.2380 -0.5893
  863SOL    HW1 3402   4.270   2.640   6.927  1.6798 -0.3225 -1.1116
  863SOL    HW2 3403   4.157   2.633   6.826 -0.0307 -0.9931  0.7941
  864SOL     OW 3404   2.996   0.361   5.955 -0.9415  0.2322 -0.6504
  864SOL    HW1 3405   2.957   0.273   5.962 -1.8557  0.7098  0.5043
  864SOL    HW2 3406   2.920   0.420   5.958 -0.1136  1.2256  2.4733
  865SOL     OW 3407   1.509   6.609   6.514  0.1231  0.2683 -0.8354
  865SOL    HW1 3408   1.501   6.523   6.472  0.3560  0.2542 -0.8516
  865SOL    HW2 3409   1.487   6.672   6.446  0.3353  0.2388 -0.9315
  866SOL     OW 3410   4.227   4.436   5.886  0.5469 -0.3013 -0.3287
  866SOL    HW1 3411   4.190   4.356   5.924 -0.8232 -0.4871 -2.0029
  866SOL    HW2 3412   4.322   4.426   5.898  0.2598 -1.1885  1.3492
  867SOL     OW 3413   5.838   0.615   5.513 -0.2692 -0.3977  0.3223
  867SOL    HW1 3414   5.743   0.606   5.502 -0.2799 -0.2995  0.3283
  867SOL    HW2 3415   5.875   0.584   5.430 -0.2056 -2.3469  1.0481
  868SOL     OW 3416   7.891   6.122   5.893 -0.1956 -0.2346 -0.1295
  868SOL    HW1 3417   7.957   6.074   5.843  0.1769  2.5462 -2.4883
  868SOL    HW2 3418   7.807   6.084   5.865  0.2032 -0.9604 -0.3453
  869SOL     OW 3419   4.329   3.483   2.724 -0.4520 -0.1425  0.1425
  869SOL    HW1 3420   4.407   3.505   2.774  0.5617  1.8699 -2.2220
  869SOL    HW2 3421   4.271   3.558   2.736  0.1064  0.7219 -2.2263
  870SOL     OW 3422   5.894   4.295   1.911 -0.5480 -0.3821  0.4791
  870SOL    HW1 3423   5.933   4.347   1.981 -2.1331  0.1857  0.9743
  870SOL    HW2 3424   5.867   4.214   1.955  0.6930 -1.0647 -0.0057
  871SOL     OW 3425   4.174   2.625   5.054 -0.0507 -0.0530  0.9230
  871SOL    HW1 3426   4.144   2.580   5.132  1.5040  0.7349  2.0028
  871SOL    HW2 3427   4.245   2.681   5.084  0.5485  0.2956 -1.0441
  872SOL     OW 3428   5.253   2.110   0.074 -0.3899  0.0495 -0.0365
  872SOL    HW1 3429   5.174   2.056   0.080  0.0500 -0.6432 -0.3808
  872SOL    HW2 3430   5.307   2.080   0.147 -0.3490  0.3662  0.0624
  873SOL     OW 3431   5.420   6.346   0.631 -0.8478 -0.1310  0.2369
  873SOL    HW1 3432   5.499   6.295   0.616 -1.0514 -0.3789  0.0058
  873SOL    HW2 3433   5.349   6.281   0.631 -1.0036  0.0381  0.8580
  874SOL     OW 3434   3.963   7.874   4.502  0.6635  0.5002  0.2446
  874SOL    HW1 3435   4.018   7.946   4.472  0.4321  0.4871 -0.2110
  874SOL    HW2 3436   3.917   7.908   4.579  1.1638  0.5710  0.5134
  875SOL     OW 3437   4.457   4.140   0.769 -0.1614  0.2784  0.3279
  875SOL    HW1 3438   4.508   4.197   0.827 -0.4345  0.9334 -0.0745
  875SOL    HW2 3439   4.441   4.193   0.691 -2.4243  0.4738  0.9015
  876SOL     OW 3440   3.184   3.826   4.757  0.3886 -0.0658 -0.7313
  876SOL    HW1 3441   3.270   3.829   4.716  1.9044  0.6125  2.3568
  876SOL    HW2 3442   3.172   3.914   4.793 -0.8566 -0.6390  0.2958
  877SOL     OW 3443   3.143   6.174   5.514  0.3542  0.6733  0.2375
  877SOL    HW1 3444   3.072   6.221   5.558 -0.1791  0.3573 -0.2871
  877SOL    HW2 3445   3.132   6.195   5.422 -1.1103 -2.0627 -0.2707
  878SOL     OW 3446   4.972   0.933   5.899  0.2340 -0.2564  0.3930
  878SOL    HW1 3447   4.932   0.987   5.831 -2.9831  0.1329  2.4721
  878SOL    HW2 3448   5.022   0.867   5.851 -2.9009 -0.7128 -2.4059
  879SOL     OW 3449   1.510   3.201   4.742 -0.2557 -0.3517  0.1809
  879SOL    HW1 3450   1.541   3.111   4.746  1.0404 -0.0231 -1.5674
  879SOL    HW2 3451   1.544   3.242   4.821  0.6546 -0.9592  0.1165
  880SOL     OW 3452   5.180   7.321   0.684  0.3505  0.1850  0.0765
  880SOL    HW1 3453   5.250   7.371   0.727 -0.4145  1.1714  0.1997
  880SOL    HW2 3454   5.104   7.333   0.741 -0.3353  0.4225 -0.8706
  881SOL     OW 3455   4.709   1.327   1.181 -0.3435  0.3706 -0.2771
  881SOL    HW1 3456   4.726   1.336   1.088  3.0984  1.8831  0.4023
  881SOL    HW2 3457   4.718   1.233   1.199 -1.3743  0.0279 -1.4895
  882SOL     OW 3458   3.948   5.785   2.871 -0.3437  0.1904 -0.3970
  882SOL    HW1 3459   3.883   5.724   2.906 -1.1509  1.3709  0.1773
  882SOL    HW2 3460   3.988   5.825   2.948  1.1078 -0.5514 -0.7436
  883SOL     OW 3461   3.753   7.389   2.754  0.0878  0.5260 -0.0531
  883SOL    HW1 3462   3.672   7.432   2.726  0.3450  2.7612  2.4028
  883SOL    HW2 3463   3.823   7.448   2.725  0.6226  0.2748  0.7205
  884SOL     OW 3464   6.022   0.093   4.951 -0.4405  0.1403  0.5377
  884SOL    HW1 3465   6.112   0.071   4.928 -1.0263 -1.2818 -0.4718
  884SOL    HW2 3466   5.973   0.081   4.870 -1.2173  2.8199  0.5938
  885SOL     OW 3467   1.555   0.525   2.698 -0.1305  0.2293  0.4067
  885SOL    HW1 3468   1.641   0.485   2.712  0.1002  1.0066  1.2641
  885SOL    HW2 3469   1.567   0.617   2.721 -1.3884  0.1688  1.3786
  886SOL     OW 3470   6.577   1.858   7.566  0.0865 -0.7101 -0.2686
  886SOL    HW1 3471   6.542   1.944   7.588 -0.1544 -0.9274  0.1888
  886SOL    HW2 3472   6.654   1.877   7.512 -1.7780 -0.2270 -2.9049
  887SOL     OW 3473   2.923   3.487   6.954 -0.2739  0.3540  0.2930
  887SOL    HW1 3474   2.981   3.562   6.941  0.2448 -0.4000 -2.1829
  887SOL    HW2 3475   2.947   3.452   7.039 -0.1348  2.6513  1.2343
  888SOL     OW 3476   7.276   7.977   3.668 -0.0986  0.2065 -0.5951
  888SOL    HW1 3477   7.240   7.953   3.582 -1.2776  0.6194 -0.2229
  888SOL    HW2 3478   7.299   7.893   3.708 -1.3112 -0.0996 -0.5477
  889SOL     OW 3479   1.059   4.656   1.114  0.0385  0.3160 -0.4148
  889SOL    HW1 3480   1.000   4.705   1.171  1.6539  1.4157  0.3207
  889SOL    HW2 3481   1.073   4.573   1.160 -0.5560  0.2344 -0.3735
  890SOL     OW 3482   2.744   3.090   7.054  0.5998 -0.3966 -0.0269
  890SOL    HW1 3483   2.695   3.009   7.041  0.7291 -0.0680 -2.6525
  890SOL    HW2 3484   2.683   3.147   7.101 -0.8811 -0.6685 -1.5730
  891SOL     OW 3485   4.659   5.574   6.931 -0.1884  0.7763  0.4314
  891SOL    HW1 3486   4.712   5.651   6.914 -1.0657  1.2189 -0.3211
  891SOL    HW2 3487   4.589   5.577   6.865  0.8032 -1.6161 -0.7994
  892SOL     OW 3488   5.589   6.346   3.486 -0.4080  0.5188 -0.3234
  892SOL    HW1 3489   5.499   6.366   3.461 -0.7921  1.0676  1.4143
  892SOL    HW2 3490   5.619   6.426   3.530  0.2303 -0.3989  0.9320
  893SOL     OW 3491   4.667   1.943   2.796  0.1244 -0.2975  0.4390
  893SOL    HW1 3492   4.611   1.995   2.740 -1.4054 -2.0454  0.2974
  893SOL    HW2 3493   4.660   1.983   2.882 -0.7935 -0.0727  0.2635
  894SOL     OW 3494   3.654   1.494   7.899  0.2074  0.9003  0.1524
  894SOL    HW1 3495   3.612   1.547   7.831 -0.1412  1.6916  0.9705
  894SOL    HW2 3496   3.718   1.441   7.852 -1.5582 -0.1653 -1.0769
  895SOL     OW 3497   4.379   6.073   0.826 -0.4037  0.0697 -0.2150
  895SOL    HW1 3498   4.353   6.094   0.737  0.9315  0.2765 -0.5646
  895SOL    HW2 3499   4.451   6.011   0.817  0.0501  0.4469  0.7017
  896SOL     OW 3500   3.254   2.295   3.039 -0.1445 -0.1040  0.4747
  896SOL    HW1 3501   3.266   2.361   3.107  1.2480 -1.1360  1.2519
  896SOL    HW2 3502   3.340   2.255   3.028 -0.4991 -0.4036 -1.4369
  897SOL     OW 3503   5.334   6.235   1.551  0.5074  0.6135  0.2484
  897SOL    HW1 3504   5.405   6.223   1.614  0.8106 -2.5467 -0.5992
  897SOL    HW2 3505   5.255   6.204   1.597 -0.0689  2.5935  0.6279
  898SOL     OW 3506   7.458   7.734   0.029 -0.1033  0.3599  0.1389
  898SOL    HW1 3507   7.422   7.820   0.049  0.9702  0.7657  0.3287
  898SOL    HW2 3508   7.552   7.747   0.023  0.2457 -1.1149  1.8562
  899SOL     OW 3509   6.488   0.262   2.578 -0.5048  0.2919  0.1537
  899SOL    HW1 3510   6.411   0.288   2.629  2.0728  0.8397  3.9041
  899SOL    HW2 3511   6.485   0.167   2.577 -0.6245  0.2744  1.3131
  900SOL     OW 3512   5.744   0.945   2.023  0.0199  0.2176  0.4772
  900SOL    HW1 3513   5.785   0.876   1.970 -0.5134 -1.6631  2.4427
  900SOL    HW2 3514   5.809   1.014   2.027  0.7789 -0.3832 -1.1148
  901SOL     OW 3515   2.978   7.738   6.557  0.0023 -0.4407  0.0221
  901SOL    HW1 3516   2.980   7.643   6.545  1.8047 -0.8358  3.0317
  901SOL    HW2 3517   3.069   7.763   6.571 -0.3391  1.8913 -1.5913
  902SOL     OW 3518   4.266   0.356   2.867 -0.2457 -0.2082 -0.0235
  902SOL    HW1 3519   4.270   0.426   2.802  0.2796 -1.0320 -0.9029
  902SOL    HW2 3520   4.330   0.292   2.837  1.0936  0.0687  2.1461
  903SOL     OW 3521   7.491   1.170   2.714  0.2569 -0.8027 -0.1292
  903SOL    HW1 3522   7.557   1.152   2.647  1.0043  0.1333  0.3447
  903SOL    HW2 3523   7.535   1.228   2.776 -1.3444  0.6983 -0.3546
  904SOL     OW 3524   4.724   7.114   5.878  0.0631 -0.0459  0.2769
  904SOL    HW1 3525   4.741   7.086   5.788  0.6101 -1.3872  0.7811
  904SOL    HW2 3526   4.638   7.154   5.875 -0.0864 -0.4362 -0.7743
  905SOL     OW 3527   1.018   4.987   1.275  0.1348  0.1220  0.0717
  905SOL    HW1 3528   0.938   4.966   1.227 -0.1736 -0.3109  0.7802
  905SOL    HW2 3529   0.988   5.023   1.358  0.5997  4.6250 -1.5481
  906SOL     OW 3530   5.134   1.006   2.799  0.4937  0.3978  0.1467
  906SOL    HW1 3531   5.156   0.942   2.732 -0.0884  0.0912  0.2465
  906SOL    HW2 3532   5.041   1.025   2.785  0.7930  1.6440 -0.2387
  907SOL     OW 3533   2.761   3.191   3.848 -0.1081  0.7035 -0.0894
  907SOL    HW1 3534   2.701   3.216   3.918  1.7469 -0.4049  1.9590
  907SOL    HW2 3535   2.770   3.270   3.795 -0.0227  2.1858  2.0544
  908SOL     OW 3536   6.267   4.069   5.709 -0.1481  0.1688 -0.1871
  908SOL    HW1 3537   6.239   4.155   5.741 -3.2996 -0.2366 -1.6681
  908SOL    HW2 3538   6.288   4.083   5.617  0.1126 -0.4768 -0.2296
  909SOL     OW 3539   7.011   1.069   5.093 -0.0406 -0.5361  0.1689
  909SOL    HW1 3540   6.945   1.109   5.035  0.0522 -0.0884  0.3667
  909SOL    HW2 3541   7.094   1.108   5.066  0.1897 -1.3221 -0.2738
  910SOL     OW 3542   5.374   2.777   4.231 -0.0254  0.0351 -0.3661
  910SOL    HW1 3543   5.294   2.725   4.234 -0.4767  0.7651  0.2957
  910SOL    HW2 3544   5.435   2.730   4.288 -1.4651  1.9333  2.8406
  911SOL     OW 3545   2.475   3.260   2.576 -0.5286 -0.0606 -0.1448
  911SOL    HW1 3546   2.524   3.247   2.494 -0.7843  1.7777 -0.6103
  911SOL    HW2 3547   2.542   3.284   2.640 -0.5054 -0.1016 -0.1532
  912SOL     OW 3548   1.809   5.965   2.166  0.1188  0.2184  0.3749
  912SOL    HW1 3549   1.719   5.934   2.180 -0.4411  1.4046 -0.4946
  912SOL    HW2 3550   1.842   5.910   2.095 -1.1573  2.0887 -1.7282
  913SOL     OW 3551   5.687   4.650   1.067  0.2039 -0.0306 -0.4353
  913SOL    HW1 3552   5.716   4.730   1.023 -0.9905 -1.0520 -3.1734
  913SOL    HW2 3553   5.601   4.673   1.104  1.0498  0.7253  1.0783
  914SOL     OW 3554   2.500   7.961   1.950  0.1852 -0.0398 -0.4042
  914SOL    HW1 3555   2.515   7.989   1.859  0.2037  1.6399  0.0923
  914SOL    HW2 3556   2.587   7.935   1.981  0.1359 -0.8754 -0.9344
  915SOL     OW 3557   2.337   2.179   2.356 -0.3515  0.1294 -0.1228
  915SOL    HW1 3558   2.380   2.258   2.324  2.0979 -1.4167 -0.8683
  915SOL    HW2 3559   2.253   2.176   2.310 -1.2401  3.1335  1.2104
  916SOL     OW 3560   6.936   3.050   3.106  0.0165 -0.5526  0.2326
  916SOL    HW1 3561   6.852   3.027   3.067 -0.2802 -0.6239  0.8973
  916SOL    HW2 3562   6.954   3.138   3.075 -1.7126  0.6159  2.3565
  917SOL     OW 3563   3.151   1.982   5.666 -0.0228  0.4107 -0.2754
  917SOL    HW1 3564   3.099   1.933   5.729  0.0105  0.8017  0.0607
  917SOL    HW2 3565   3.134   2.074   5.687  0.3198  0.5413 -0.5626
  918SOL     OW 3566   7.059   1.866   2.859 -0.4908  0.1403 -0.0754
  918SOL    HW1 3567   7.066   1.957   2.831 -1.2977 -0.0411 -0.8816
  918SOL    HW2 3568   6.997   1.827   2.798 -1.3130 -0.5792  1.2087
  919SOL     OW 3569   3.801   7.863   5.460 -0.3728 -0.0848 -0.5890
  919SOL    HW1 3570   3.741   7.895   5.392  0.9032 -0.7706 -2.0762
  919SOL    HW2 3571   3.745   7.821   5.524 -1.8736  2.9013  0.1670
  920SOL     OW 3572   0.054   5.024   4.295 -0.2122 -0.9896 -0.0905
  920SOL    HW1 3573   0.010   5.097   4.252 -2.6855 -2.3164  0.0570
  920SOL    HW2 3574   0.048   5.043   4.389 -0.5378 -1.2059 -0.0672
  921SOL     OW 3575   2.519   0.079   4.075  0.7342  0.3005  0.2987
  921SOL    HW1 3576   2.589   0.143   4.088  1.7506 -0.5258 -0.8958
  921SOL    HW2 3577   2.535   0.044   3.987 -2.1222  1.1888 -0.6277
  922SOL     OW 3578   1.462   7.531   5.708  0.4441 -0.0650 -0.3302
  922SOL    HW1 3579   1.525   7.501   5.773  0.5078 -0.1936 -0.4482
  922SOL    HW2 3580   1.501   7.609   5.669  2.0983 -2.0017 -2.7258
  923SOL     OW 3581   5.757   4.261   4.430 -0.3329 -0.1697  0.2899
  923SOL    HW1 3582   5.790   4.350   4.427 -1.2682  0.1842  0.2861
  923SOL    HW2 3583   5.806   4.219   4.501  0.9913 -0.0203 -0.5422
  924SOL     OW 3584   7.437   1.229   6.957  0.3861 -0.0480  0.5173
  924SOL    HW1 3585   7.466   1.296   6.895 -3.9627  1.8392  0.3332
  924SOL    HW2 3586   7.419   1.153   6.902  0.8484  0.1498  0.0844
  925SOL     OW 3587   1.465   5.899   2.841  0.6918 -0.6338  0.6653
  925SOL    HW1 3588   1.551   5.879   2.879  1.0494  0.9481  0.7282
  925SOL    HW2 3589   1.412   5.928   2.916  0.6236  0.0299  0.3605
  926SOL     OW 3590   5.117   6.801   5.481 -0.1455 -0.3291 -0.2443
  926SOL    HW1 3591   5.154   6.851   5.554  1.0270 -0.2736 -0.8595
  926SOL    HW2 3592   5.179   6.728   5.468 -0.3849 -0.3791 -1.1321
  927SOL     OW 3593   4.511   1.864   6.152  0.1723 -0.0068 -0.1628
  927SOL    HW1 3594   4.576   1.832   6.089  0.7517 -2.4726  1.6067
  927SOL    HW2 3595   4.432   1.813   6.132  0.3259 -0.7160  0.9803
  928SOL     OW 3596   1.110   0.439   7.335 -0.4494 -0.2465 -0.3196
  928SOL    HW1 3597   1.166   0.412   7.408  0.1485 -1.1274 -1.0903
  928SOL    HW2 3598   1.037   0.377   7.338  1.0509 -2.1839 -2.2450
  929SOL     OW 3599   6.836   0.957   3.229  0.5014  0.4150  0.2227
  929SOL    HW1 3600   6.762   0.898   3.246  0.0517  1.0565  0.4843
  929SOL    HW2 3601   6.865   0.933   3.141 -0.1929  0.3502  0.0074
  930SOL     OW 3602   5.662   6.636   7.606 -0.1308 -0.1868  0.0613
  930SOL    HW1 3603   5.587   6.695   7.611 -2.4428 -3.0715  0.9163
  930SOL    HW2 3604   5.683   6.616   7.698  0.4046 -0.9275 -0.2130
  931SOL     OW 3605   4.320   5.524   6.211 -0.0322  0.1003  0.1152
  931SOL    HW1 3606   4.303   5.612   6.180  0.5907  0.1314 -0.1411
  931SOL    HW2 3607   4.301   5.468   6.136  0.6672  0.1076 -0.0659
  932SOL     OW 3608   0.069   1.092   1.641  0.3759  0.1555  0.5617
  932SOL    HW1 3609   0.157   1.088   1.604  0.3504 -2.2839  0.7193
  932SOL    HW2 3610   0.026   1.163   1.592  1.3426 -0.8866 -1.8890
  933SOL     OW 3611   3.722   6.504   7.904  0.2704  0.2479  0.4699
  933SOL    HW1 3612   3.707   6.416   7.870 -2.2576  0.9304 -0.2988
  933SOL    HW2 3613   3.780   6.545   7.840 -1.8398  0.4580 -1.3509
  934SOL     OW 3614   4.120   4.138   1.881  0.0196 -0.9256  0.0345
  934SOL    HW1 3615   4.178   4.214   1.881  0.6662 -1.4084 -0.3385
  934SOL    HW2 3616   4.086   4.134   1.970  1.1521 -1.0707  0.4804
  935SOL     OW 3617   2.358   3.749   4.342 -0.0347 -0.1497 -0.1855
  935SOL    HW1 3618   2.447   3.755   4.377 -0.2729 -0.5584  0.5161
  935SOL    HW2 3619   2.303   3.789   4.411 -0.1363  2.4759 -1.7263
  936SOL     OW 3620   6.368   1.013   3.322 -0.7721 -0.0746 -0.4671
  936SOL    HW1 3621   6.440   1.032   3.382 -0.8787 -0.6882 -0.1465
  936SOL    HW2 3622   6.296   1.068   3.353 -0.2385  1.0870 -1.2172
  937SOL     OW 3623   0.976   7.015   0.026  0.0572 -0.3162 -0.1650
  937SOL    HW1 3624   0.988   7.094  -0.027  0.9103 -1.4465 -1.7093
  937SOL    HW2 3625   0.882   7.001   0.028 -0.1549  1.1404  0.7331
  938SOL     OW 3626   4.491   2.618   7.388 -0.2097  0.2563  0.0005
  938SOL    HW1 3627   4.558   2.682   7.364  0.9529 -0.4656  1.3046
  938SOL    HW2 3628   4.524   2.575   7.467 -2.9827  1.1204  1.7438
  939SOL     OW 3629   2.275   3.421   2.981  0.2930 -0.4974  0.0562
  939SOL    HW1 3630   2.186   3.422   3.016  0.1355 -0.3648 -0.3457
  939SOL    HW2 3631   2.329   3.456   3.052 -0.1733  0.8661 -0.2460
  940SOL     OW 3632   2.819   5.013   6.443  0.3769 -0.4144  0.1012
  940SOL    HW1 3633   2.797   5.059   6.524 -0.2422 -0.2347 -0.1644
  940SOL    HW2 3634   2.879   4.944   6.470  0.1282 -0.3917  0.7201
  941SOL     OW 3635   4.526   7.199   7.924  0.0393  0.0309 -0.2769
  941SOL    HW1 3636   4.621   7.208   7.929 -0.0262 -0.3787  2.1742
  941SOL    HW2 3637   4.496   7.286   7.896  0.9592  0.9810  1.5912
  942SOL     OW 3638   7.157   7.359   1.396  0.4954 -0.0043 -0.1792
  942SOL    HW1 3639   7.222   7.291   1.378  1.2931  0.7097 -0.0399
  942SOL    HW2 3640   7.201   7.417   1.459 -1.3354 -1.1385  2.2314
  943SOL     OW 3641   5.350   2.931   5.975 -0.5519  0.3260 -0.1534
  943SOL    HW1 3642   5.312   2.986   6.044 -0.6936  0.8626 -0.6489
  943SOL    HW2 3643   5.376   2.851   6.020 -2.5027 -0.1551  0.1467
  944SOL     OW 3644   3.980   4.172   5.294 -0.5160 -0.6148  0.1883
  944SOL    HW1 3645   4.031   4.251   5.314  0.8117 -1.0760 -1.2699
  944SOL    HW2 3646   3.898   4.184   5.342  0.7705  0.3567  2.2469
  945SOL     OW 3647   1.974   2.204   6.383  0.2370  0.1639 -0.6663
  945SOL    HW1 3648   1.940   2.191   6.294  0.3571  0.7934 -0.8100
  945SOL    HW2 3649   1.959   2.120   6.427 -1.4416  0.3866 -0.7489
  946SOL     OW 3650   6.244   4.125   4.462  0.2006  0.2410 -0.1401
  946SOL    HW1 3651   6.340   4.129   4.462  0.2302 -0.4550 -0.3677
  946SOL    HW2 3652   6.217   4.214   4.484  0.9061 -0.1370  2.3793
  947SOL     OW 3653   5.058   1.315   7.808 -0.0820 -0.6233 -0.1225
  947SOL    HW1 3654   4.990   1.317   7.740 -1.2162 -1.8966  0.9331
  947SOL    HW2 3655   5.051   1.400   7.851  0.3594  0.0283 -1.3234
  948SOL     OW 3656   5.105   1.948   4.061 -0.1428  0.2116 -0.1469
  948SOL    HW1 3657   5.028   1.997   4.090 -0.1410 -0.4519  1.0382
  948SOL    HW2 3658   5.166   2.015   4.031 -0.5242  0.8663  0.5108
  949SOL     OW 3659   3.999   7.635   1.898  0.7115 -0.5738  0.3742
  949SOL    HW1 3660   4.091   7.630   1.872  0.4463 -1.8536 -0.3822
  949SOL    HW2 3661   3.987   7.725   1.926  2.1688 -0.3566  0.3635
  950SOL     OW 3662   3.053   1.571   4.886  0.1012 -0.5007 -0.3267
  950SOL    HW1 3663   3.066   1.499   4.824  1.7498 -1.6916  1.3507
  950SOL    HW2 3664   3.139   1.613   4.892 -0.0992 -0.2595  0.9765
  951SOL     OW 3665   7.338   7.510   1.068 -0.1523 -0.2378 -0.5364
  951SOL    HW1 3666   7.249   7.529   1.095 -0.2471 -0.8649 -0.3841
  951SOL    HW2 3667   7.372   7.592   1.033  0.0268  0.6646  1.6619
  952SOL     OW 3668   0.798   2.761   3.833 -0.7954  0.5062  0.3194
  952SOL    HW1 3669   0.819   2.747   3.925 -2.2936 -1.0878  0.4419
  952SOL    HW2 3670   0.759   2.679   3.804  1.0742  0.4239 -2.1613
  953SOL     OW 3671   5.472   5.225   6.882  0.4535 -0.0980 -0.8839
  953SOL    HW1 3672   5.425   5.142   6.878  0.1720  0.0125  0.0090
  953SOL    HW2 3673   5.408   5.291   6.857 -0.1626  0.1559  1.2505
  954SOL     OW 3674   7.869   4.625   2.560  0.6203  0.1686 -0.3416
  954SOL    HW1 3675   7.859   4.645   2.466 -2.0830 -0.3709 -0.1888
  954SOL    HW2 3676   7.875   4.712   2.601  1.1068  0.4197 -0.9181
  955SOL     OW 3677   6.741   5.165   0.541 -0.3818  0.0982 -0.4024
  955SOL    HW1 3678   6.764   5.253   0.508  2.4721  0.7205  2.9436
  955SOL    HW2 3679   6.677   5.182   0.609  1.8452 -0.1470  1.8119
  956SOL     OW 3680   3.769   0.268   0.044  0.1994  0.4589  0.2692
  956SOL    HW1 3681   3.771   0.320  -0.036  0.1684  0.2263  0.1146
  956SOL    HW2 3682   3.856   0.279   0.082  0.5941 -0.3254 -0.3803
  957SOL     OW 3683   5.314   5.301   5.928  0.0112 -0.0440 -0.0698
  957SOL    HW1 3684   5.402   5.265   5.921  1.1448  2.8550 -1.6068
  957SOL    HW2 3685   5.310   5.340   6.015  1.1297  1.8832 -0.8429
  958SOL     OW 3686   1.476   7.655   6.338  0.0178  0.1383 -0.7247
  958SOL    HW1 3687   1.570   7.659   6.356 -0.1396 -1.6734  0.6651
  958SOL    HW2 3688   1.436   7.635   6.423 -1.9273  3.7884 -0.6427
  959SOL     OW 3689   3.952   0.492   2.991  0.4211  0.1454 -0.1775
  959SOL    HW1 3690   4.015   0.423   2.974 -1.0179 -0.4243 -3.6756
  959SOL    HW2 3691   3.867   0.448   2.993 -0.3397  1.5451 -0.6400
  960SOL     OW 3692   0.470   2.482   6.594 -0.0444 -0.2324 -0.5435
  960SOL    HW1 3693   0.486   2.538   6.518 -0.1375 -0.5211 -0.7769
  960SOL    HW2 3694   0.532   2.513   6.660  0.4293 -0.3430 -0.9282
  961SOL     OW 3695   2.270   4.718   5.315  0.2678 -0.2900 -0.3783
  961SOL    HW1 3696   2.208   4.668   5.261  1.5767 -1.1442 -1.1298
  961SOL    HW2 3697   2.321   4.769   5.252  2.6398 -2.2255 -0.0995
  962SOL     OW 3698   0.338   5.243   6.613  0.0297  0.2981 -0.2862
  962SOL    HW1 3699   0.342   5.172   6.548 -0.9822 -0.0046 -0.0248
  962SOL    HW2 3700   0.391   5.211   6.686  0.0382  0.0484 -0.3994
  963SOL     OW 3701   0.864   4.804   6.305  0.0580 -0.4973  0.2531
  963SOL    HW1 3702   0.842   4.736   6.242  2.3424 -0.3278 -0.7576
  963SOL    HW2 3703   0.941   4.847   6.269  0.0381  1.1050  2.0328
  964SOL     OW 3704   1.557   0.423   3.925 -0.0778 -0.1824  0.2011
  964SOL    HW1 3705   1.624   0.490   3.939  0.0160  0.0252 -1.1012
  964SOL    HW2 3706   1.477   0.461   3.961  0.2427  0.0904  0.6327
  965SOL     OW 3707   6.312   7.197   4.091 -0.0779  0.3948  0.3282
  965SOL    HW1 3708   6.299   7.124   4.150  0.5452  0.3973  0.4747
  965SOL    HW2 3709   6.261   7.269   4.129  0.8318  0.5831  1.2156
  966SOL     OW 3710   7.364   6.359   5.980  0.2948  0.1960 -1.0771
  966SOL    HW1 3711   7.350   6.286   6.040  2.5581 -0.5819 -1.4222
  966SOL    HW2 3712   7.280   6.405   5.978 -0.2370 -0.5483  1.6011
  967SOL     OW 3713   3.326   0.133   5.843 -0.7645  0.1565  0.2733
  967SOL    HW1 3714   3.323   0.087   5.759  1.6788 -0.1699  0.3083
  967SOL    HW2 3715   3.347   0.223   5.820 -1.3610  0.3477  0.4678
  968SOL     OW 3716   1.198   0.621   6.508  0.6204  0.1042  0.1661
  968SOL    HW1 3717   1.220   0.534   6.475 -1.2114  0.4642 -2.2007
  968SOL    HW2 3718   1.257   0.680   6.462  0.1760  0.3226 -0.1326
  969SOL     OW 3719   3.349   7.770   7.062  0.4311  0.2522  0.1658
  969SOL    HW1 3720   3.368   7.720   6.982  0.9768 -0.2711  0.6203
  969SOL    HW2 3721   3.421   7.750   7.121  0.1559  0.8318  0.7068
  970SOL     OW 3722   2.721   0.920   0.417  0.0691  0.2242 -0.1315
  970SOL    HW1 3723   2.640   0.895   0.461 -0.2631  2.0679  0.3381
  970SOL    HW2 3724   2.783   0.937   0.488  0.4349  0.2532 -0.4531
  971SOL     OW 3725   6.284   0.610   0.487 -0.3188 -0.5919 -0.4945
  971SOL    HW1 3726   6.279   0.649   0.400 -1.2758 -0.5230 -0.4086
  971SOL    HW2 3727   6.328   0.677   0.540 -1.9268  0.3851 -0.3607
  972SOL     OW 3728   1.026   6.215   0.608  0.4418  0.1871 -0.1364
  972SOL    HW1 3729   0.981   6.240   0.689 -0.1544 -0.0867 -0.3756
  972SOL    HW2 3730   1.118   6.233   0.624  0.4317 -0.6415  0.9034
  973SOL     OW 3731   0.109   4.942   0.042  0.5812 -0.3050  0.2638
  973SOL    HW1 3732   0.159   4.863   0.023 -2.1783 -2.1969  0.5508
  973SOL    HW2 3733   0.050   4.952  -0.033 -0.8222  0.0317  1.3758
  974SOL     OW 3734   1.371   0.549   1.622 -0.0026  0.1747 -0.4079
  974SOL    HW1 3735   1.292   0.596   1.648  0.0683  0.5733 -0.9073
  974SOL    HW2 3736   1.419   0.534   1.704 -0.5209  0.0661 -0.1268
  975SOL     OW 3737   3.273   6.851   4.518  0.3202 -0.3268 -0.2338
  975SOL    HW1 3738   3.180   6.873   4.505  0.6707 -0.2533 -2.8938
  975SOL    HW2 3739   3.282   6.842   4.612 -2.2248  0.4837  0.1363
  976SOL     OW 3740   4.061   3.192   7.474 -0.2597 -0.3137  0.3905
  976SOL    HW1 3741   4.104   3.120   7.427 -1.3655 -1.8315  1.6867
  976SOL    HW2 3742   4.111   3.201   7.555  1.6780  2.3413 -1.0241
  977SOL     OW 3743   1.675   5.571   2.361  0.2986  0.5401 -0.3209
  977SOL    HW1 3744   1.668   5.577   2.456 -0.5276  2.2881 -0.4596
  977SOL    HW2 3745   1.768   5.584   2.343  0.1056  2.9020  0.1320
  978SOL     OW 3746   7.643   0.785   3.566  0.2588  0.1019 -0.1261
  978SOL    HW1 3747   7.622   0.839   3.642  1.3809 -0.4023  0.5542
  978SOL    HW2 3748   7.656   0.697   3.601  2.1410  0.1291 -0.6974
  979SOL     OW 3749   0.111   0.658   7.247  0.0805  0.3223  0.3968
  979SOL    HW1 3750   0.177   0.592   7.223 -0.7352 -0.3502 -0.0350
  979SOL    HW2 3751   0.162   0.735   7.270  1.0418 -0.3195  0.4766
  980SOL     OW 3752   1.706   4.620   5.453  0.2268 -0.1715  0.6465
  980SOL    HW1 3753   1.649   4.644   5.380 -0.0130  0.1128  0.9277
  980SOL    HW2 3754   1.795   4.626   5.418  0.0907 -0.4694  0.2507
  981SOL     OW 3755   3.205   1.751   1.012  0.0881 -0.0461  0.8009
  981SOL    HW1 3756   3.289   1.739   1.056 -0.2503 -1.1905  1.1394
  981SOL    HW2 3757   3.228   1.781   0.924  0.8315 -0.0045  1.0058
  982SOL     OW 3758   7.662   6.236   2.992 -0.5037 -0.6612 -0.0019
  982SOL    HW1 3759   7.593   6.263   2.932  2.2021  2.0932 -2.0434
  982SOL    HW2 3760   7.711   6.169   2.945  0.1886 -0.2224  0.0866
  983SOL     OW 3761   3.845   1.641   5.967 -0.2738  0.1158 -0.1320
  983SOL    HW1 3762   3.923   1.601   6.006  0.7248  1.9471 -0.1816
  983SOL    HW2 3763   3.790   1.567   5.942  1.8384 -1.2398 -0.8979
  984SOL     OW 3764   7.754   4.919   5.363 -0.7660  0.1284 -0.0877
  984SOL    HW1 3765   7.848   4.933   5.379 -0.9916  0.3873  1.0728
  984SOL    HW2 3766   7.742   4.825   5.371 -0.1296 -0.2495 -2.9791
  985SOL     OW 3767   0.270   0.407   1.259 -0.6307  0.4082  0.1565
  985SOL    HW1 3768   0.290   0.462   1.182 -1.8810  1.0627  0.2829
  985SOL    HW2 3769   0.239   0.469   1.325 -0.5894 -0.2834  0.8279
  986SOL     OW 3770   6.310   4.249   0.357 -0.2305  0.1864 -0.6158
  986SOL    HW1 3771   6.284   4.293   0.276  0.5626 -1.6127 -1.8652
  986SOL    HW2 3772   6.296   4.156   0.339  0.3292 -0.2594  1.1867
  987SOL     OW 3773   6.262   4.956   1.936  0.3505 -0.6691  0.4492
  987SOL    HW1 3774   6.320   4.880   1.938 -2.1803 -2.7952 -1.5692
  987SOL    HW2 3775   6.281   5.004   2.016  5.0720 -1.0340 -0.3413
  988SOL     OW 3776   0.889   1.391   2.846 -0.2811 -0.1276 -0.4339
  988SOL    HW1 3777   0.848   1.475   2.864 -1.1493 -0.4080 -1.1052
  988SOL    HW2 3778   0.877   1.377   2.753 -0.2012 -1.0335 -0.3171
  989SOL     OW 3779   5.292   4.748   2.678 -0.0496 -0.2527 -0.0770
  989SOL    HW1 3780   5.289   4.812   2.608 -0.3643  1.3710  1.3874
  989SOL    HW2 3781   5.201   4.735   2.703  0.1460  0.1645  0.8911
  990SOL     OW 3782   0.423   7.233   5.654 -0.0817 -0.3985 -0.3795
  990SOL    HW1 3783   0.492   7.227   5.719 -0.8106 -0.3321  0.4142
  990SOL    HW2 3784   0.466   7.268   5.576  0.4300  1.2359  0.6209
  991SOL     OW 3785   0.297   5.459   0.432 -0.6635  0.1426 -0.3032
  991SOL    HW1 3786   0.239   5.511   0.377  0.2831 -1.2760 -2.7289
  991SOL    HW2 3787   0.376   5.447   0.379 -0.1638 -2.2098  0.8942
  992SOL     OW 3788   6.681   3.965   2.650 -0.4065 -0.4371 -0.0855
  992SOL    HW1 3789   6.596   3.942   2.612 -0.6431  0.5473 -0.1505
  992SOL    HW2 3790   6.733   3.992   2.574 -0.5119  0.4156  0.1507
  993SOL     OW 3791   3.994   5.839   1.978  0.2124  0.1161  0.3901
  993SOL    HW1 3792   4.077   5.883   1.996 -0.4113  1.4400  0.1197
  993SOL    HW2 3793   3.949   5.837   2.062  0.1217  0.2530  0.3452
  994SOL     OW 3794   3.601   6.944   7.142 -0.0508 -0.0460  0.4133
  994SOL    HW1 3795   3.624   6.891   7.066 -4.2843  0.9589 -1.7070
  994SOL    HW2 3796   3.670   7.010   7.147  2.5112 -2.6101  0.0287
  995SOL     OW 3797   7.075   3.871   0.561  0.5605  0.1624 -0.5514
  995SOL    HW1 3798   7.119   3.928   0.624  1.3033 -0.0172 -0.9010
  995SOL    HW2 3799   7.071   3.786   0.605 -1.5194  0.7221  0.4085
  996SOL     OW 3800   5.453   7.298   2.707 -0.1819  0.1189  0.0248
  996SOL    HW1 3801   5.482   7.357   2.777  0.2205  0.6739 -0.6050
  996SOL    HW2 3802   5.528   7.293   2.647 -0.5100 -0.3867 -0.3464
  997SOL     OW 3803   6.722   3.140   6.448 -0.5484 -0.5131  0.5590
  997SOL    HW1 3804   6.689   3.229   6.462  2.3051  0.4935  1.2494
  997SOL    HW2 3805   6.686   3.089   6.520 -0.5366  0.5802  1.3524
  998SOL     OW 3806   0.072   5.485   5.626  0.5209 -0.0847 -0.5371
  998SOL    HW1 3807   0.143   5.529   5.579  0.7759  0.0594 -0.0154
  998SOL    HW2 3808   0.108   5.400   5.651  0.5114 -0.0092 -0.2655
  999SOL     OW 3809   1.123   6.159   5.624 -0.4534 -0.0519  0.2038
  999SOL    HW1 3810   1.046   6.147   5.570  0.5028 -1.5265 -0.8638
  999SOL    HW2 3811   1.186   6.204   5.568  0.3519 -1.1046  0.2354
 1000SOL     OW 3812   1.960   2.318   2.508 -0.5212  0.1032  0.0861
 1000SOL    HW1 3813   1.893   2.316   2.440 -1.1936  0.4073  0.7209
 1000SOL    HW2 3814   1.941   2.242   2.563 -0.5591  0.3845  0.4651
 1001SOL     OW 3815   0.036   6.109   5.013  0.3478 -0.5695 -0.1822
 1001SOL    HW1 3816   0.084   6.038   5.057 -0.6016 -0.5219  0.9660
 1001SOL    HW2 3817   0.101   6.149   4.955  1.8908 -0.0974  1.8129
 1002SOL     OW 3818   1.626   5.737   4.969 -0.4436 -0.3310  0.2973
 1002SOL    HW1 3819   1.614   5.720   5.062  0.0920 -0.5024  0.3382
 1002SOL    HW2 3820   1.696   5.678   4.942 -0.3257 -0.0078 -0.1256
 1003SOL     OW 3821   7.050   1.454   3.235  0.0164 -0.1257  0.1188
 1003SOL    HW1 3822   7.137   1.492   3.250  0.4576 -1.0105 -0.1433
 1003SOL    HW2 3823   6.989   1.516   3.275  0.6291  1.4525 -1.3572
 1004SOL     OW 3824   6.067   7.204   7.524 -0.1250  0.0044  0.1337
 1004SOL    HW1 3825   6.082   7.110   7.535  1.0943  0.1394 -0.3686
 1004SOL    HW2 3826   6.153   7.244   7.532 -0.1524  0.7923 -2.8201
 1005SOL     OW 3827   5.442   3.805   4.155  0.0606  0.0463 -0.4219
 1005SOL    HW1 3828   5.507   3.752   4.201  1.5487  1.7183 -0.5261
 1005SOL    HW2 3829   5.491   3.849   4.085 -1.5174  0.0707 -1.5397
 1006SOL     OW 3830   1.061   6.019   1.133  0.5699  0.4414 -0.0620
 1006SOL    HW1 3831   1.129   6.080   1.158 -0.2441  2.1167 -1.8274
 1006SOL    HW2 3832   1.095   5.975   1.055  0.8224 -0.7982  0.7353
 1007SOL     OW 3833   5.852   2.780   0.516 -0.0771 -0.3855  0.7207
 1007SOL    HW1 3834   5.935   2.799   0.560 -0.5991  0.1872  1.4813
 1007SOL    HW2 3835   5.789   2.838   0.559 -0.2573  1.6040 -2.0575
 1008SOL     OW 3836   0.054   3.174   7.226  0.0576 -0.3092 -0.0602
 1008SOL    HW1 3837   0.085   3.103   7.282 -2.1873 -0.7846  0.6109
 1008SOL    HW2 3838  -0.038   3.155   7.212 -0.3071  1.8867 -0.7752
 1009SOL     OW 3839   1.965   3.962   0.984 -0.6147 -0.2564 -0.1102
 1009SOL    HW1 3840   1.970   4.024   0.911 -0.7289 -0.0470  0.0581
 1009SOL    HW2 3841   1.898   3.899   0.958  0.7074 -1.3193 -1.0484
 1010SOL     OW 3842   0.799   4.714   2.062  0.5930  0.0106  0.0749
 1010SOL    HW1 3843   0.880   4.668   2.040  0.9119  0.4244  0.4067
 1010SOL    HW2 3844   0.823   4.775   2.132 -0.1838 -0.4918  0.7915
 1011SOL     OW 3845   2.719   3.703   5.845 -0.3061 -0.4700 -0.0286
 1011SOL    HW1 3846   2.734   3.771   5.780  0.9670 -1.2516 -0.5617
 1011SOL    HW2 3847   2.798   3.649   5.843  0.4209  0.3444  3.2271
 1012SOL     OW 3848   3.920   2.240   1.416  0.0461 -0.1288 -0.0596
 1012SOL    HW1 3849   3.945   2.235   1.324  0.9773  0.7050  0.1472
 1012SOL    HW2 3850   3.824   2.230   1.415  0.2018 -1.6759 -0.9796
 1013SOL     OW 3851   0.379   1.302   4.920 -0.1732  0.2819  0.2419
 1013SOL    HW1 3852   0.303   1.245   4.904 -0.4524  0.5034  0.7447
 1013SOL    HW2 3853   0.361   1.380   4.868 -0.2003  0.2552  0.2113
 1014SOL     OW 3854   4.465   0.267   2.163 -0.1315  0.7885  0.1097
 1014SOL    HW1 3855   4.476   0.204   2.234 -1.0320 -1.6448 -1.8564
 1014SOL    HW2 3856   4.389   0.319   2.189 -1.1596 -0.8276  0.4184
 1015SOL     OW 3857   6.581   1.219   3.204  0.2448  0.4414 -0.1920
 1015SOL    HW1 3858   6.554   1.309   3.220  1.2908  0.5681  0.9772
 1015SOL    HW2 3859   6.525   1.167   3.262  0.7066  0.4864  0.3045
 1016SOL     OW 3860   0.842   7.051   4.664  0.2511 -0.4013  0.3486
 1016SOL    HW1 3861   0.841   6.979   4.728  1.1045 -0.2705  0.5153
 1016SOL    HW2 3862   0.893   7.120   4.706 -0.1144  0.1046 -0.0314
 1017SOL     OW 3863   3.581   4.767   2.642  0.0359 -0.1794 -0.1047
 1017SOL    HW1 3864   3.597   4.691   2.586 -0.9494 -0.2103 -0.3710
 1017SOL    HW2 3865   3.496   4.748   2.683  0.5268  0.0660  1.0329
 1018SOL     OW 3866   2.304   3.158   0.113 -0.0138  0.1283 -0.0342
 1018SOL    HW1 3867   2.387   3.190   0.078 -0.2521 -0.3932 -1.1109
 1018SOL    HW2 3868   2.288   3.076   0.067 -1.6206  0.7285 -0.6102
 1019SOL     OW 3869   3.785   1.394   4.726 -0.5799 -0.0713  0.3643
 1019SOL    HW1 3870   3.834   1.390   4.808  1.0098 -2.2881 -0.6584
 1019SOL    HW2 3871   3.823   1.468   4.679  1.4759 -1.4670 -0.2139
 1020SOL     OW 3872   3.310   7.783   7.804 -0.7073  0.4360  0.0226
 1020SOL    HW1 3873   3.381   7.755   7.862 -0.2092  1.3648 -0.1319
 1020SOL    HW2 3874   3.329   7.875   7.785 -0.0532 -0.2515 -2.8250
 1021SOL     OW 3875   2.229   0.273   2.742 -0.2116 -0.0043 -0.2450
 1021SOL    HW1 3876   2.210   0.186   2.707  0.3471  0.1551 -0.9547
 1021SOL    HW2 3877   2.280   0.316   2.674 -1.1568  1.1686 -0.2366
 1022SOL     OW 3878   7.144   1.098   0.291  0.0399 -0.5671 -0.5631
 1022SOL    HW1 3879   7.066   1.143   0.258 -0.7841 -1.8453 -0.3903
 1022SOL    HW2 3880   7.127   1.089   0.385  2.0382  2.3890  0.1657
 1023SOL     OW 3881   2.576   5.730   4.839  0.4033  0.5154 -0.2563
 1023SOL    HW1 3882   2.656   5.783   4.849 -0.3172  1.9166 -1.6397
 1023SOL    HW2 3883   2.604   5.654   4.789  0.8671  1.0580 -0.8400
 1024SOL     OW 3884   5.709   3.441   3.803  0.4452  0.3001 -0.0912
 1024SOL    HW1 3885   5.692   3.465   3.712  0.9644  0.2207 -0.2117
 1024SOL    HW2 3886   5.668   3.511   3.854 -0.7692 -0.2089 -0.3491
 1025SOL     OW 3887   3.507   0.753   5.241 -0.4070 -0.7017  0.3527
 1025SOL    HW1 3888   3.435   0.711   5.194  0.0868 -0.2704 -0.7908
 1025SOL    HW2 3889   3.484   0.845   5.242 -0.5119 -0.7348  1.1350
 1026SOL     OW 3890   2.547   4.568   6.625  0.2641 -0.2861  0.1998
 1026SOL    HW1 3891   2.556   4.654   6.583  0.7656 -0.4372 -0.0079
 1026SOL    HW2 3892   2.622   4.563   6.684 -0.1891 -0.2657  0.7771
 1027SOL     OW 3893   7.374   5.505   2.330 -0.0321  0.4261  0.0520
 1027SOL    HW1 3894   7.363   5.419   2.370 -1.3058  1.0601  1.1043
 1027SOL    HW2 3895   7.468   5.520   2.330  0.2307 -1.0627 -0.3750
 1028SOL     OW 3896   3.409   7.053   6.554 -0.2803  0.2193  0.5630
 1028SOL    HW1 3897   3.369   7.003   6.483  0.1754  1.0134 -0.2726
 1028SOL    HW2 3898   3.452   7.126   6.510 -1.8479  1.9684  1.8555
 1029SOL     OW 3899   7.250   6.920   3.649  0.3212  0.1434 -0.3178
 1029SOL    HW1 3900   7.261   6.831   3.613 -0.4494 -0.2291  0.3730
 1029SOL    HW2 3901   7.167   6.950   3.612  0.2201  0.2963  0.0396
 1030SOL     OW 3902   4.970   6.482   3.829 -0.0870  0.4254 -0.1349
 1030SOL    HW1 3903   4.884   6.445   3.813 -0.3873  0.3949  1.4627
 1030SOL    HW2 3904   4.962   6.574   3.804 -0.7140  0.5248  0.4267
 1031SOL     OW 3905   7.069   1.939   4.220 -0.7294  0.1495  0.0174
 1031SOL    HW1 3906   7.025   1.856   4.200 -1.3792  0.9318 -1.8924
 1031SOL    HW2 3907   7.000   1.994   4.258 -0.7808  0.5112 -0.6034
 1032SOL     OW 3908   4.997   1.985   7.114  0.0707 -0.0161 -0.2142
 1032SOL    HW1 3909   4.951   1.967   7.196  0.9569  0.3010  0.3639
 1032SOL    HW2 3910   4.933   2.030   7.060 -0.9541 -1.4558 -0.2270
 1033SOL     OW 3911   7.497   5.442   3.878  0.1339 -0.6272  0.3929
 1033SOL    HW1 3912   7.482   5.534   3.859  0.6792  0.0088  2.8315
 1033SOL    HW2 3913   7.414   5.399   3.856 -0.3094  0.5280 -0.2226
 1034SOL     OW 3914   5.602   5.161   1.559  0.0182  0.1731 -0.1679
 1034SOL    HW1 3915   5.522   5.198   1.520 -0.1133  0.2375  0.1627
 1034SOL    HW2 3916   5.603   5.070   1.529  1.2202  0.8703 -2.3658
 1035SOL     OW 3917   4.976   0.762   5.586  0.1050  0.0303  0.3614
 1035SOL    HW1 3918   4.909   0.823   5.554  0.8978 -0.3944 -2.2153
 1035SOL    HW2 3919   4.947   0.676   5.555  0.9100 -0.3974  0.7927
 1036SOL     OW 3920   4.908   0.011   0.789 -0.0176  0.1439 -0.6035
 1036SOL    HW1 3921   4.839   0.070   0.758 -0.0392  0.4851  0.0953
 1036SOL    HW2 3922   4.871  -0.030   0.867  1.0505  1.2594  0.4969
 1037SOL     OW 3923   2.933   3.122   5.945 -0.0470 -0.2284 -0.0988
 1037SOL    HW1 3924   2.920   3.150   6.035 -0.3158  0.7220 -0.4316
 1037SOL    HW2 3925   2.845   3.099   5.914  0.3640 -3.0551  0.6820
 1038SOL     OW 3926   3.327   2.868   3.859  0.1336  0.1570 -0.0546
 1038SOL    HW1 3927   3.368   2.792   3.816  1.2272  0.4020  0.5369
 1038SOL    HW2 3928   3.252   2.889   3.804 -0.7579 -1.9624  0.2987
 1039SOL     OW 3929   5.076   2.320   5.561 -0.4356 -0.2427 -0.6798
 1039SOL    HW1 3930   5.035   2.240   5.594  2.7174 -1.1577  1.2560
 1039SOL    HW2 3931   5.084   2.377   5.638  1.3470  0.1227 -1.1085
 1040SOL     OW 3932   7.390   0.805   6.778  0.3289  0.4793  0.3066
 1040SOL    HW1 3933   7.303   0.816   6.816 -0.6510 -1.9620 -1.1480
 1040SOL    HW2 3934   7.440   0.760   6.846 -0.1752 -0.0144  0.3566
 1041SOL     OW 3935   5.924   3.354   6.190  0.6699  0.4815  0.0447
 1041SOL    HW1 3936   5.958   3.265   6.179  1.6220  0.9996 -1.4843
 1041SOL    HW2 3937   5.944   3.397   6.107  1.3621  2.4953  1.2132
 1042SOL     OW 3938   5.036   5.109   5.691 -0.3127  0.0030 -0.5525
 1042SOL    HW1 3939   5.001   5.023   5.714 -2.3941  0.7051 -0.9880
 1042SOL    HW2 3940   5.012   5.165   5.764 -0.8766  0.6961 -1.2604
 1043SOL     OW 3941   0.475   1.134   5.858  0.1069  0.2443  0.1256
 1043SOL    HW1 3942   0.453   1.070   5.926  1.3898 -1.3111 -0.8785
 1043SOL    HW2 3943   0.536   1.194   5.901  1.8570 -1.4256  0.0758
 1044SOL     OW 3944   4.030   7.274   0.312  0.1099 -0.2254  0.2733
 1044SOL    HW1 3945   4.068   7.216   0.378 -1.4196 -2.2507 -0.5552
 1044SOL    HW2 3946   3.936   7.257   0.317 -0.1924  0.9630 -1.1485
 1045SOL     OW 3947   4.869   0.557   7.424 -0.4784  0.0265  0.1182
 1045SOL    HW1 3948   4.777   0.552   7.398 -0.3148 -0.0560 -0.4677
 1045SOL    HW2 3949   4.867   0.590   7.514 -0.9824  2.8348 -0.8507
 1046SOL     OW 3950   3.825   3.710   2.767 -0.0513 -0.0481 -0.1713
 1046SOL    HW1 3951   3.911   3.745   2.792 -0.9598  2.0740  0.0673
 1046SOL    HW2 3952   3.842   3.664   2.685  1.9868 -2.7863  1.6924
 1047SOL     OW 3953   4.937   6.611   2.999  0.1974 -0.3287  0.5447
 1047SOL    HW1 3954   4.843   6.626   3.010 -0.2207 -1.1311 -1.6225
 1047SOL    HW2 3955   4.963   6.672   2.930  0.9230 -1.2741 -0.0298
 1048SOL     OW 3956   0.871   3.854   4.488 -0.6533  0.5718 -0.3124
 1048SOL    HW1 3957   0.827   3.890   4.411 -2.1337 -1.2200 -0.3311
 1048SOL    HW2 3958   0.855   3.760   4.483  3.3600 -0.2019 -0.4402
 1049SOL     OW 3959   5.146   0.373   2.919  0.6085  0.6755  0.1772
 1049SOL    HW1 3960   5.083   0.360   2.990  1.2612 -0.7042  0.5203
 1049SOL    HW2 3961   5.096   0.355   2.839  0.2005  0.9681  0.3650
 1050SOL     OW 3962   6.978   4.096   4.538  0.3319  0.2273  0.6748
 1050SOL    HW1 3963   6.945   4.147   4.464  0.2582  2.2913  2.0833
 1050SOL    HW2 3964   7.024   4.160   4.593  3.2166 -1.8361  0.7931
 1051SOL     OW 3965   5.715   0.352   5.388 -0.3055 -0.1214  0.0934
 1051SOL    HW1 3966   5.799   0.310   5.365 -1.1183 -0.5835 -2.2451
 1051SOL    HW2 3967   5.668   0.286   5.439 -0.4199 -1.0003 -1.1290
 1052SOL     OW 3968   1.807   1.042   2.696 -0.2030 -0.7164 -0.2439
 1052SOL    HW1 3969   1.877   0.977   2.700  0.6976  0.1912 -1.0527
 1052SOL    HW2 3970   1.795   1.058   2.603 -1.1610 -0.5032 -0.0854
 1053SOL     OW 3971   1.056   4.813   1.787  0.8046  0.3217 -0.7150
 1053SOL    HW1 3972   1.139   4.833   1.830  1.0817 -1.0052 -0.6057
 1053SOL    HW2 3973   0.998   4.885   1.811  1.3348  0.2457  0.8470
 1054SOL     OW 3974   4.093   1.662   4.344 -0.2647  0.3105  0.5782
 1054SOL    HW1 3975   4.177   1.636   4.308  0.3194 -0.6076  2.5577
 1054SOL    HW2 3976   4.114   1.729   4.409 -1.1682  0.7918  0.3880
 1055SOL     OW 3977   7.888   4.272   3.669  0.4548  0.8684 -0.1076
 1055SOL    HW1 3978   7.960   4.219   3.636  0.7378  0.5969  0.9301
 1055SOL    HW2 3979   7.810   4.235   3.628  0.8536  0.8744 -0.8731
 1056SOL     OW 3980   4.553   2.090   4.276 -0.5184  0.0031 -0.5733
 1056SOL    HW1 3981   4.527   2.088   4.184  0.6679  0.5119 -0.9280
 1056SOL    HW2 3982   4.645   2.066   4.276 -0.4896  0.0627  0.4831
 1057SOL     OW 3983   3.556   3.332   4.006  0.2846  0.0363 -0.8990
 1057SOL    HW1 3984   3.575   3.366   3.919 -1.8230 -0.7983 -1.7332
 1057SOL    HW2 3985   3.529   3.241   3.991 -1.0578  0.1798  0.5051
 1058SOL     OW 3986   0.834   0.378   4.978 -0.3717 -0.4203 -0.5433
 1058SOL    HW1 3987   0.770   0.327   5.027 -0.5468  0.8419  0.5805
 1058SOL    HW2 3988   0.904   0.316   4.958 -0.7038 -1.1702  0.5647
 1059SOL     OW 3989   5.380   1.850   2.642  0.3821 -0.6673 -0.2952
 1059SOL    HW1 3990   5.445   1.920   2.639  2.1059 -2.1452  1.2221
 1059SOL    HW2 3991   5.421   1.778   2.594 -1.6244 -0.4722 -2.3790
 1060SOL     OW 3992   3.913   2.729   1.666 -0.1224  0.5748 -0.1884
 1060SOL    HW1 3993   3.932   2.656   1.607 -0.4050  0.4590 -0.1391
 1060SOL    HW2 3994   3.975   2.718   1.738  0.0946  0.6069 -0.3699
 1061SOL     OW 3995   3.279   0.722   6.019  0.0967 -0.3162 -0.5162
 1061SOL    HW1 3996   3.230   0.662   6.075  0.9464 -0.1836  0.3997
 1061SOL    HW2 3997   3.250   0.702   5.930 -2.2496  0.3803  0.0731
 1062SOL     OW 3998   0.059   4.048   5.705 -0.6293 -0.7871 -0.5587
 1062SOL    HW1 3999   0.108   3.973   5.670 -1.0157 -0.9386 -0.7889
 1062SOL    HW2 4000   0.116   4.085   5.772 -0.3237 -1.1362 -0.6216
 1063SOL     OW 4001   1.275   6.788   2.111  0.5407 -0.0758  0.8042
 1063SOL    HW1 4002   1.344   6.729   2.143  0.0334 -1.8611 -1.2732
 1063SOL    HW2 4003   1.313   6.828   2.033 -0.6360 -0.8393 -0.1723
 1064SOL     OW 4004   7.987   2.092   0.972 -0.2231 -0.5068  0.2067
 1064SOL    HW1 4005   8.074   2.130   0.974  0.4739 -2.0870  1.1118
 1064SOL    HW2 4006   7.970   2.073   0.880  0.2105  0.1917 -0.0144
 1065SOL     OW 4007   3.441   5.630   2.940 -0.3321  0.2018 -0.4133
 1065SOL    HW1 4008   3.380   5.638   2.867  0.3007 -0.8897 -1.0683
 1065SOL    HW2 4009   3.386   5.608   3.015 -0.5150 -3.3358 -1.4957
 1066SOL     OW 4010   2.477   2.890   1.589  0.2117  0.1334 -0.1467
 1066SOL    HW1 4011   2.448   2.851   1.672 -2.2123  0.5648 -0.7646
 1066SOL    HW2 4012   2.525   2.969   1.616 -0.3676  0.1535  0.8477
 1067SOL     OW 4013   1.009   7.801   6.211  0.2810 -0.0616  0.4402
 1067SOL    HW1 4014   1.103   7.796   6.196  0.4928 -1.3699  2.1052
 1067SOL    HW2 4015   0.976   7.853   6.137  2.0875 -0.8599 -0.9627
 1068SOL     OW 4016   1.090   0.624   4.769 -0.0381 -0.1229  0.7525
 1068SOL    HW1 4017   1.112   0.540   4.728  1.0792  1.2027 -1.4208
 1068SOL    HW2 4018   1.050   0.599   4.852  0.6089 -2.8119  0.3230
 1069SOL     OW 4019   0.806   2.910   6.401  0.4005  0.2786 -0.5955
 1069SOL    HW1 4020   0.828   2.851   6.473  1.4336  1.0990 -0.2239
 1069SOL    HW2 4021   0.877   2.974   6.401  0.1717  0.5335 -2.0671
 1070SOL     OW 4022   3.622   2.208   2.783 -0.1350  0.1475 -0.2560
 1070SOL    HW1 4023   3.627   2.242   2.694  0.8487  0.8047  0.0417
 1070SOL    HW2 4024   3.680   2.264   2.834 -0.8572 -0.0823  0.8521
 1071SOL     OW 4025   1.846   6.903   7.937 -0.3001  0.1916  0.2569
 1071SOL    HW1 4026   1.811   6.988   7.966 -0.4403  0.1420  0.2294
 1071SOL    HW2 4027   1.781   6.870   7.876  0.2863  0.5797 -0.5982
 1072SOL     OW 4028   0.593   4.861   2.291  0.2358 -0.0593 -0.0506
 1072SOL    HW1 4029   0.507   4.831   2.260  0.2485  0.2150 -0.3648
 1072SOL    HW2 4030   0.601   4.950   2.255  2.4195 -1.5659 -3.5291
 1073SOL     OW 4031   5.241   6.157   7.816 -0.0550 -0.0481  0.1035
 1073SOL    HW1 4032   5.287   6.126   7.738  0.1560  2.4053 -0.7830
 1073SOL    HW2 4033   5.269   6.248   7.826  0.1583 -0.3901  3.2266
 1074SOL     OW 4034   5.167   7.531   7.597  0.3870 -0.3357 -0.0068
 1074SOL    HW1 4035   5.140   7.582   7.521  2.2503 -2.2503 -2.0585
 1074SOL    HW2 4036   5.229   7.587   7.643 -0.3536  0.6393 -0.1780
 1075SOL     OW 4037   4.193   7.836   7.267 -0.0653 -0.4820  0.1102
 1075SOL    HW1 4038   4.165   7.896   7.198  0.2159 -0.4738  0.0010
 1075SOL    HW2 4039   4.256   7.778   7.224  1.0144  0.2747  0.6398
 1076SOL     OW 4040   5.123   1.902   5.629 -0.1918  0.4699  0.4117
 1076SOL    HW1 4041   5.155   1.992   5.626  1.3890 -0.1257 -2.7853
 1076SOL    HW2 4042   5.159   1.866   5.710 -0.4324  2.5186  1.4661
 1077SOL     OW 4043   2.855   0.365   6.554 -0.5548  0.4097  0.6633
 1077SOL    HW1 4044   2.901   0.286   6.583  0.7126  0.8950 -0.0205
 1077SOL    HW2 4045   2.888   0.434   6.612 -1.1833  0.5610  0.8397
 1078SOL     OW 4046   3.467   7.410   5.067 -0.4695  0.1322  0.0038
 1078SOL    HW1 4047   3.384   7.443   5.100 -0.0162 -1.9992  3.4928
 1078SOL    HW2 4048   3.444   7.331   5.018 -0.6417  0.3248 -0.2242
 1079SOL     OW 4049   0.363   3.408   2.499  0.2486  0.4956  0.2017
 1079SOL    HW1 4050   0.325   3.348   2.435  0.0033  0.5464  0.2982
 1079SOL    HW2 4051   0.296   3.415   2.568  0.4762  0.5072  0.4203
 1080SOL     OW 4052   5.658   5.191   2.295  0.1416  0.5026  0.4828
 1080SOL    HW1 4053   5.703   5.106   2.298  1.3143  1.0866 -0.3217
 1080SOL    HW2 4054   5.630   5.199   2.203  1.6362  1.8025  0.1226
 1081SOL     OW 4055   2.809   3.473   4.071  0.2955  0.1115  0.1065
 1081SOL    HW1 4056   2.716   3.458   4.055  0.6339  0.3114 -2.3854
 1081SOL    HW2 4057   2.842   3.389   4.101 -0.3188 -0.5516 -1.0153
 1082SOL     OW 4058   3.805   3.394   4.773  0.5627 -0.2496 -0.5008
 1082SOL    HW1 4059   3.752   3.315   4.766  0.7488 -0.3749 -0.4922
 1082SOL    HW2 4060   3.876   3.382   4.710  1.8521 -1.0782  1.0744
 1083SOL     OW 4061   4.288   1.783   0.841 -0.3446  0.0484 -0.0125
 1083SOL    HW1 4062   4.343   1.749   0.911  2.9235  2.6257 -1.2186
 1083SOL    HW2 4063   4.301   1.878   0.844 -4.7958  0.8132 -0.3375
 1084SOL     OW 4064   1.222   6.338   6.364  0.1893  0.3030 -0.0440
 1084SOL    HW1 4065   1.199   6.248   6.341 -0.1770 -0.1779  2.0751
 1084SOL    HW2 4066   1.180   6.391   6.297 -0.4283 -1.0627 -0.7551
 1085SOL     OW 4067   5.034   1.752   2.251 -0.0614  0.5948  0.3599
 1085SOL    HW1 4068   5.102   1.717   2.309  0.3054 -0.5904 -0.7623
 1085SOL    HW2 4069   5.076   1.754   2.165 -2.1284 -2.2366 -0.7752
 1086SOL     OW 4070   7.684   4.433   7.894 -0.3980 -0.0984 -0.0290
 1086SOL    HW1 4071   7.745   4.417   7.821 -0.4312  0.4020 -0.1644
 1086SOL    HW2 4072   7.723   4.388   7.968  0.3787  0.6345  0.0011
 1087SOL     OW 4073   6.545   4.351   5.776 -0.1888  0.2536 -0.6142
 1087SOL    HW1 4074   6.614   4.360   5.842  0.6032 -0.9525 -1.2533
 1087SOL    HW2 4075   6.500   4.269   5.800  0.7264 -0.7076 -2.1274
 1088SOL     OW 4076   7.873   0.652   4.703  0.1174  0.0440 -0.9877
 1088SOL    HW1 4077   7.815   0.708   4.652  0.3101 -0.1911 -1.4679
 1088SOL    HW2 4078   7.897   0.705   4.779 -0.7499  0.1230 -0.7714
 1089SOL     OW 4079   0.652   3.416   7.033  0.2694  0.5473 -0.6480
 1089SOL    HW1 4080   0.565   3.377   7.042  1.5589 -2.1837  0.4573
 1089SOL    HW2 4081   0.636   3.510   7.039 -2.3558  0.0313  1.9760
 1090SOL     OW 4082   0.800   5.701   3.086  0.0732 -0.4325 -0.2743
 1090SOL    HW1 4083   0.715   5.705   3.129  0.1840 -2.6711  0.2270
 1090SOL    HW2 4084   0.859   5.666   3.153  1.5465  1.7661 -0.3911
 1091SOL     OW 4085   7.137   4.285   5.003 -0.2476  0.1682  0.2402
 1091SOL    HW1 4086   7.200   4.334   5.057  0.4064 -2.1310  1.6368
 1091SOL    HW2 4087   7.076   4.248   5.066 -2.5290  1.6124 -1.0420
 1092SOL     OW 4088   4.173   2.056   6.594 -0.2801  0.1767  0.1872
 1092SOL    HW1 4089   4.087   2.035   6.556 -0.1312 -1.0490  0.5169
 1092SOL    HW2 4090   4.162   2.041   6.688  0.4322 -0.4186  0.1737
 1093SOL     OW 4091   5.198   3.549   5.356  0.2671 -0.2673 -0.2182
 1093SOL    HW1 4092   5.137   3.480   5.330 -0.2797  0.9258 -2.2603
 1093SOL    HW2 4093   5.147   3.630   5.348  2.7778  1.0502 -4.6566
 1094SOL     OW 4094   1.204   4.541   3.393 -0.1438 -0.0554 -0.2127
 1094SOL    HW1 4095   1.193   4.607   3.325  0.1518 -0.0287 -0.2342
 1094SOL    HW2 4096   1.115   4.509   3.409 -0.5639  1.7170  1.1646
 1095SOL     OW 4097   5.600   0.307   0.611  0.4628  0.0864  0.3013
 1095SOL    HW1 4098   5.658   0.291   0.686  0.6366  1.6066  0.5225
 1095SOL    HW2 4099   5.642   0.380   0.565 -1.0655  0.9239  0.2339
 1096SOL     OW 4100   7.554   3.262   4.191  0.1036  0.0366  0.0696
 1096SOL    HW1 4101   7.624   3.232   4.134  0.9585 -1.0574  1.6391
 1096SOL    HW2 4102   7.554   3.357   4.182  0.6305 -0.0835 -1.2511
 1097SOL     OW 4103   6.686   1.091   3.892 -0.1624 -0.2676  0.5148
 1097SOL    HW1 4104   6.705   1.152   3.820 -1.4071 -1.2722 -0.6679
 1097SOL    HW2 4105   6.659   1.148   3.965 -2.3798  0.5412 -0.9110
 1098SOL     OW 4106   3.671   0.636   7.610 -0.2346 -0.0277  0.1422
 1098SOL    HW1 4107   3.682   0.547   7.576 -0.8605 -0.3027  0.6619
 1098SOL    HW2 4108   3.599   0.629   7.673 -0.0334  0.7719  0.4600
 1099SOL     OW 4109   0.222   5.518   5.244 -0.1209  0.3561 -0.0142
 1099SOL    HW1 4110   0.287   5.581   5.273  0.3457 -0.2207  0.2051
 1099SOL    HW2 4111   0.231   5.517   5.148  1.8106 -1.3978  0.1275
 1100SOL     OW 4112   1.209   5.474   4.116 -0.9573  0.0806 -0.4851
 1100SOL    HW1 4113   1.120   5.477   4.152 -0.7305  0.0916  0.0846
 1100SOL    HW2 4114   1.217   5.556   4.067 -0.0483  1.8204  2.4199
 1101SOL     OW 4115   7.862   2.450   3.765  0.0427 -0.4941  0.6569
 1101SOL    HW1 4116   7.788   2.509   3.777 -1.1933 -1.5147 -1.4518
 1101SOL    HW2 4117   7.848   2.381   3.830  0.1345  0.2488  1.4687
 1102SOL     OW 4118   1.459   2.494   0.762  0.4350  0.2864  0.3207
 1102SOL    HW1 4119   1.389   2.474   0.699 -0.2216  1.8370  0.5328
 1102SOL    HW2 4120   1.535   2.445   0.729 -0.4424 -0.5242 -0.5457
 1103SOL     OW 4121   1.042   0.541   3.770 -0.0804 -0.1812 -0.5901
 1103SOL    HW1 4122   1.043   0.603   3.843 -0.6352 -0.6445 -0.1832
 1103SOL    HW2 4123   1.095   0.583   3.703 -0.5090  0.7750 -0.3513
 1104SOL     OW 4124   3.271   5.268   7.071  0.1347 -0.2686  0.2696
 1104SOL    HW1 4125   3.330   5.316   7.013 -1.5963  1.5159 -0.0533
 1104SOL    HW2 4126   3.188   5.263   7.023  0.1821 -3.4195  0.3819
 1105SOL     OW 4127   6.829   2.907   3.396 -0.0877 -0.0201  0.2385
 1105SOL    HW1 4128   6.735   2.898   3.380 -0.0939 -0.1738  0.3652
 1105SOL    HW2 4129   6.869   2.881   3.313 -0.1375 -0.4477  0.3490
 1106SOL     OW 4130   5.850   5.458   1.169 -0.2640  0.1276 -0.3768
 1106SOL    HW1 4131   5.806   5.415   1.243  0.2856  0.1162 -0.0589
 1106SOL    HW2 4132   5.778   5.495   1.118 -0.8132 -2.0386 -1.2049
 1107SOL     OW 4133   6.209   3.257   6.915  0.0712  0.0218  0.0836
 1107SOL    HW1 4134   6.173   3.171   6.936  1.1108 -0.8734 -1.7405
 1107SOL    HW2 4135   6.180   3.275   6.826  3.2408 -0.2748 -1.0702
 1108SOL     OW 4136   6.555   1.040   3.528 -0.4651  0.0493  0.3594
 1108SOL    HW1 4137   6.639   1.088   3.530 -1.5623  2.2094 -2.2326
 1108SOL    HW2 4138   6.501   1.084   3.593 -0.8855  1.2254 -0.7744
 1109SOL     OW 4139   2.572   2.606   5.850  0.0760 -0.2697 -0.2655
 1109SOL    HW1 4140   2.486   2.566   5.856  0.7679 -1.7032  0.3636
 1109SOL    HW2 4141   2.558   2.697   5.875 -0.9703 -0.9085  1.6017
 1110SOL     OW 4142   4.256   4.281   3.694  0.0181  0.0053  0.0172
 1110SOL    HW1 4143   4.232   4.215   3.759 -0.2613  0.0245 -0.0673
 1110SOL    HW2 4144   4.174   4.324   3.671  0.1243  0.0453 -0.2970
 1111SOL     OW 4145   0.350   1.269   6.345  0.7268 -0.0532 -0.1026
 1111SOL    HW1 4146   0.381   1.291   6.433  1.0040 -2.0397  0.3220
 1111SOL    HW2 4147   0.411   1.203   6.314  0.0429 -0.0844 -1.4058
 1112SOL     OW 4148   7.910   7.499   4.753 -0.2094  0.1654 -0.2367
 1112SOL    HW1 4149   7.971   7.442   4.706  0.4621  0.3690  0.3858
 1112SOL    HW2 4150   7.832   7.445   4.764  0.5014 -0.7251  0.5438
 1113SOL     OW 4151   0.115   3.188   3.253  0.0508 -0.5025  0.1610
 1113SOL    HW1 4152   0.084   3.178   3.343  1.8860 -1.3472  0.7423
 1113SOL    HW2 4153   0.122   3.098   3.220  0.3675 -0.2552 -0.4621
 1114SOL     OW 4154   0.592   7.684   5.176  0.4435 -0.1988  0.1470
 1114SOL    HW1 4155   0.573   7.595   5.147 -1.8632 -0.2885  1.7749
 1114SOL    HW2 4156   0.626   7.674   5.265 -0.3081  0.5586  0.5322
 1115SOL     OW 4157   4.426   1.778   3.152  0.3006  0.1187 -0.1055
 1115SOL    HW1 4158   4.451   1.744   3.238  2.2432 -1.4843 -1.2262
 1115SOL    HW2 4159   4.368   1.711   3.116  0.3453  0.2570 -0.4397
 1116SOL     OW 4160   3.595   5.362   2.984 -0.8613 -0.2271 -0.4950
 1116SOL    HW1 4161   3.546   5.441   2.963 -0.5679  0.5944  1.7293
 1116SOL    HW2 4162   3.641   5.339   2.903 -1.9253  1.1637 -1.5128
 1117SOL     OW 4163   3.416   2.158   1.643  0.0040  0.5159  0.3236
 1117SOL    HW1 4164   3.322   2.173   1.638 -0.1516 -0.3556  0.5499
 1117SOL    HW2 4165   3.428   2.108   1.724  0.7438  1.2611  0.6853
 1118SOL     OW 4166   7.520   7.183   0.788  0.0275  0.3953 -0.3316
 1118SOL    HW1 4167   7.613   7.178   0.809 -0.5358 -1.7367  1.7821
 1118SOL    HW2 4168   7.499   7.099   0.748 -1.0918  0.7231 -0.4612
 1119SOL     OW 4169   2.010   4.959   3.926  0.0238  0.3169 -0.0301
 1119SOL    HW1 4170   1.984   5.051   3.921 -1.6511 -0.1016  0.4990
 1119SOL    HW2 4171   2.053   4.942   3.843 -0.1442  1.4361 -0.3581
 1120SOL     OW 4172   4.956   3.491   2.527  0.2738  0.3603  0.1156
 1120SOL    HW1 4173   4.879   3.547   2.536 -0.8152 -1.4266  2.5305
 1120SOL    HW2 4174   5.017   3.524   2.593  0.9582  0.7796 -0.7233
 1121SOL     OW 4175   0.854   3.821   1.619  0.1276 -0.6598 -0.6964
 1121SOL    HW1 4176   0.908   3.851   1.546 -1.1400  1.4149 -0.8057
 1121SOL    HW2 4177   0.781   3.775   1.577  0.5629 -1.4230 -0.6319
 1122SOL     OW 4178   2.417   7.258   6.433 -0.1253 -0.0731  0.0318
 1122SOL    HW1 4179   2.473   7.184   6.409  0.3422  0.2820  0.0317
 1122SOL    HW2 4180   2.348   7.220   6.487 -0.6375 -0.7339 -1.0555
 1123SOL     OW 4181   2.242   7.313   7.182  0.0958  0.4301 -0.1846
 1123SOL    HW1 4182   2.168   7.309   7.243  0.2432 -1.2097 -0.0934
 1123SOL    HW2 4183   2.206   7.283   7.099  0.5674 -0.0180 -0.2267
 1124SOL     OW 4184   1.542   3.478   7.569 -0.8660  0.2855  0.1746
 1124SOL    HW1 4185   1.487   3.495   7.492  0.8768  1.0726 -0.8991
 1124SOL    HW2 4186   1.510   3.539   7.635 -2.0343 -0.0419 -0.0719
 1125SOL     OW 4187   7.592   1.899   0.644  0.2452 -0.0278 -0.0980
 1125SOL    HW1 4188   7.538   1.977   0.660  2.0489  1.5789 -1.5777
 1125SOL    HW2 4189   7.632   1.880   0.729 -0.8437  0.1716  0.4630
 1126SOL     OW 4190   5.123   0.411   4.135  0.4614  0.0849  0.4325
 1126SOL    HW1 4191   5.208   0.403   4.177  2.5605  3.5263 -2.7727
 1126SOL    HW2 4192   5.122   0.341   4.070  0.4445 -0.5380  1.1029
 1127SOL     OW 4193   3.536   5.941   0.004  0.3843 -0.5736 -0.1207
 1127SOL    HW1 4194   3.606   5.897  -0.044  0.5285 -1.3582  0.7845
 1127SOL    HW2 4195   3.455   5.905  -0.032  0.5171 -2.4752  1.4044
 1128SOL     OW 4196   0.217   4.415   3.953  0.0413  0.1085  0.3759
 1128SOL    HW1 4197   0.213   4.425   3.858  0.6298 -0.0647  0.3325
 1128SOL    HW2 4198   0.144   4.468   3.985 -1.4874 -1.5420 -0.2905
 1129SOL     OW 4199   6.769   6.513   0.372 -0.1596  0.4228 -0.1050
 1129SOL    HW1 4200   6.841   6.456   0.345 -0.5238  0.3018 -0.8549
 1129SOL    HW2 4201   6.768   6.583   0.307 -0.5541  0.5675  0.0532
 1130SOL     OW 4202   4.568   3.174   6.549 -0.3606  0.0089 -0.3471
 1130SOL    HW1 4203   4.617   3.233   6.607 -0.2190 -0.1415 -0.3124
 1130SOL    HW2 4204   4.513   3.232   6.497 -2.0791  0.0168  1.4161
 1131SOL     OW 4205   5.743   2.872   2.064  0.0667  0.3158 -0.0489
 1131SOL    HW1 4206   5.653   2.888   2.037 -0.1052  1.3731  1.1230
 1131SOL    HW2 4207   5.745   2.780   2.091 -0.4831  0.1052 -0.7160
 1132SOL     OW 4208   7.027   6.649   0.715  0.1916 -0.7619  0.5992
 1132SOL    HW1 4209   7.002   6.741   0.717  0.7228 -0.4943 -2.5474
 1132SOL    HW2 4210   6.959   6.607   0.663  0.4659 -1.9864  1.2134
 1133SOL     OW 4211   5.545   5.181   3.882 -0.9636  0.1243  0.0466
 1133SOL    HW1 4212   5.599   5.255   3.857 -2.2049  1.5516  1.4155
 1133SOL    HW2 4213   5.604   5.123   3.930 -0.3444  1.0104  0.3631
 1134SOL     OW 4214   2.169   3.512   2.347 -0.2083 -0.3745 -0.0107
 1134SOL    HW1 4215   2.215   3.449   2.402  0.5490 -0.0072 -0.2236
 1134SOL    HW2 4216   2.214   3.508   2.263  0.0146  0.6540  0.0566
 1135SOL     OW 4217   0.355   7.527   1.209 -0.1648  0.0798 -0.7246
 1135SOL    HW1 4218   0.288   7.477   1.161 -0.2865 -0.1114 -0.3541
 1135SOL    HW2 4219   0.367   7.479   1.291 -1.3470  1.4554  0.2766
 1136SOL     OW 4220   1.199   3.653   0.356  0.4407  0.4669  0.4554
 1136SOL    HW1 4221   1.259   3.583   0.383 -0.6723 -0.9031 -0.5423
 1136SOL    HW2 4222   1.113   3.624   0.387 -0.2469  0.7189 -1.1618
 1137SOL     OW 4223   4.177   1.659   0.629  0.2356  0.2884 -0.6499
 1137SOL    HW1 4224   4.211   1.706   0.706  0.4954 -0.5749 -0.2329
 1137SOL    HW2 4225   4.247   1.668   0.564  0.1408  0.7622 -0.6946
 1138SOL     OW 4226   5.542   3.619   2.747 -0.3384 -0.1409 -0.6303
 1138SOL    HW1 4227   5.637   3.620   2.758 -0.5880  1.2050  1.6132
 1138SOL    HW2 4228   5.519   3.710   2.728 -1.3366 -0.2072  0.2147
 1139SOL     OW 4229   3.269   3.555   2.491  0.1520  0.2834 -0.2074
 1139SOL    HW1 4230   3.301   3.477   2.536 -1.5106 -0.2183  0.1612
 1139SOL    HW2 4231   3.275   3.533   2.398 -0.5310 -0.4052 -0.1001
 1140SOL     OW 4232   3.006   2.890   0.562 -0.3373 -0.1962  0.1927
 1140SOL    HW1 4233   2.961   2.952   0.504 -1.7126 -0.3951  1.0309
 1140SOL    HW2 4234   3.028   2.816   0.506 -0.5318  0.1480 -0.3455
 1141SOL     OW 4235   4.423   6.362   4.116  0.3902  0.5420  0.6477
 1141SOL    HW1 4236   4.398   6.280   4.159  1.2781 -0.2004 -0.2120
 1141SOL    HW2 4237   4.391   6.431   4.174  0.2846 -0.4232  1.7483
 1142SOL     OW 4238   6.977   2.231   1.240  0.0580 -0.6072 -0.5813
 1142SOL    HW1 4239   7.059   2.276   1.256  0.9851 -2.4290 -0.0697
 1142SOL    HW2 4240   6.962   2.240   1.146  1.1599 -0.7789 -0.7746
 1143SOL     OW 4241   7.730   4.665   5.369 -0.1660  0.3579 -0.0249
 1143SOL    HW1 4242   7.691   4.602   5.309  2.8611 -1.2695 -0.3483
 1143SOL    HW2 4243   7.693   4.643   5.455  1.9688 -2.9159  0.1381
 1144SOL     OW 4244   6.805   7.168   1.706  0.5729  0.2247 -0.2218
 1144SOL    HW1 4245   6.854   7.126   1.776  0.2030  0.6160  0.2744
 1144SOL    HW2 4246   6.858   7.155   1.627  1.1453  0.0775  0.1922
 1145SOL     OW 4247   2.637   3.359   4.583 -0.1265  0.4164 -0.6114
 1145SOL    HW1 4248   2.648   3.419   4.658  1.0292 -2.4909  1.6457
 1145SOL    HW2 4249   2.550   3.379   4.550 -0.7782  1.6051  1.6893
 1146SOL     OW 4250   1.226   5.291   3.670 -0.6543 -0.6010 -0.1261
 1146SOL    HW1 4251   1.179   5.251   3.744  0.2502  0.5367  1.1005
 1146SOL    HW2 4252   1.316   5.262   3.682 -0.5255 -0.4923 -0.8575
 1147SOL     OW 4253   1.834   7.782   4.056  0.1005 -0.5529 -0.4344
 1147SOL    HW1 4254   1.780   7.773   4.135  0.9808 -0.3348  0.1905
 1147SOL    HW2 4255   1.924   7.786   4.088  0.5304 -1.3117 -1.5053
 1148SOL     OW 4256   6.338   2.008   5.513  0.0904  0.1887  0.8397
 1148SOL    HW1 4257   6.390   2.038   5.588 -0.0209  1.2139  0.5178
 1148SOL    HW2 4258   6.391   1.940   5.472 -1.2757 -2.7494  3.7521
 1149SOL     OW 4259   3.533   7.631   3.534 -0.0457 -0.5442  0.0068
 1149SOL    HW1 4260   3.528   7.676   3.450  1.4649 -0.1840  0.0841
 1149SOL    HW2 4261   3.582   7.551   3.516 -0.6243 -0.9767  0.3418
 1150SOL     OW 4262   0.654   7.038   2.497  0.1011 -0.0346  0.2079
 1150SOL    HW1 4263   0.661   6.971   2.565  0.8234 -0.6244 -0.4329
 1150SOL    HW2 4264   0.743   7.048   2.464  0.1941  1.9951  0.9901
 1151SOL     OW 4265   2.929   4.853   6.104  0.0171  0.8611  0.5272
 1151SOL    HW1 4266   2.834   4.840   6.100  0.2325 -1.5887  2.0509
 1151SOL    HW2 4267   2.951   4.896   6.022 -1.8567 -2.5706 -1.9120
 1152SOL     OW 4268   7.341   6.998   0.128  0.2720 -0.4693  0.2876
 1152SOL    HW1 4269   7.417   7.040   0.169  0.6617 -0.3592 -0.5413
 1152SOL    HW2 4270   7.364   6.906   0.123 -0.4845 -0.7734  1.8834
 1153SOL     OW 4271   2.796   3.676   4.292 -0.2155 -0.0429 -0.0649
 1153SOL    HW1 4272   2.879   3.663   4.337  0.8584  1.9186 -1.3746
 1153SOL    HW2 4273   2.812   3.645   4.203 -1.0840 -0.2295 -0.1622
 1154SOL     OW 4274   4.754   6.339   2.622  0.1932 -0.0513  0.1480
 1154SOL    HW1 4275   4.749   6.317   2.529 -2.3222 -1.2252  0.5212
 1154SOL    HW2 4276   4.676   6.391   2.639  1.2180  1.1394  1.3723
 1155SOL     OW 4277   7.248   4.153   1.030  0.5403 -0.2823 -0.0918
 1155SOL    HW1 4278   7.258   4.216   0.958 -1.2018 -0.5221 -0.5609
 1155SOL    HW2 4279   7.207   4.077   0.989  0.5636 -0.8500  0.9398
 1156SOL     OW 4280   1.200   6.899   4.926  0.2810 -0.0440 -0.1605
 1156SOL    HW1 4281   1.172   6.903   4.835  0.6044  0.8917 -0.2243
 1156SOL    HW2 4282   1.127   6.857   4.972  1.1087 -2.7345 -1.2314
 1157SOL     OW 4283   6.059   6.429   3.482 -0.0462 -0.0254  0.6188
 1157SOL    HW1 4284   5.983   6.456   3.430  0.2612 -1.8521 -0.8142
 1157SOL    HW2 4285   6.024   6.412   3.569 -1.0617  0.2884  0.2735
 1158SOL     OW 4286   7.035   2.314   7.721 -0.1983  0.0218 -0.4198
 1158SOL    HW1 4287   7.052   2.384   7.659  0.9067 -1.9033 -2.3499
 1158SOL    HW2 4288   7.122   2.287   7.752 -0.5839 -0.6755  0.0802
 1159SOL     OW 4289   1.117   2.170   6.979 -0.4115 -0.1038  0.5467
 1159SOL    HW1 4290   1.136   2.190   7.070 -0.7343  1.6764  0.2301
 1159SOL    HW2 4291   1.021   2.176   6.973 -0.4484 -0.9070  0.2420
 1160SOL     OW 4292   6.399   1.084   4.527 -0.2678  0.0049  0.1568
 1160SOL    HW1 4293   6.481   1.034   4.524 -0.4759 -0.2893 -1.1149
 1160SOL    HW2 4294   6.360   1.061   4.611  1.2191  0.5821  1.0183
 1161SOL     OW 4295   2.538   5.941   4.355  0.1307  0.2811 -0.0772
 1161SOL    HW1 4296   2.592   5.920   4.431 -0.6129  0.3338  0.4724
 1161SOL    HW2 4297   2.546   6.036   4.345  0.9797  0.1552 -0.6438
 1162SOL     OW 4298   0.691   6.633   7.476  0.4707  0.4319  0.2383
 1162SOL    HW1 4299   0.763   6.579   7.508 -0.2666 -0.0992  1.0347
 1162SOL    HW2 4300   0.644   6.661   7.555 -2.2701 -2.1426 -0.3613
 1163SOL     OW 4301   1.023   5.977   0.364  0.8772  0.3213  0.3313
 1163SOL    HW1 4302   1.039   6.034   0.289 -0.7833  0.3617 -0.0154
 1163SOL    HW2 4303   1.021   6.036   0.439  2.8254  0.2479  0.4766
 1164SOL     OW 4304   0.533   1.925   7.758  0.5911  0.0827  0.1251
 1164SOL    HW1 4305   0.566   2.012   7.782  0.1786  0.4726 -0.7160
 1164SOL    HW2 4306   0.593   1.864   7.802  1.6927  0.7878 -0.3728
 1165SOL     OW 4307   5.360   2.179   2.358  0.0103 -0.5063 -0.1663
 1165SOL    HW1 4308   5.401   2.100   2.395 -3.6474 -1.0285  3.1064
 1165SOL    HW2 4309   5.305   2.147   2.287  0.1068 -0.6359 -0.1826
 1166SOL     OW 4310   3.023   2.558   7.206  0.0539 -0.3781 -0.1105
 1166SOL    HW1 4311   2.944   2.600   7.173  2.1351  2.6847 -1.3787
 1166SOL    HW2 4312   3.049   2.611   7.281  0.7300 -1.6253  0.5628
 1167SOL     OW 4313   6.013   5.757   6.192 -0.9613  0.4772 -0.1763
 1167SOL    HW1 4314   5.979   5.731   6.107  0.7990  2.3766 -1.4928
 1167SOL    HW2 4315   6.103   5.725   6.193 -0.3794  2.0812  0.2054
 1168SOL     OW 4316   4.978   1.996   2.941 -0.1572  0.9231 -0.2887
 1168SOL    HW1 4317   4.936   1.912   2.929  1.1586 -0.3110  2.9680
 1168SOL    HW2 4318   5.050   1.997   2.878 -0.4279 -0.2427 -0.6175
 1169SOL     OW 4319   7.170   1.277   4.540 -0.2955 -0.0152  0.4641
 1169SOL    HW1 4320   7.202   1.188   4.524 -0.1258 -0.1073  1.3143
 1169SOL    HW2 4321   7.248   1.333   4.533 -0.5464  0.1865 -0.9596
 1170SOL     OW 4322   6.234   7.765   6.851 -0.6404  0.6724  0.3309
 1170SOL    HW1 4323   6.266   7.844   6.807 -1.3831  0.6718 -0.2146
 1170SOL    HW2 4324   6.182   7.720   6.784 -0.7897  0.0702  0.8535
 1171SOL     OW 4325   1.325   5.529   4.374 -0.8116  0.8333  0.2465
 1171SOL    HW1 4326   1.303   5.523   4.281  2.3662  1.1017 -0.5956
 1171SOL    HW2 4327   1.271   5.461   4.416 -0.1134 -1.3621 -2.2470
 1172SOL     OW 4328   7.034   4.889   0.239  0.7835  0.1720  0.0129
 1172SOL    HW1 4329   7.030   4.984   0.252  1.3124  0.4143 -1.4959
 1172SOL    HW2 4330   6.956   4.869   0.188  0.3044 -0.3226  0.9188
 1173SOL     OW 4331   7.594   5.353   2.049  0.4171 -0.4124  0.4623
 1173SOL    HW1 4332   7.637   5.268   2.044 -2.0685 -1.6743 -0.5584
 1173SOL    HW2 4333   7.637   5.406   1.983  1.7194 -0.9877  0.8252
 1174SOL     OW 4334   2.109   7.429   2.849  0.1238  0.0351  0.0123
 1174SOL    HW1 4335   2.044   7.404   2.783  0.1912  0.6039 -0.2734
 1174SOL    HW2 4336   2.105   7.525   2.850  0.3769  0.0344  0.5799
 1175SOL     OW 4337   2.209   4.619   1.566  0.1915  0.1631  0.1094
 1175SOL    HW1 4338   2.212   4.529   1.534 -0.7268  0.3246 -0.4735
 1175SOL    HW2 4339   2.280   4.625   1.630  1.2240 -0.5556 -0.9449
 1176SOL     OW 4340   5.277   6.066   2.634 -0.0221  0.2808  0.2022
 1176SOL    HW1 4341   5.366   6.036   2.616 -0.0759 -0.5261  1.2738
 1176SOL    HW2 4342   5.255   6.122   2.558  1.4120  0.5522 -0.0301
 1177SOL     OW 4343   3.952   1.935   2.021  0.0451  0.1319 -0.0007
 1177SOL    HW1 4344   3.875   1.923   1.966 -0.6842 -1.6394  1.3790
 1177SOL    HW2 4345   3.918   1.947   2.109  1.3064  0.5533  0.4503
 1178SOL     OW 4346   0.592   5.046   4.081 -0.0409  0.0501  0.1184
 1178SOL    HW1 4347   0.521   5.057   4.144 -1.2951  0.6167 -1.3796
 1178SOL    HW2 4348   0.646   5.124   4.092 -0.0174 -0.0590  0.7938
 1179SOL     OW 4349   0.167   6.557   1.993  0.2146  0.3986  0.2779
 1179SOL    HW1 4350   0.204   6.519   2.073 -1.9716 -0.1220  1.0759
 1179SOL    HW2 4351   0.086   6.508   1.978  0.5549  0.5159 -2.2478
 1180SOL     OW 4352   0.149   0.125   7.763  0.6448 -0.4205  0.3129
 1180SOL    HW1 4353   0.208   0.198   7.785 -1.1096  1.3532 -0.6775
 1180SOL    HW2 4354   0.116   0.095   7.847  1.5838 -0.2373  0.7534
 1181SOL     OW 4355   4.136   0.918   0.492  0.0560 -0.4658 -0.4252
 1181SOL    HW1 4356   4.050   0.892   0.460 -0.0499  0.9302 -1.3320
 1181SOL    HW2 4357   4.196   0.853   0.455 -0.1066  0.9289 -3.2983
 1182SOL     OW 4358   4.308   5.625   7.355 -0.1415 -0.4637 -0.1387
 1182SOL    HW1 4359   4.383   5.627   7.295 -0.9870 -0.3255 -1.2083
 1182SOL    HW2 4360   4.346   5.640   7.442  1.0615 -0.3531 -0.6733
 1183SOL     OW 4361   4.568   5.978   7.915  0.4770  0.1588  0.4322
 1183SOL    HW1 4362   4.511   6.045   7.953 -0.2379  0.0259 -0.3908
 1183SOL    HW2 4363   4.625   5.952   7.987 -2.1094 -1.4471  1.9859
 1184SOL     OW 4364   6.972   0.125   0.894 -0.1632  0.5089 -0.2625
 1184SOL    HW1 4365   6.899   0.170   0.935  0.1202  2.5727 -1.9532
 1184SOL    HW2 4366   7.038   0.192   0.879  1.3196 -0.9544 -0.4935
 1185SOL     OW 4367   6.946   0.919   4.736 -0.1658 -0.2008 -0.0283
 1185SOL    HW1 4368   7.028   0.936   4.783 -0.1715  0.2016 -0.1636
 1185SOL    HW2 4369   6.882   0.904   4.806  0.2758 -1.7200  0.0628
 1186SOL     OW 4370   7.932   4.552   1.766 -0.0201 -0.0764  0.3987
 1186SOL    HW1 4371   7.883   4.634   1.770  0.1394  0.0923 -1.0146
 1186SOL    HW2 4372   8.021   4.578   1.742 -0.6083 -0.8900 -2.8417
 1187SOL     OW 4373   1.583   2.285   2.455 -0.5207 -0.0432  0.4803
 1187SOL    HW1 4374   1.515   2.230   2.494 -1.0764 -0.5997 -1.2419
 1187SOL    HW2 4375   1.543   2.372   2.449 -1.2465 -0.4616 -0.9095
 1188SOL     OW 4376   7.253   4.342   3.576  0.1223 -0.1179 -0.0498
 1188SOL    HW1 4377   7.162   4.321   3.555  0.2608  0.0064 -0.8048
 1188SOL    HW2 4378   7.303   4.273   3.532  0.4498  0.4683 -0.5997
 1189SOL     OW 4379   5.509   2.333   4.004 -0.1820 -0.4689 -0.6904
 1189SOL    HW1 4380   5.430   2.377   3.971 -0.7651 -0.1767  1.0413
 1189SOL    HW2 4381   5.476   2.269   4.067  0.9191 -0.9198 -0.5638
 1190SOL     OW 4382   0.378   1.981   5.442 -0.7390  0.1187  0.0191
 1190SOL    HW1 4383   0.427   1.903   5.469 -2.2598 -0.6299  0.6865
 1190SOL    HW2 4384   0.295   1.946   5.409 -0.7273  1.3517 -1.3248
 1191SOL     OW 4385   7.488   6.157   5.171  0.3526  0.4747 -0.2887
 1191SOL    HW1 4386   7.540   6.106   5.233 -0.1515  0.2322 -0.0676
 1191SOL    HW2 4387   7.502   6.115   5.087 -0.9270 -0.6989  0.0666
 1192SOL     OW 4388   6.547   4.474   6.227  0.2628 -0.3714 -0.2016
 1192SOL    HW1 4389   6.525   4.407   6.162 -0.5399 -0.4924  0.1862
 1192SOL    HW2 4390   6.475   4.470   6.291 -0.8503  2.2002 -1.2255
 1193SOL     OW 4391   6.315   4.873   6.922  0.4943  0.2924 -0.2149
 1193SOL    HW1 4392   6.400   4.831   6.934  1.1361  1.2290 -1.3298
 1193SOL    HW2 4393   6.293   4.858   6.830 -0.8157 -0.4153  0.1985
 1194SOL     OW 4394   1.530   1.936   3.921 -0.0185  0.0053  0.2370
 1194SOL    HW1 4395   1.441   1.930   3.958 -0.4959 -0.9184 -1.0337
 1194SOL    HW2 4396   1.549   1.847   3.891  0.6157  0.6134 -1.1583
 1195SOL     OW 4397   5.260   6.082   3.245 -0.3069  0.2497  0.5292
 1195SOL    HW1 4398   5.313   6.006   3.223 -0.8704  0.1617 -0.6144
 1195SOL    HW2 4399   5.268   6.092   3.340  0.3239 -0.8120  0.5887
 1196SOL     OW 4400   1.255   5.678   6.324 -0.0312  0.6795  0.5072
 1196SOL    HW1 4401   1.271   5.756   6.376 -0.2661  1.7491 -0.9905
 1196SOL    HW2 4402   1.321   5.615   6.354  0.4563  1.6003  1.4050
 1197SOL     OW 4403   7.607   2.391   5.870  0.0237 -0.6780  0.2105
 1197SOL    HW1 4404   7.685   2.444   5.884  0.1113 -0.5328 -0.8048
 1197SOL    HW2 4405   7.534   2.452   5.882  0.1295 -0.2644 -1.2042
 1198SOL     OW 4406   2.731   6.430   2.494 -0.2206 -0.1945  0.3007
 1198SOL    HW1 4407   2.676   6.393   2.424 -0.7172  1.0223  0.0364
 1198SOL    HW2 4408   2.817   6.443   2.454 -0.2619 -0.3356  0.1677
 1199SOL     OW 4409   0.009   5.747   3.255  0.3219 -0.3394  0.3784
 1199SOL    HW1 4410   0.033   5.678   3.317 -0.9552 -1.2416 -0.1054
 1199SOL    HW2 4411  -0.007   5.700   3.173 -0.2843  0.5717 -0.0275
 1200SOL     OW 4412   1.211   6.092   7.833  0.5655  0.1925 -0.2237
 1200SOL    HW1 4413   1.262   6.122   7.909  0.8499 -2.0207  0.5144
 1200SOL    HW2 4414   1.250   6.007   7.811 -1.3114 -0.4682 -1.0938
 1201SOL     OW 4415   4.547   6.735   0.229  0.5251 -0.0363  0.2881
 1201SOL    HW1 4416   4.487   6.802   0.262 -0.2460 -0.8532  0.5599
 1201SOL    HW2 4417   4.633   6.763   0.260  0.1369  0.5307  0.8815
 1202SOL     OW 4418   3.237   7.660   3.571 -0.2848  0.0184 -0.6881
 1202SOL    HW1 4419   3.330   7.638   3.567  0.1465  1.5957  0.3546
 1202SOL    HW2 4420   3.235   7.755   3.582 -2.0165 -0.0051 -0.6737
 1203SOL     OW 4421   4.499   0.973   3.318  0.0101 -0.5155  0.4845
 1203SOL    HW1 4422   4.414   0.995   3.281  0.2647 -1.0823 -0.4493
 1203SOL    HW2 4423   4.496   0.879   3.333  0.2107 -0.4198  1.1232
 1204SOL     OW 4424   0.739   2.216   5.543  0.0554 -0.1922  0.1914
 1204SOL    HW1 4425   0.771   2.241   5.456  1.9416  0.4579  1.0599
 1204SOL    HW2 4426   0.757   2.123   5.549 -2.6484 -0.8737 -1.1787
 1205SOL     OW 4427   1.970   0.863   2.359 -0.5437  0.0022 -0.1053
 1205SOL    HW1 4428   2.025   0.799   2.312 -0.3585 -0.2594  0.4603
 1205SOL    HW2 4429   2.032   0.923   2.399 -0.7460  1.1398 -1.4617
 1206SOL     OW 4430   2.883   2.659   4.473 -0.0144 -0.5731  0.2797
 1206SOL    HW1 4431   2.937   2.635   4.548  1.1930  1.6291  0.1564
 1206SOL    HW2 4432   2.805   2.700   4.511 -0.7433 -2.0496  0.4009
 1207SOL     OW 4433   4.660   6.624   2.986 -0.1820  0.3986 -0.0164
 1207SOL    HW1 4434   4.606   6.634   2.908  0.5789  1.8381 -0.3840
 1207SOL    HW2 4435   4.617   6.677   3.053 -1.5828 -1.9141  0.9742
 1208SOL     OW 4436   2.721   5.460   6.692 -0.0572  0.2214 -0.4899
 1208SOL    HW1 4437   2.801   5.439   6.643  1.2161  2.4940  0.4906
 1208SOL    HW2 4438   2.752   5.475   6.781 -1.8957 -0.7994  0.3240
 1209SOL     OW 4439   3.476   1.811   4.693 -0.3944 -0.2549 -0.3851
 1209SOL    HW1 4440   3.527   1.872   4.639 -1.1933  0.4820 -0.3208
 1209SOL    HW2 4441   3.525   1.803   4.774  0.2030 -0.4350 -0.7649
 1210SOL     OW 4442   6.264   5.917   6.487  0.0888 -0.2541 -0.0537
 1210SOL    HW1 4443   6.231   5.994   6.440 -0.2957 -0.5666 -0.3040
 1210SOL    HW2 4444   6.318   5.871   6.423 -1.0227 -1.0691 -0.4411
 1211SOL     OW 4445   2.344   4.427   6.854  0.3974 -0.0971 -0.5494
 1211SOL    HW1 4446   2.349   4.452   6.762 -2.4196 -0.3965 -0.8484
 1211SOL    HW2 4447   2.344   4.510   6.901  0.9382  0.0954 -0.8910
 1212SOL     OW 4448   5.946   5.396   0.128  0.7202 -0.2048  0.5345
 1212SOL    HW1 4449   5.902   5.392   0.213  0.3905  3.7183  0.6559
 1212SOL    HW2 4450   5.876   5.415   0.066  1.3913 -0.0028 -0.1642
 1213SOL     OW 4451   7.190   6.734   1.698  0.0144  0.6434  0.4839
 1213SOL    HW1 4452   7.252   6.697   1.760  1.4269 -0.8867 -1.7521
 1213SOL    HW2 4453   7.241   6.799   1.649 -0.4102  0.1395 -0.6532
 1214SOL     OW 4454   5.041   0.578   4.537 -0.0391 -0.1268 -0.3132
 1214SOL    HW1 4455   5.028   0.671   4.556 -2.1830 -0.5134  0.2653
 1214SOL    HW2 4456   5.091   0.577   4.456  1.1003  1.5272  0.3306
 1215SOL     OW 4457   5.869   6.448   1.173  1.1083  0.1429  0.2867
 1215SOL    HW1 4458   5.938   6.411   1.118  1.3945 -0.9405  1.3743
 1215SOL    HW2 4459   5.846   6.378   1.234 -1.6424  0.1418 -0.6772
 1216SOL     OW 4460   6.551   2.743   7.146  0.0811 -0.2178 -0.2422
 1216SOL    HW1 4461   6.539   2.812   7.080  1.4182  0.8371  0.5872
 1216SOL    HW2 4462   6.469   2.744   7.196  0.5161  1.6018  0.5033
 1217SOL     OW 4463   3.074   6.948   3.973  0.0761  0.1198 -0.0205
 1217SOL    HW1 4464   3.026   6.872   4.006 -1.3188  0.7501 -0.5536
 1217SOL    HW2 4465   3.063   7.014   4.042  0.4033  0.1695 -0.0182
 1218SOL     OW 4466   4.431   3.339   5.508 -0.2467 -0.0326 -0.0090
 1218SOL    HW1 4467   4.500   3.353   5.443 -0.1867 -0.7238 -0.1053
 1218SOL    HW2 4468   4.415   3.425   5.546  0.6839  0.1333  0.0183
 1219SOL     OW 4469   6.952   6.121   6.068  0.5550 -0.4651  0.1132
 1219SOL    HW1 4470   6.888   6.147   6.134 -0.7619 -0.0066 -1.3324
 1219SOL    HW2 4471   6.950   6.190   6.003  3.7541  0.4173  0.8385
 1220SOL     OW 4472   0.232   0.344   0.795  0.2973  0.3327  0.2659
 1220SOL    HW1 4473   0.157   0.377   0.844  1.3202  2.7052  0.2922
 1220SOL    HW2 4474   0.245   0.255   0.827 -0.4077  1.0781  2.6828
 1221SOL     OW 4475   7.142   3.753   0.822 -0.3842 -0.0436  0.1330
 1221SOL    HW1 4476   7.089   3.673   0.814 -1.3187  0.3948  1.7301
 1221SOL    HW2 4477   7.232   3.721   0.823 -0.7961 -1.2816  2.4413
 1222SOL     OW 4478   6.405   7.694   3.840 -0.1231 -0.0703 -0.4441
 1222SOL    HW1 4479   6.489   7.699   3.884 -0.1805 -0.0074 -0.3434
 1222SOL    HW2 4480   6.378   7.785   3.828 -1.3570 -0.1122  1.7552
 1223SOL     OW 4481   2.466   5.696   5.614  0.1829  1.1685 -0.6978
 1223SOL    HW1 4482   2.418   5.772   5.645  0.2469  1.0101 -0.2096
 1223SOL    HW2 4483   2.425   5.622   5.659  0.0011  0.8898 -1.3031
 1224SOL     OW 4484   7.051   4.868   6.179 -0.2242 -0.1465  0.1958
 1224SOL    HW1 4485   7.064   4.948   6.127  2.0623 -0.5289  0.1092
 1224SOL    HW2 4486   6.959   4.870   6.204 -0.2596  2.3924 -0.0163
 1225SOL     OW 4487   2.003   0.608   6.687 -0.0827  0.4866 -0.1730
 1225SOL    HW1 4488   2.030   0.623   6.597  0.0208 -0.6508 -0.3287
 1225SOL    HW2 4489   2.083   0.581   6.732 -0.6536 -1.5224 -0.3265
 1226SOL     OW 4490   6.458   5.961   3.197 -0.7365  0.0190  0.2192
 1226SOL    HW1 4491   6.459   5.867   3.218  0.8316 -0.1460 -0.5166
 1226SOL    HW2 4492   6.489   6.003   3.277 -0.5570 -0.1621  0.2463
 1227SOL     OW 4493   6.545   6.326   4.153  0.5599  0.0413  0.5077
 1227SOL    HW1 4494   6.480   6.285   4.210  2.5261 -1.6227  1.6307
 1227SOL    HW2 4495   6.522   6.419   4.153 -2.0077 -0.5644  0.5816
 1228SOL     OW 4496   3.579   2.027   4.520  0.8521  0.4212 -0.1868
 1228SOL    HW1 4497   3.629   2.032   4.601  0.2091 -2.0312  0.3925
 1228SOL    HW2 4498   3.643   2.045   4.451  2.1829 -1.0310  0.6404
 1229SOL     OW 4499   7.174   1.788   2.404 -0.0710 -0.3994  0.0415
 1229SOL    HW1 4500   7.112   1.859   2.416  0.2622  0.0453 -0.8187
 1229SOL    HW2 4501   7.195   1.759   2.493 -0.0326  0.7313  0.4060
 1230SOL     OW 4502   1.148   0.707   1.018 -0.0923 -0.4077  0.1271
 1230SOL    HW1 4503   1.198   0.696   1.099  0.9363 -1.1018 -0.5883
 1230SOL    HW2 4504   1.075   0.763   1.043  0.2457 -0.5554  1.5250
 1231SOL     OW 4505   2.128   1.569   2.708  0.6856 -0.6536  0.1196
 1231SOL    HW1 4506   2.137   1.634   2.639 -0.2350 -1.4089 -0.7304
 1231SOL    HW2 4507   2.078   1.498   2.668  0.2924 -1.1819  1.5064
 1232SOL     OW 4508   2.320   2.759   6.475 -0.1340 -1.0952  0.2495
 1232SOL    HW1 4509   2.372   2.835   6.502 -0.0714 -1.1551  0.2979
 1232SOL    HW2 4510   2.248   2.756   6.539 -0.5322 -0.6594 -0.1767
 1233SOL     OW 4511   4.518   2.610   2.861 -0.0987  0.1966 -0.1237
 1233SOL    HW1 4512   4.579   2.536   2.859  0.7115  0.8975 -2.7364
 1233SOL    HW2 4513   4.461   2.591   2.935  1.7106 -1.7464  0.8371
 1234SOL     OW 4514   3.820   6.604   3.480  0.0218 -0.1182  0.1613
 1234SOL    HW1 4515   3.891   6.609   3.416 -0.7393 -0.8218 -0.7575
 1234SOL    HW2 4516   3.805   6.510   3.491 -2.2665  0.0193 -1.3572
 1235SOL     OW 4517   1.090   7.771   4.120 -0.5345 -0.1404 -0.3317
 1235SOL    HW1 4518   1.072   7.817   4.038 -1.1518  1.5955  0.7564
 1235SOL    HW2 4519   1.012   7.719   4.136  0.0227 -1.3245 -1.3845
 1236SOL     OW 4520   5.290   7.408   6.704 -0.3145  0.1970 -0.3582
 1236SOL    HW1 4521   5.213   7.430   6.652  0.1007 -0.6531 -1.3464
 1236SOL    HW2 4522   5.258   7.348   6.771 -0.4100 -0.6867 -1.1771
 1237SOL     OW 4523   2.594   0.495   2.861 -0.1458 -0.4801 -0.2923
 1237SOL    HW1 4524   2.557   0.454   2.940 -0.8158 -0.8314 -0.7810
 1237SOL    HW2 4525   2.540   0.573   2.848  1.3175  0.7527  0.8119
 1238SOL     OW 4526   5.644   0.554   2.465 -0.2781 -0.4265 -0.5032
 1238SOL    HW1 4527   5.670   0.537   2.375  0.2972  2.3604 -0.9244
 1238SOL    HW2 4528   5.688   0.636   2.488 -1.2433 -0.5385  1.9542
 1239SOL     OW 4529   3.185   4.717   1.144  0.3657 -0.4461  0.0259
 1239SOL    HW1 4530   3.247   4.658   1.187 -0.3293 -0.9481  0.3465
 1239SOL    HW2 4531   3.110   4.661   1.121  0.7499 -0.2073 -1.9030
 1240SOL     OW 4532   7.411   1.495   4.848 -0.3442 -0.1258  0.2330
 1240SOL    HW1 4533   7.350   1.568   4.860  0.9318  0.7086  1.8775
 1240SOL    HW2 4534   7.459   1.490   4.930 -0.4472 -2.9017  0.1627
 1241SOL     OW 4535   4.230   3.827   4.710 -0.2545 -0.1637  0.5208
 1241SOL    HW1 4536   4.295   3.769   4.670  0.5366  0.9082  0.2529
 1241SOL    HW2 4537   4.207   3.888   4.641 -0.3533  0.4661  1.1089
 1242SOL     OW 4538   2.843   4.538   2.729 -0.3952 -0.3251 -0.1341
 1242SOL    HW1 4539   2.851   4.533   2.634  0.0715  0.0929 -0.1180
 1242SOL    HW2 4540   2.932   4.553   2.760 -0.9861  3.0196  0.1400
 1243SOL     OW 4541   1.204   2.976   6.552  0.0189  0.2853  0.7352
 1243SOL    HW1 4542   1.293   3.011   6.555  0.2028  0.2018 -2.2480
 1243SOL    HW2 4543   1.155   3.029   6.615  1.9603  0.9110  1.7623
 1244SOL     OW 4544   2.484   3.485   6.958  0.4162  1.0262 -0.0881
 1244SOL    HW1 4545   2.391   3.495   6.933  0.2748  4.0200  1.4596
 1244SOL    HW2 4546   2.530   3.482   6.874 -1.1724 -2.0695 -0.9296
 1245SOL     OW 4547   7.536   6.848   5.429  0.2857  0.3456  0.6301
 1245SOL    HW1 4548   7.451   6.815   5.401  0.7901 -1.5874  1.2938
 1245SOL    HW2 4549   7.598   6.812   5.366  0.9680 -0.9273  1.9932
 1246SOL     OW 4550   2.803   7.297   1.515  0.2772  0.5433 -0.4097
 1246SOL    HW1 4551   2.791   7.255   1.430 -1.8218  1.7825 -0.7637
 1246SOL    HW2 4552   2.841   7.382   1.494 -1.9869  1.6158 -0.2982
 1247SOL     OW 4553   7.647   0.773   0.940  0.1526 -0.2288  0.6754
 1247SOL    HW1 4554   7.662   0.849   0.884  0.8452 -1.5255 -0.9393
 1247SOL    HW2 4555   7.563   0.738   0.910  0.8058 -1.2665  0.0573
 1248SOL     OW 4556   1.721   6.970   3.943 -0.1029  0.0776 -0.0680
 1248SOL    HW1 4557   1.764   6.886   3.958 -0.9739 -0.6182 -1.3569
 1248SOL    HW2 4558   1.658   6.978   4.015  0.3373 -0.1266  0.3420
 1249SOL     OW 4559   3.455   2.359   1.427 -0.0265 -0.2023 -0.1644
 1249SOL    HW1 4560   3.464   2.425   1.495 -0.7842 -0.8033  0.5234
 1249SOL    HW2 4561   3.426   2.280   1.473  0.0008 -0.7660 -1.0988
 1250SOL     OW 4562   6.112   2.540   7.267  0.2305  0.0709 -0.4907
 1250SOL    HW1 4563   6.161   2.517   7.346  0.2012  1.4644 -0.0559
 1250SOL    HW2 4564   6.133   2.470   7.205  0.6931 -0.7403  0.5582
 1251SOL     OW 4565   7.107   5.427   0.072 -0.3574  0.2669 -0.0243
 1251SOL    HW1 4566   7.026   5.445   0.026  0.8521  1.1010 -1.9058
 1251SOL    HW2 4567   7.111   5.493   0.141 -2.5570 -1.4719  1.8213
 1252SOL     OW 4568   6.334   3.279   4.296  0.4119  0.5836 -0.8472
 1252SOL    HW1 4569   6.395   3.332   4.346  1.9125  0.0715 -2.0851
 1252SOL    HW2 4570   6.252   3.281   4.346  1.4203  1.3435  0.7868
 1253SOL     OW 4571   2.067   4.027   7.944  0.3528  0.1200  0.1074
 1253SOL    HW1 4572   2.024   4.046   7.861 -0.7639 -1.2030  0.3624
 1253SOL    HW2 4573   2.111   3.943   7.930 -0.8926 -0.7376  1.2217
 1254SOL     OW 4574   6.647   7.791   6.196  0.0540  0.1365 -0.3176
 1254SOL    HW1 4575   6.684   7.765   6.280 -0.3910 -0.0153 -0.1653
 1254SOL    HW2 4576   6.563   7.832   6.219 -0.0103  0.2084 -0.6789
 1255SOL     OW 4577   5.324   3.837   2.625  0.2998  0.3202 -0.2953
 1255SOL    HW1 4578   5.284   3.886   2.553 -0.2797  1.8354  1.0389
 1255SOL    HW2 4579   5.336   3.901   2.694 -1.2938 -1.5942  1.8252
 1256SOL     OW 4580   5.542   1.982   2.113  0.4521 -0.0056  0.4100
 1256SOL    HW1 4581   5.470   2.033   2.075  0.8122  0.4755  0.3730
 1256SOL    HW2 4582   5.539   1.899   2.066 -0.2027 -0.0640  0.5391
 1257SOL     OW 4583   5.793   3.225   1.602  0.0784  0.1708 -0.0857
 1257SOL    HW1 4584   5.795   3.273   1.685  0.5568  0.5853 -0.3312
 1257SOL    HW2 4585   5.744   3.146   1.621 -1.7712  1.3067  0.0309
 1258SOL     OW 4586   5.713   6.247   4.959  0.6191  0.0315 -0.0020
 1258SOL    HW1 4587   5.717   6.305   5.035  1.1069 -0.5523  0.4226
 1258SOL    HW2 4588   5.801   6.209   4.954 -0.2428 -2.1105  0.8648
 1259SOL     OW 4589   4.883   2.244   1.534  0.1122 -0.3109  0.3446
 1259SOL    HW1 4590   4.821   2.292   1.588 -0.8384 -1.5660  0.3824
 1259SOL    HW2 4591   4.949   2.212   1.595 -1.2323 -2.1551  0.8473
 1260SOL     OW 4592   6.666   1.541   5.737 -0.2017 -0.0112  0.0388
 1260SOL    HW1 4593   6.610   1.588   5.800 -1.5044  0.0453 -1.1285
 1260SOL    HW2 4594   6.612   1.468   5.708  0.0550  0.4541 -1.6457
 1261SOL     OW 4595   5.529   4.365   5.813  0.2339 -0.2725  0.0602
 1261SOL    HW1 4596   5.458   4.308   5.842 -0.8031  0.4217 -1.0435
 1261SOL    HW2 4597   5.597   4.355   5.880 -1.5887  0.3809  2.0765
 1262SOL     OW 4598   2.604   6.764   3.740 -0.6351 -0.6580 -0.3474
 1262SOL    HW1 4599   2.656   6.786   3.818 -1.9971 -1.4164  0.7795
 1262SOL    HW2 4600   2.628   6.832   3.677 -0.8832  1.0605  1.3488
 1263SOL     OW 4601   4.414   3.339   0.698 -0.4674  0.6186  0.2375
 1263SOL    HW1 4602   4.464   3.367   0.622  0.7182  1.8094  1.4490
 1263SOL    HW2 4603   4.426   3.408   0.762 -1.4111 -0.4007  1.5417
 1264SOL     OW 4604   3.220   3.596   0.290  0.2561 -0.5499 -0.3308
 1264SOL    HW1 4605   3.178   3.674   0.254 -0.9452 -1.1743 -0.3004
 1264SOL    HW2 4606   3.227   3.614   0.384 -0.7993 -0.8341 -0.1968
 1265SOL     OW 4607   7.497   3.485   2.019  0.8237 -0.0910 -0.2977
 1265SOL    HW1 4608   7.496   3.468   1.925  0.5401 -0.7949 -0.1679
 1265SOL    HW2 4609   7.530   3.404   2.058  0.4920  0.0320  0.2464
 1266SOL     OW 4610   4.259   4.029   0.485 -0.1242  0.2595  0.5182
 1266SOL    HW1 4611   4.305   4.113   0.492  2.3641 -0.9092 -1.2483
 1266SOL    HW2 4612   4.181   4.049   0.433  1.2058  1.2156 -1.1630
 1267SOL     OW 4613   0.694   1.390   4.161 -0.0704  0.4210  0.6958
 1267SOL    HW1 4614   0.746   1.471   4.164 -2.5122  2.0364  0.5704
 1267SOL    HW2 4615   0.649   1.388   4.245  1.2918 -1.7473  1.4043
 1268SOL     OW 4616   5.592   6.498   6.842  0.2320 -0.3533  0.3353
 1268SOL    HW1 4617   5.553   6.450   6.916  0.2306  1.2521  1.3862
 1268SOL    HW2 4618   5.557   6.454   6.764 -1.7098 -0.5045  1.2683
 1269SOL     OW 4619   7.301   3.604   7.844  0.3164  0.6509 -0.5530
 1269SOL    HW1 4620   7.231   3.540   7.833  0.5993  0.6648 -2.8011
 1269SOL    HW2 4621   7.336   3.589   7.932 -0.3082 -1.5672 -0.6706
 1270SOL     OW 4622   3.102   2.736   7.403 -0.5694 -0.0519 -0.3370
 1270SOL    HW1 4623   3.044   2.812   7.399 -1.8955 -1.0322 -0.3806
 1270SOL    HW2 4624   3.190   2.772   7.407 -1.2617  1.5140  1.3503
 1271SOL     OW 4625   4.420   2.600   5.844 -0.1473 -0.4673 -0.5743
 1271SOL    HW1 4626   4.383   2.564   5.764  0.2092 -0.6586 -0.6529
 1271SOL    HW2 4627   4.419   2.695   5.831 -1.9576 -0.3918  0.0115
 1272SOL     OW 4628   5.716   6.701   6.731  0.5829 -0.6535 -0.6090
 1272SOL    HW1 4629   5.810   6.694   6.713  0.5122 -1.6158 -0.6793
 1272SOL    HW2 4630   5.695   6.619   6.776 -0.1918 -0.3789 -0.4731
 1273SOL     OW 4631   4.487   1.143   7.238  0.1982 -0.0613 -0.2237
 1273SOL    HW1 4632   4.556   1.180   7.182  0.1645 -1.8522 -1.4842
 1273SOL    HW2 4633   4.425   1.105   7.176 -0.5244 -0.8710  1.0096
 1274SOL     OW 4634   2.846   0.423   2.865 -0.2095 -0.3847 -0.2851
 1274SOL    HW1 4635   2.854   0.364   2.791 -2.6919 -1.5317  0.3078
 1274SOL    HW2 4636   2.754   0.446   2.868  0.1429  0.9465  1.4596
 1275SOL     OW 4637   0.223   4.799   7.083  0.0435  0.6966  0.0570
 1275SOL    HW1 4638   0.213   4.857   7.158  1.5953  0.4843  0.4387
 1275SOL    HW2 4639   0.284   4.731   7.112 -0.8476 -0.4977 -0.7615
 1276SOL     OW 4640   3.113   5.326   0.384  0.4866 -0.3985  0.1434
 1276SOL    HW1 4641   3.204   5.329   0.353 -0.0183 -2.0989 -1.6020
 1276SOL    HW2 4642   3.083   5.239   0.360 -1.1331 -0.4066  2.1253
 1277SOL     OW 4643   6.973   1.112   2.001 -0.3471  0.3125  0.0326
 1277SOL    HW1 4644   6.924   1.122   2.082 -0.5259 -0.1215 -0.0231
 1277SOL    HW2 4645   6.992   1.018   1.995 -3.4231 -0.2228 -2.2222
 1278SOL     OW 4646   0.746   5.417   5.920 -0.0243  0.1515  0.1369
 1278SOL    HW1 4647   0.723   5.328   5.946 -0.4056 -0.0960 -1.0082
 1278SOL    HW2 4648   0.801   5.450   5.991 -0.8970 -0.5622  1.1403
 1279SOL     OW 4649   7.350   7.504   5.149  0.3707  0.0360 -0.7334
 1279SOL    HW1 4650   7.319   7.563   5.081  1.1413  1.5775  0.2333
 1279SOL    HW2 4651   7.407   7.558   5.204  1.9797 -1.8581 -0.4632
 1280SOL     OW 4652   7.463   1.288   4.306  0.1930  0.5518  0.0958
 1280SOL    HW1 4653   7.436   1.375   4.335 -0.0079  0.1204  1.2247
 1280SOL    HW2 4654   7.517   1.255   4.377  0.6432 -0.0719 -0.5287
 1281SOL     OW 4655   7.750   4.461   2.878  0.1227 -0.2503  0.0766
 1281SOL    HW1 4656   7.839   4.446   2.909  0.1604 -0.6854 -0.2429
 1281SOL    HW2 4657   7.744   4.410   2.797  0.3359  1.6163 -1.1498
 1282SOL     OW 4658   6.934   6.774   6.284 -0.3191 -0.8262 -0.6388
 1282SOL    HW1 4659   6.964   6.696   6.239  0.4361  0.3237 -2.1839
 1282SOL    HW2 4660   6.851   6.796   6.242  0.2201  0.0583 -1.2588
 1283SOL     OW 4661   2.878   2.828   1.811 -0.1947 -0.2156  0.0785
 1283SOL    HW1 4662   2.899   2.903   1.756 -2.4849 -0.5829 -1.3477
 1283SOL    HW2 4663   2.875   2.753   1.751 -1.8174 -0.7714  0.8291
 1284SOL     OW 4664   1.348   4.386   7.312  0.6509 -0.5335 -0.2400
 1284SOL    HW1 4665   1.430   4.435   7.309  1.3953 -1.6545  1.1963
 1284SOL    HW2 4666   1.295   4.432   7.377  0.0774  0.2759 -1.2738
 1285SOL     OW 4667   2.890   6.188   0.885  0.2516  0.2590  0.0113
 1285SOL    HW1 4668   2.870   6.095   0.874 -0.1772  0.5955 -2.4390
 1285SOL    HW2 4669   2.948   6.209   0.811  2.2317  1.4278  1.8414
 1286SOL     OW 4670   1.211   0.821   2.875  0.0376 -0.0492 -0.1596
 1286SOL    HW1 4671   1.124   0.838   2.839  0.1902  1.7352  0.2658
 1286SOL    HW2 4672   1.269   0.822   2.799  0.1311  2.0699 -0.0813
 1287SOL     OW 4673   1.594   3.190   6.245  0.2493 -0.5155  0.2027
 1287SOL    HW1 4674   1.530   3.240   6.296  0.7027  0.0585  0.2124
 1287SOL    HW2 4675   1.627   3.253   6.181 -0.5159 -1.3022 -0.9826
 1288SOL     OW 4676   5.066   1.498   0.162  0.1296  0.8083  0.3846
 1288SOL    HW1 4677   5.033   1.430   0.104  0.8266  0.3434  0.5220
 1288SOL    HW2 4678   4.991   1.554   0.179  0.0283  1.1877 -1.3017
 1289SOL     OW 4679   5.859   4.314   3.822 -0.0100 -0.1121  0.7122
 1289SOL    HW1 4680   5.777   4.362   3.814 -0.3256 -0.7541  0.0918
 1289SOL    HW2 4681   5.838   4.239   3.877  0.1691 -0.2690  0.5676
 1290SOL     OW 4682   7.900   2.713   1.728 -0.6634 -0.0613 -0.0764
 1290SOL    HW1 4683   7.881   2.651   1.798  0.8414  0.5621  0.9000
 1290SOL    HW2 4684   7.829   2.777   1.733 -0.7712 -0.2328  0.6369
 1291SOL     OW 4685   1.375   4.297   5.711 -0.8649  0.0502 -0.0261
 1291SOL    HW1 4686   1.462   4.328   5.735 -0.9907  0.4558 -0.0806
 1291SOL    HW2 4687   1.321   4.311   5.789 -1.1948  1.0653 -0.4130
 1292SOL     OW 4688   0.248   6.182   1.264  0.3123 -0.4038  0.1166
 1292SOL    HW1 4689   0.307   6.128   1.211  0.0611  1.0369 -1.7013
 1292SOL    HW2 4690   0.172   6.198   1.207 -1.2588 -1.1676  1.9624
 1293SOL     OW 4691   6.212   7.090   1.365 -0.4788 -0.0189 -0.0474
 1293SOL    HW1 4692   6.284   7.034   1.334 -0.2622  1.0167 -1.4222
 1293SOL    HW2 4693   6.252   7.143   1.434 -0.3933 -0.7235  0.4572
 1294SOL     OW 4694   3.025   0.135   6.656 -0.0354  0.4128 -0.3232
 1294SOL    HW1 4695   3.039   0.056   6.709  1.1422  0.8576  0.0446
 1294SOL    HW2 4696   3.113   0.167   6.636 -0.4999  2.2875  0.5046
 1295SOL     OW 4697   2.990   1.737   6.372  0.0195  0.1701 -0.3405
 1295SOL    HW1 4698   3.040   1.656   6.370 -1.7847 -0.9617 -0.1558
 1295SOL    HW2 4699   2.923   1.723   6.440  1.0469  2.6229  1.2704
 1296SOL     OW 4700   4.483   1.179   0.583 -0.1888 -0.2047 -0.2267
 1296SOL    HW1 4701   4.456   1.123   0.656  0.0554  0.3748  0.3192
 1296SOL    HW2 4702   4.577   1.192   0.597 -0.3216  0.6818 -0.0965
 1297SOL     OW 4703   7.140   5.473   0.379 -0.8979  0.0168 -0.4667
 1297SOL    HW1 4704   7.163   5.390   0.420 -0.8109 -0.2993 -1.1512
 1297SOL    HW2 4705   7.222   5.523   0.379 -0.6552 -0.3768 -1.1791
 1298SOL     OW 4706   1.223   3.702   2.585 -0.6060 -0.0278  0.1133
 1298SOL    HW1 4707   1.209   3.737   2.497 -2.3546  0.3651  0.5263
 1298SOL    HW2 4708   1.163   3.628   2.591 -0.7853  0.1999  1.1143
 1299SOL     OW 4709   3.022   1.966   1.078  0.5253 -0.6653  0.4025
 1299SOL    HW1 4710   3.095   2.025   1.058  0.1867 -0.0461  0.9536
 1299SOL    HW2 4711   3.058   1.878   1.070  0.6167 -0.4310 -2.1782
 1300SOL     OW 4712   4.288   5.361   5.213 -0.4798  0.2573  0.3664
 1300SOL    HW1 4713   4.336   5.444   5.219 -0.5024  0.2317  0.9208
 1300SOL    HW2 4714   4.356   5.296   5.195 -0.1772  0.0890  2.0509
 1301SOL     OW 4715   6.021   6.098   1.989  0.3336  0.0303 -0.0923
 1301SOL    HW1 4716   6.075   6.027   2.025  1.3128 -0.0802 -1.7505
 1301SOL    HW2 4717   5.938   6.091   2.037  1.3992 -0.4696  1.7302
 1302SOL     OW 4718   4.530   7.272   2.979 -0.2143 -0.5985 -0.0230
 1302SOL    HW1 4719   4.505   7.306   2.893 -0.2361 -1.1631 -0.2426
 1302SOL    HW2 4720   4.615   7.230   2.964  0.5071  0.6320  0.5533
 1303SOL     OW 4721   6.442   1.088   1.592  0.1852 -0.2346  0.2139
 1303SOL    HW1 4722   6.463   1.016   1.650  0.6642 -0.4547 -0.2267
 1303SOL    HW2 4723   6.358   1.121   1.624  1.0617  0.4806  1.8161
 1304SOL     OW 4724   2.165   4.274   5.980 -0.4398  0.2733 -0.2065
 1304SOL    HW1 4725   2.186   4.240   5.893 -1.4571  1.9490 -1.1098
 1304SOL    HW2 4726   2.232   4.235   6.037 -0.0718 -1.2386 -1.6239
 1305SOL     OW 4727   1.289   5.760   5.706  0.1101 -0.1671  0.1806
 1305SOL    HW1 4728   1.275   5.848   5.740  1.5392 -0.1241  0.7159
 1305SOL    HW2 4729   1.205   5.734   5.670 -0.1705  1.6798 -0.5816
 1306SOL     OW 4730   6.821   1.233   3.662  0.0744  0.0597 -0.0074
 1306SOL    HW1 4731   6.794   1.221   3.571  0.0925 -0.0671  0.0045
 1306SOL    HW2 4732   6.913   1.259   3.657 -1.0726  4.5843 -0.3006
 1307SOL     OW 4733   7.601   1.809   5.032  0.1539 -0.3521 -0.0530
 1307SOL    HW1 4734   7.557   1.882   4.987 -0.6289 -1.4085 -1.0260
 1307SOL    HW2 4735   7.562   1.808   5.120 -1.9870 -1.4207 -0.9741
 1308SOL     OW 4736   7.898   6.355   0.443  0.6373  0.0188 -0.0456
 1308SOL    HW1 4737   7.872   6.444   0.466  0.3191 -1.0060  3.8964
 1308SOL    HW2 4738   7.986   6.345   0.478 -0.3441 -2.0137  2.0072
 1309SOL     OW 4739   0.559   2.817   0.633  0.2929 -0.1524  0.0343
 1309SOL    HW1 4740   0.549   2.747   0.697 -0.8910  1.1026  1.2611
 1309SOL    HW2 4741   0.481   2.811   0.578  0.4063 -0.0674 -0.1380
 1310SOL     OW 4742   0.793   3.918   7.814  0.7822 -0.0039  0.0150
 1310SOL    HW1 4743   0.887   3.915   7.802  0.5886 -2.3640 -1.1601
 1310SOL    HW2 4744   0.765   3.997   7.767  2.0113  0.0274 -0.6764
 1311SOL     OW 4745   1.024   6.165   2.004 -0.0351  0.1167  0.0080
 1311SOL    HW1 4746   1.004   6.239   2.062 -1.0283 -0.0353 -0.1323
 1311SOL    HW2 4747   1.109   6.187   1.965  0.0924  0.7608  0.6487
 1312SOL     OW 4748   3.779   2.336   2.948 -0.0355 -0.2805 -0.0578
 1312SOL    HW1 4749   3.727   2.336   3.029  0.1839 -0.1473  0.0862
 1312SOL    HW2 4750   3.852   2.396   2.967  0.8029 -1.3565  0.1533
 1313SOL     OW 4751   7.848   1.272   6.571  0.2548 -0.5069  0.3314
 1313SOL    HW1 4752   7.942   1.256   6.562  0.5844  0.5791  1.6007
 1313SOL    HW2 4753   7.842   1.367   6.586 -1.0869 -0.4932 -0.2984
 1314SOL     OW 4754   2.828   5.264   4.121 -0.2018  0.2335  0.4662
 1314SOL    HW1 4755   2.789   5.176   4.119 -1.4917  0.7769  0.9601
 1314SOL    HW2 4756   2.922   5.249   4.130 -0.4577 -1.0877  0.9823
 1315SOL     OW 4757   3.599   7.102   1.299  0.2152 -0.1250  0.2726
 1315SOL    HW1 4758   3.590   7.165   1.227 -0.2206 -0.9724 -0.4193
 1315SOL    HW2 4759   3.560   7.021   1.265  0.0711 -0.5494  1.4349
 1316SOL     OW 4760   3.485   0.239   0.610 -0.9178 -0.3756  0.0473
 1316SOL    HW1 4761   3.578   0.261   0.603 -1.3278  1.3821 -0.1001
 1316SOL    HW2 4762   3.466   0.246   0.703 -1.0957  0.0863 -0.0238
 1317SOL     OW 4763   6.073   7.752   3.475 -0.6635  0.2444 -0.3207
 1317SOL    HW1 4764   6.025   7.791   3.549 -1.7247 -1.8128  0.1285
 1317SOL    HW2 4765   6.146   7.706   3.516  0.2985  1.3259 -0.8009
 1318SOL     OW 4766   1.824   6.475   7.154  0.1405  0.4710 -0.9270
 1318SOL    HW1 4767   1.733   6.495   7.132 -0.0025  0.2562 -0.5375
 1318SOL    HW2 4768   1.818   6.413   7.227  0.5995  0.6851 -0.7025
 1319SOL     OW 4769   6.408   0.787   1.130 -0.3570 -0.1293  0.1011
 1319SOL    HW1 4770   6.334   0.840   1.102 -0.8387  0.1118  1.8028
 1319SOL    HW2 4771   6.479   0.811   1.070 -1.1067  1.0571 -0.3164
 1320SOL     OW 4772   7.391   5.779   0.714  0.3746 -0.2628 -0.7738
 1320SOL    HW1 4773   7.316   5.720   0.714 -0.1114  0.3500  0.1297
 1320SOL    HW2 4774   7.442   5.752   0.791  1.2084 -0.8209 -1.4996
 1321SOL     OW 4775   6.462   3.549   5.025 -0.0004 -0.2492 -0.6821
 1321SOL    HW1 4776   6.478   3.514   4.937 -0.8662 -2.8857  0.1507
 1321SOL    HW2 4777   6.513   3.493   5.083  0.2983  1.2591  0.5406
 1322SOL     OW 4778   6.959   5.877   5.582  0.0395  0.4383 -1.0277
 1322SOL    HW1 4779   6.999   5.817   5.519  1.9283 -0.4338  0.9636
 1322SOL    HW2 4780   7.028   5.939   5.604 -0.5741  0.6959  0.2539
 1323SOL     OW 4781   6.866   6.272   3.326 -0.4432 -0.0658  0.1018
 1323SOL    HW1 4782   6.961   6.267   3.333 -0.6342  0.9192  4.1146
 1323SOL    HW2 4783   6.841   6.188   3.286  1.9713 -1.0351  0.5299
 1324SOL     OW 4784   2.915   1.674   5.726  0.3816 -0.1533  0.1881
 1324SOL    HW1 4785   2.865   1.734   5.671  0.2989 -0.1492  0.2683
 1324SOL    HW2 4786   2.951   1.729   5.796 -1.3389 -0.5234  1.4048
 1325SOL     OW 4787   5.043   7.225   7.585  0.4097 -0.0868 -0.1230
 1325SOL    HW1 4788   5.013   7.313   7.609 -0.6408  0.3918 -2.8815
 1325SOL    HW2 4789   5.082   7.237   7.498  0.3484 -2.3225 -0.4823
 1326SOL     OW 4790   2.073   1.683   6.118 -0.0638 -0.1600  0.1904
 1326SOL    HW1 4791   2.032   1.613   6.067  0.8141 -1.7411  1.5993
 1326SOL    HW2 4792   2.000   1.731   6.157 -0.6422 -1.1432  0.3336
 1327SOL     OW 4793   2.111   7.543   3.862  0.8506  0.3641  0.1373
 1327SOL    HW1 4794   2.087   7.480   3.930  0.2913  0.9260  0.4607
 1327SOL    HW2 4795   2.085   7.501   3.780 -0.2037  0.4873  0.4050
 1328SOL     OW 4796   0.112   7.333   2.423 -0.2117 -0.2190 -0.0051
 1328SOL    HW1 4797   0.160   7.397   2.370 -0.8860 -0.3246 -0.7558
 1328SOL    HW2 4798   0.052   7.386   2.476  1.6632  0.0265  1.9661
 1329SOL     OW 4799   1.589   2.731   2.689  0.0135 -0.7171 -0.4431
 1329SOL    HW1 4800   1.643   2.809   2.673 -0.3190 -0.5914 -0.9720
 1329SOL    HW2 4801   1.499   2.764   2.688 -0.1306 -1.1117 -0.6983
 1330SOL     OW 4802   5.593   4.484   2.870 -0.7005 -0.3011 -0.2083
 1330SOL    HW1 4803   5.532   4.415   2.844  1.2230 -2.2689  0.3704
 1330SOL    HW2 4804   5.619   4.524   2.787  0.1755 -2.0359 -0.8031
 1331SOL     OW 4805   0.157   4.121   1.976 -0.1936  0.1575  0.1185
 1331SOL    HW1 4806   0.171   4.065   2.052  0.5516  0.2777  0.0760
 1331SOL    HW2 4807   0.232   4.105   1.920 -0.6176  0.2553 -0.4811
 1332SOL     OW 4808   5.926   4.435   0.760 -0.3497  0.0943 -0.1334
 1332SOL    HW1 4809   5.985   4.401   0.693 -1.9067  1.3519 -2.2188
 1332SOL    HW2 4810   5.838   4.417   0.725 -1.1796  1.7069  1.0641
 1333SOL     OW 4811   3.585   2.514   4.952  0.7903  0.8047 -0.0052
 1333SOL    HW1 4812   3.676   2.517   4.982  0.6242  1.0798  0.4697
 1333SOL    HW2 4813   3.568   2.600   4.915  1.0896  0.3739 -1.1944
 1334SOL     OW 4814   3.692   1.042   3.977  0.0122 -0.4008  0.3190
 1334SOL    HW1 4815   3.643   1.086   4.046 -1.5187 -0.3337 -0.7608
 1334SOL    HW2 4816   3.644   1.065   3.897  1.9398 -0.1946 -0.7914
 1335SOL     OW 4817   4.568   7.143   7.120 -0.1723 -0.2669  0.1054
 1335SOL    HW1 4818   4.486   7.099   7.144 -0.1245 -0.5290 -0.2041
 1335SOL    HW2 4819   4.620   7.142   7.200 -0.8132  0.6861  0.5414
 1336SOL     OW 4820   4.682   1.667   2.008 -0.0862  0.0375 -0.0724
 1336SOL    HW1 4821   4.708   1.575   2.005  0.7707  0.2951 -0.9343
 1336SOL    HW2 4822   4.680   1.689   2.101 -2.5949 -1.4742  0.2874
 1337SOL     OW 4823   7.778   5.362   4.870 -0.1827 -0.2159  0.0134
 1337SOL    HW1 4824   7.838   5.341   4.942 -1.3234 -1.3984  0.6416
 1337SOL    HW2 4825   7.785   5.457   4.859 -0.4628  0.0560  2.0863
 1338SOL     OW 4826   4.170   4.564   7.761  0.6981  0.0395 -0.5967
 1338SOL    HW1 4827   4.205   4.653   7.752 -0.8205  0.7726  0.4941
 1338SOL    HW2 4828   4.185   4.541   7.852 -0.9340  0.0742 -0.3008
 1339SOL     OW 4829   6.241   0.432   4.050  0.3153 -0.0718  0.4135
 1339SOL    HW1 4830   6.202   0.508   4.007  0.9522  0.3770  0.6214
 1339SOL    HW2 4831   6.294   0.470   4.121  0.6496 -0.7100  0.5035
 1340SOL     OW 4832   6.810   4.136   1.796  0.1361  0.2427 -0.3123
 1340SOL    HW1 4833   6.862   4.144   1.876  3.7112 -0.2342 -2.4543
 1340SOL    HW2 4834   6.797   4.042   1.785 -1.6757  0.3825  0.4650
 1341SOL     OW 4835   0.652   0.287   2.380  0.1363  0.1380 -0.1748
 1341SOL    HW1 4836   0.634   0.351   2.311  0.2214  0.6961  0.3239
 1341SOL    HW2 4837   0.656   0.203   2.334 -2.8451  0.1027 -0.4271
 1342SOL     OW 4838   5.813   0.450   6.803  0.4031  0.2103  0.0891
 1342SOL    HW1 4839   5.817   0.517   6.735  1.8086  0.7382  0.6789
 1342SOL    HW2 4840   5.862   0.376   6.767  1.0561  0.4506  0.4850
 1343SOL     OW 4841   7.508   1.331   1.232 -0.3014 -0.1447  0.4004
 1343SOL    HW1 4842   7.578   1.382   1.273 -0.5792  1.6308 -1.2203
 1343SOL    HW2 4843   7.457   1.396   1.183 -1.3270 -1.8379 -0.8312
 1344SOL     OW 4844   7.761   3.457   0.427 -0.2885 -0.3507  0.1881
 1344SOL    HW1 4845   7.715   3.401   0.365 -1.1310  0.5936 -0.0453
 1344SOL    HW2 4846   7.711   3.450   0.508 -0.4098  0.0770  0.1519
 1345SOL     OW 4847   3.655   0.070   5.642 -0.3501  0.3502 -0.2925
 1345SOL    HW1 4848   3.620  -0.017   5.620  0.9821 -0.3166  0.1854
 1345SOL    HW2 4849   3.615   0.128   5.577 -0.0283 -0.8680 -1.6157
 1346SOL     OW 4850   3.754   6.497   2.398  0.1057  0.3263 -0.3150
 1346SOL    HW1 4851   3.814   6.467   2.330 -0.3051 -3.1448  0.7094
 1346SOL    HW2 4852   3.753   6.425   2.462 -2.0130  2.0615  1.7075
 1347SOL     OW 4853   1.498   1.798   7.774  0.0440 -0.0345 -0.0808
 1347SOL    HW1 4854   1.537   1.729   7.827  0.3786 -0.2380 -0.5939
 1347SOL    HW2 4855   1.448   1.851   7.837  0.1756 -0.4603  0.3853
 1348SOL     OW 4856   5.958   4.414   2.703  0.0667  0.7700 -0.0802
 1348SOL    HW1 4857   5.958   4.322   2.728 -0.7160  0.7804 -0.0016
 1348SOL    HW2 4858   5.979   4.461   2.784 -0.2927  0.6907  0.0633
 1349SOL     OW 4859   7.023   6.177   5.305  0.2272 -0.0616 -0.6769
 1349SOL    HW1 4860   7.087   6.208   5.368  1.5041  0.1353 -2.0306
 1349SOL    HW2 4861   6.999   6.255   5.255  1.3496 -0.6815 -2.2525
 1350SOL     OW 4862   4.617   7.551   1.398 -0.2099 -0.3567 -0.2275
 1350SOL    HW1 4863   4.615   7.647   1.405 -1.1000 -0.4339  0.5853
 1350SOL    HW2 4864   4.579   7.533   1.312  2.4019  0.1319 -1.5485
 1351SOL     OW 4865   5.122   5.743   7.497 -0.3786 -0.3993 -0.0522
 1351SOL    HW1 4866   5.162   5.671   7.449 -1.3048 -1.9522  1.4332
 1351SOL    HW2 4867   5.035   5.754   7.458 -0.3308 -0.2393 -0.1157
 1352SOL     OW 4868   1.366   7.543   3.569 -0.2285 -0.1685  0.3809
 1352SOL    HW1 4869   1.310   7.569   3.642 -0.1784 -1.6429  0.9523
 1352SOL    HW2 4870   1.305   7.527   3.497 -0.3898 -0.0911  0.4995
 1353SOL     OW 4871   0.853   1.698   4.061 -0.5738  0.0020  0.4438
 1353SOL    HW1 4872   0.812   1.717   4.146 -0.5780  1.2823  0.1706
 1353SOL    HW2 4873   0.784   1.716   3.997 -0.3694 -0.3267  0.1334
 1354SOL     OW 4874   7.246   6.926   5.715 -0.1093  0.6450  0.1487
 1354SOL    HW1 4875   7.206   6.944   5.800  0.2706  1.5974  0.1351
 1354SOL    HW2 4876   7.208   6.991   5.656 -0.8505 -0.4126 -0.5639
 1355SOL     OW 4877   5.364   5.280   1.484 -0.1885 -0.1523 -0.2540
 1355SOL    HW1 4878   5.306   5.269   1.560 -0.3731  0.9574 -0.2307
 1355SOL    HW2 4879   5.308   5.317   1.416  0.8897  2.7196  0.3602
 1356SOL     OW 4880   1.218   7.016   6.133 -0.1754  0.8967 -0.3327
 1356SOL    HW1 4881   1.236   6.926   6.160 -0.5688  0.6597 -0.8590
 1356SOL    HW2 4882   1.218   7.013   6.037  1.5933  1.8128 -0.3806
 1357SOL     OW 4883   0.578   3.649   0.620  0.2186  0.0601  0.1431
 1357SOL    HW1 4884   0.616   3.641   0.533 -0.3029 -0.8015 -0.0161
 1357SOL    HW2 4885   0.525   3.569   0.630  1.0593 -0.3327  1.6240
 1358SOL     OW 4886   1.756   4.649   7.328 -0.1370 -0.2094  0.0615
 1358SOL    HW1 4887   1.688   4.669   7.393  0.1934 -1.6821  0.8874
 1358SOL    HW2 4888   1.728   4.566   7.289  0.1579  0.1946 -1.0273
 1359SOL     OW 4889   2.197   5.620   6.094 -0.8911 -0.4334 -0.0498
 1359SOL    HW1 4890   2.292   5.635   6.101 -0.7913 -1.0624 -0.0627
 1359SOL    HW2 4891   2.188   5.525   6.095 -1.4767 -0.3842 -0.7008
 1360SOL     OW 4892   3.498   7.075   2.210 -0.1498 -0.3923  0.2399
 1360SOL    HW1 4893   3.498   7.041   2.300  1.0813 -1.3099 -0.0978
 1360SOL    HW2 4894   3.530   7.165   2.219  0.1713 -0.5498  0.6915
 1361SOL     OW 4895   2.997   3.249   4.150 -0.1669 -0.3964 -0.0802
 1361SOL    HW1 4896   3.073   3.247   4.092 -0.6582  1.2044 -0.7845
 1361SOL    HW2 4897   3.034   3.256   4.238  0.4980  0.4102 -0.4237
 1362SOL     OW 4898   0.118   2.800   7.968 -0.2006  0.5088  0.2738
 1362SOL    HW1 4899   0.100   2.707   7.953  0.0567  0.4803  0.1442
 1362SOL    HW2 4900   0.044   2.846   7.927  1.1697  0.4912 -2.3002
 1363SOL     OW 4901   0.533   5.573   1.310 -0.4644 -0.0755  0.0965
 1363SOL    HW1 4902   0.459   5.580   1.250 -0.4826 -0.8790  0.0136
 1363SOL    HW2 4903   0.493   5.562   1.396 -0.4753 -2.1886 -0.1452
 1364SOL     OW 4904   2.762   3.794   0.542 -0.4214  0.1567 -0.3785
 1364SOL    HW1 4905   2.709   3.743   0.603  0.4851 -2.7257 -1.9243
 1364SOL    HW2 4906   2.699   3.831   0.480 -1.0081  0.2877  0.2833
 1365SOL     OW 4907   5.158   2.623   4.282 -0.0628 -0.5230 -0.8225
 1365SOL    HW1 4908   5.073   2.614   4.240 -1.3462 -1.3847  1.8342
 1365SOL    HW2 4909   5.172   2.540   4.327  0.5697  0.8416  1.6020
 1366SOL     OW 4910   1.136   6.621   1.301 -0.5900  0.4434 -0.1379
 1366SOL    HW1 4911   1.115   6.712   1.321  0.5556  0.8343 -0.6429
 1366SOL    HW2 4912   1.206   6.599   1.362 -1.2902 -0.3074  0.4068
 1367SOL     OW 4913   1.935   7.813   0.714 -0.1653 -0.0108  0.0434
 1367SOL    HW1 4914   2.013   7.850   0.675  0.8015  0.4690  2.3288
 1367SOL    HW2 4915   1.864   7.836   0.654  1.1094  1.5154 -0.9080
 1368SOL     OW 4916   3.875   5.901   0.059  0.4058  0.7071  0.6030
 1368SOL    HW1 4917   3.808   5.889  -0.008 -0.0934  0.5241  1.1312
 1368SOL    HW2 4918   3.952   5.855   0.025  0.5366  1.6459 -0.4003
 1369SOL     OW 4919   5.690   1.986   2.849 -0.0175  0.5163  0.0313
 1369SOL    HW1 4920   5.703   1.891   2.852  0.8619  0.6307 -0.0124
 1369SOL    HW2 4921   5.621   2.003   2.913 -0.5267 -0.2066 -0.3079
 1370SOL     OW 4922   1.140   3.055   4.652 -0.1645 -0.4799 -0.1019
 1370SOL    HW1 4923   1.075   3.077   4.719  0.0084 -1.1465  0.2973
 1370SOL    HW2 4924   1.173   3.140   4.622 -2.4178 -0.0915 -1.5290
 1371SOL     OW 4925   0.997   7.357   1.948 -0.6669  0.0135 -0.2478
 1371SOL    HW1 4926   0.962   7.414   2.017 -1.1279 -0.7478  0.1470
 1371SOL    HW2 4927   1.054   7.296   1.994  0.2526  0.4836 -0.7418
 1372SOL     OW 4928   2.645   7.676   4.843 -0.5504  0.1331  0.5159
 1372SOL    HW1 4929   2.639   7.716   4.930 -0.6277 -0.3751  0.7433
 1372SOL    HW2 4930   2.737   7.650   4.836  0.1693  2.7995 -0.7181
 1373SOL     OW 4931   7.317   5.339   3.656  0.2527  0.3271 -0.0080
 1373SOL    HW1 4932   7.369   5.287   3.595  0.3300  0.2474  0.1236
 1373SOL    HW2 4933   7.253   5.277   3.691 -0.9787  0.8176 -1.3674
 1374SOL     OW 4934   1.467   5.526   4.908  0.5880  0.4972  0.3886
 1374SOL    HW1 4935   1.520   5.605   4.905  0.4757  0.6086  1.1402
 1374SOL    HW2 4936   1.521   5.462   4.955 -0.4491  1.0166  2.3230
 1375SOL     OW 4937   5.670   1.775   0.215  0.7209  0.2051  0.4536
 1375SOL    HW1 4938   5.605   1.777   0.285 -0.7938  2.4316 -0.9616
 1375SOL    HW2 4939   5.731   1.846   0.236  1.4331 -0.4387  0.5893
 1376SOL     OW 4940   0.773   4.937   4.674 -0.5845  0.3476 -0.0540
 1376SOL    HW1 4941   0.788   5.025   4.708  1.4282 -0.7760  2.0834
 1376SOL    HW2 4942   0.681   4.919   4.694 -1.6670  2.7570 -2.5228
 1377SOL     OW 4943   7.856   5.504   7.988 -0.2950  0.3304 -0.4660
 1377SOL    HW1 4944   7.803   5.457   7.924  0.0752  1.0727 -1.3468
 1377SOL    HW2 4945   7.891   5.437   8.046 -1.5939 -0.2303 -0.3324
 1378SOL     OW 4946   3.655   0.307   2.728 -0.4535  0.5698  0.0964
 1378SOL    HW1 4947   3.568   0.341   2.705 -1.2700 -0.7910  1.0828
 1378SOL    HW2 4948   3.672   0.239   2.664  0.4153  1.6180 -0.8078
 1379SOL     OW 4949   3.498   1.855   2.513 -0.3529 -0.2588  0.1663
 1379SOL    HW1 4950   3.543   1.939   2.502 -2.3147  0.5968 -1.7350
 1379SOL    HW2 4951   3.568   1.790   2.514  1.2294  1.4018  2.0020
 1380SOL     OW 4952   3.639   2.664   6.999  0.7362 -0.1447  0.2766
 1380SOL    HW1 4953   3.631   2.668   6.904  0.8722  0.7356  0.3035
 1380SOL    HW2 4954   3.685   2.744   7.023  0.5742 -0.2934  1.0993
 1381SOL     OW 4955   3.520   0.187   3.319  0.2731 -0.2778  0.0290
 1381SOL    HW1 4956   3.591   0.144   3.271 -0.7664 -2.9922  0.8411
 1381SOL    HW2 4957   3.513   0.274   3.279  2.8760 -0.5892 -1.2250
 1382SOL     OW 4958   6.407   0.860   2.065 -0.0461  0.5163 -0.5165
 1382SOL    HW1 4959   6.385   0.895   2.151  1.8601 -1.3915  0.7951
 1382SOL    HW2 4960   6.322   0.838   2.025 -0.8590 -0.5787  1.7460
 1383SOL     OW 4961   6.836   0.246   5.707  0.1889  0.2011 -0.1375
 1383SOL    HW1 4962   6.777   0.305   5.660 -1.7109 -2.0047 -0.5755
 1383SOL    HW2 4963   6.861   0.180   5.642  1.0382 -0.3947  0.7768
 1384SOL     OW 4964   5.183   0.745   5.097 -0.0207  0.7307  0.3027
 1384SOL    HW1 4965   5.211   0.836   5.093 -0.3638  0.8899  1.4558
 1384SOL    HW2 4966   5.189   0.721   5.189  1.8446 -0.9950 -0.2405
 1385SOL     OW 4967   3.792   5.304   5.080 -0.0540 -0.0744 -0.0776
 1385SOL    HW1 4968   3.811   5.394   5.108  2.8868 -0.6165 -0.1958
 1385SOL    HW2 4969   3.825   5.299   4.991 -0.1073 -1.3251 -0.0382
 1386SOL     OW 4970   0.523   7.338   0.568 -0.7405 -0.2337  0.2493
 1386SOL    HW1 4971   0.611   7.371   0.588 -0.3945 -1.0727  0.1495
 1386SOL    HW2 4972   0.537   7.282   0.492 -1.3133 -0.6559  0.4607
 1387SOL     OW 4973   4.965   0.375   2.011  0.3872 -0.2747 -0.2701
 1387SOL    HW1 4974   5.014   0.310   1.961 -0.9619 -0.0923 -1.8677
 1387SOL    HW2 4975   4.876   0.342   2.012 -0.1049  1.0322 -0.1903
 1388SOL     OW 4976   1.611   2.324   5.706 -0.1221 -0.8155 -0.6913
 1388SOL    HW1 4977   1.695   2.365   5.687 -0.0994 -1.0052 -1.0065
 1388SOL    HW2 4978   1.546   2.391   5.684 -0.0726 -0.8319 -0.8847
 1389SOL     OW 4979   5.351   6.390   2.657 -0.1205  0.0968  0.1220
 1389SOL    HW1 4980   5.326   6.327   2.589  1.1916 -0.4578  0.1188
 1389SOL    HW2 4981   5.442   6.366   2.678 -0.2944  0.6859  1.5890
 1390SOL     OW 4982   2.461   1.914   0.282 -0.2936 -0.0409 -0.5798
 1390SOL    HW1 4983   2.545   1.894   0.323  0.4507 -1.6922 -2.8366
 1390SOL    HW2 4984   2.400   1.917   0.356  1.4295 -0.5356  0.9249
 1391SOL     OW 4985   7.952   5.037   6.037  0.2963 -0.4475  0.2386
 1391SOL    HW1 4986   7.963   5.041   5.942 -0.6021 -0.0379  0.1487
 1391SOL    HW2 4987   7.905   4.955   6.052  1.3194 -1.0059  0.4169
 1392SOL     OW 4988   5.968   3.112   2.379  0.0692 -0.5788  0.0359
 1392SOL    HW1 4989   5.925   3.165   2.446  0.0604  0.2574 -0.6240
 1392SOL    HW2 4990   6.061   3.133   2.388  0.0848 -0.5899 -0.1125
 1393SOL     OW 4991   3.229   0.991   1.343  0.0326  0.0461  0.2518
 1393SOL    HW1 4992   3.284   0.912   1.350 -0.1702 -0.0774  0.4380
 1393SOL    HW2 4993   3.180   0.994   1.425  1.1199  1.1752  0.8748
 1394SOL     OW 4994   6.507   2.936   2.554 -1.1100  0.1572 -0.1056
 1394SOL    HW1 4995   6.423   2.893   2.568 -0.8943 -0.0890  0.4613
 1394SOL    HW2 4996   6.527   2.977   2.639  1.0722 -2.8585  0.9333
 1395SOL     OW 4997   3.731   7.523   5.117  0.2150 -0.5202  0.2280
 1395SOL    HW1 4998   3.653   7.471   5.099  0.5913 -0.8295 -0.5127
 1395SOL    HW2 4999   3.757   7.497   5.205 -0.6830 -0.1963  0.6002
 1396SOL     OW 5000   5.017   2.734   5.727 -0.3898 -0.5521 -0.1777
 1396SOL    HW1 5001   5.108   2.739   5.697  0.2007 -1.5238  1.4046
 1396SOL    HW2 5002   4.996   2.822   5.758  0.6923 -0.8320  1.3780
 1397SOL     OW 5003   2.247   6.695   5.488  0.1502  0.3086  0.1795
 1397SOL    HW1 5004   2.268   6.619   5.543 -0.9806 -0.1572 -0.0241
 1397SOL    HW2 5005   2.292   6.678   5.405  0.4968  0.2086  0.3903
 1398SOL     OW 5006   6.508   0.442   7.131  0.0083 -0.2648  0.0630
 1398SOL    HW1 5007   6.501   0.468   7.039  2.2879 -1.1121 -0.3859
 1398SOL    HW2 5008   6.465   0.357   7.135  1.1360 -0.8738 -0.5334
 1399SOL     OW 5009   1.185   3.805   5.314 -0.2348 -0.6537  0.3315
 1399SOL    HW1 5010   1.239   3.881   5.290 -0.5558 -1.1418 -2.0610
 1399SOL    HW2 5011   1.249   3.737   5.336  0.0911 -0.5367 -0.2430
 1400SOL     OW 5012   2.503   4.182   1.792 -0.0084 -0.0208  0.2762
 1400SOL    HW1 5013   2.528   4.193   1.700 -0.6942  1.1002  0.2186
 1400SOL    HW2 5014   2.454   4.261   1.813 -1.9767 -1.3589  0.8939
 1401SOL     OW 5015   1.544   4.106   4.086  0.3105 -0.5268 -0.6727
 1401SOL    HW1 5016   1.554   4.184   4.032  0.7786  0.1566  0.3871
 1401SOL    HW2 5017   1.605   4.042   4.049  0.6177 -0.0716 -0.9524
 1402SOL     OW 5018   3.478   2.197   3.486  0.1397  0.1990 -0.4294
 1402SOL    HW1 5019   3.444   2.283   3.510  3.0461  1.8018 -1.8172
 1402SOL    HW2 5020   3.408   2.156   3.436 -2.2135  0.7216  2.3249
 1403SOL     OW 5021   4.708   1.093   6.978  0.3176 -0.0968  0.3056
 1403SOL    HW1 5022   4.701   1.015   7.033 -0.9337 -1.2019 -1.3640
 1403SOL    HW2 5023   4.733   1.059   6.892 -0.2262  1.3452 -0.4342
 1404SOL     OW 5024   2.692   7.362   1.841 -0.9257 -0.6287  0.2761
 1404SOL    HW1 5025   2.642   7.443   1.850  0.6197  0.3713  0.1756
 1404SOL    HW2 5026   2.732   7.348   1.927  0.0538 -0.4255 -0.1335
 1405SOL     OW 5027   7.086   5.750   1.199 -0.2247  0.6203 -0.3085
 1405SOL    HW1 5028   7.153   5.811   1.165  1.2951 -0.5310  0.5534
 1405SOL    HW2 5029   7.093   5.759   1.294  0.2604 -1.1682 -0.1701
 1406SOL     OW 5030   0.289   7.474   1.812 -0.2117 -0.0418 -0.5474
 1406SOL    HW1 5031   0.274   7.395   1.863 -0.2904  0.7751  0.7262
 1406SOL    HW2 5032   0.322   7.538   1.876 -1.3556  1.3332 -1.2976
 1407SOL     OW 5033   1.328   3.681   5.672 -0.0366 -0.0469 -0.0657
 1407SOL    HW1 5034   1.234   3.673   5.683 -0.0384  2.2515  2.0423
 1407SOL    HW2 5035   1.344   3.774   5.660  2.0255 -0.2826  0.4861
 1408SOL     OW 5036   6.397   0.199   3.365 -0.3017  0.2843  0.4888
 1408SOL    HW1 5037   6.349   0.120   3.340  1.7715 -0.7610 -0.3176
 1408SOL    HW2 5038   6.368   0.266   3.303 -0.6969 -0.3413 -0.0074
 1409SOL     OW 5039   2.526   3.640   1.521 -0.2020  0.0153  0.0535
 1409SOL    HW1 5040   2.561   3.682   1.600  0.2263  0.4154 -0.3437
 1409SOL    HW2 5041   2.599   3.640   1.460 -0.7699  0.4489 -0.6314
 1410SOL     OW 5042   7.510   5.133   5.692 -0.1660  0.1022 -0.3972
 1410SOL    HW1 5043   7.482   5.155   5.781  0.2111  1.2261 -0.5517
 1410SOL    HW2 5044   7.545   5.214   5.657  2.4567 -1.0319 -0.5316
 1411SOL     OW 5045   2.133   0.793   5.483 -0.2844 -0.1090 -0.0979
 1411SOL    HW1 5046   2.211   0.741   5.498  1.0556  1.5185 -1.2944
 1411SOL    HW2 5047   2.080   0.741   5.423  0.4548 -0.6332 -0.2986
 1412SOL     OW 5048   3.218   2.935   5.984 -0.0357 -0.5984 -0.1959
 1412SOL    HW1 5049   3.149   2.915   5.920  0.4268 -0.5334 -0.7145
 1412SOL    HW2 5050   3.272   3.001   5.941  1.5271 -2.1137 -0.6013
 1413SOL     OW 5051   6.182   6.371   2.407  0.4780  0.2328  1.0320
 1413SOL    HW1 5052   6.158   6.327   2.326  1.7592  0.0554  0.7306
 1413SOL    HW2 5053   6.227   6.451   2.378  1.8545 -0.3366  1.5357
 1414SOL     OW 5054   7.288   4.553   3.399  0.3004 -0.8186  0.2964
 1414SOL    HW1 5055   7.279   4.492   3.472  0.5599 -1.0689  0.1198
 1414SOL    HW2 5056   7.373   4.533   3.362  0.3480 -0.4029  0.1854
 1415SOL     OW 5057   5.415   2.041   2.913 -0.3311 -0.0714  0.3559
 1415SOL    HW1 5058   5.424   2.136   2.918  0.5778 -0.2668  3.7380
 1415SOL    HW2 5059   5.321   2.026   2.907 -0.7023  0.9958  2.9611
 1416SOL     OW 5060   3.237   7.086   1.680 -0.3822 -0.2818  0.0495
 1416SOL    HW1 5061   3.163   7.070   1.739  0.7541  0.7037  1.7917
 1416SOL    HW2 5062   3.297   7.140   1.731  0.2671  1.3173 -2.3090
 1417SOL     OW 5063   1.236   0.082   7.535 -0.1012 -0.1814  0.1855
 1417SOL    HW1 5064   1.293   0.020   7.581 -1.3485 -1.9329 -0.5627
 1417SOL    HW2 5065   1.197   0.030   7.464  1.0135  2.1794 -2.2495
 1418SOL     OW 5066   1.376   0.461   5.322 -0.3471 -0.4136  0.4063
 1418SOL    HW1 5067   1.428   0.436   5.245  0.8203 -1.7141  1.5807
 1418SOL    HW2 5068   1.330   0.381   5.346  1.3806 -0.7894  2.6307
 1419SOL     OW 5069   7.696   7.298   5.482 -0.5624  0.4281  0.1221
 1419SOL    HW1 5070   7.637   7.303   5.407 -0.9235  1.5004  0.4549
 1419SOL    HW2 5071   7.777   7.340   5.453  0.6139 -2.4201 -0.8317
 1420SOL     OW 5072   2.122   2.892   1.874 -0.0511 -0.2262  0.3297
 1420SOL    HW1 5073   2.107   2.828   1.805  0.0318  1.1145 -0.9571
 1420SOL    HW2 5074   2.036   2.927   1.894 -0.0677 -0.5713  0.8688
 1421SOL     OW 5075   0.914   5.751   3.802  0.1295  0.1025 -0.6239
 1421SOL    HW1 5076   0.986   5.772   3.742 -0.4532 -1.7096 -2.0165
 1421SOL    HW2 5077   0.874   5.672   3.764 -2.2741  0.7902  0.3798
 1422SOL     OW 5078   2.605   0.686   3.596 -0.1215  0.4564  0.2104
 1422SOL    HW1 5079   2.586   0.643   3.513  1.6371  3.3475 -1.7951
 1422SOL    HW2 5080   2.699   0.672   3.609 -0.5486 -0.6885  2.1525
 1423SOL     OW 5081   3.502   4.319   2.384  0.3747 -0.5108 -0.1367
 1423SOL    HW1 5082   3.570   4.270   2.338  1.2213  1.3831 -0.9905
 1423SOL    HW2 5083   3.512   4.409   2.352 -2.7932 -0.2644 -0.5589
 1424SOL     OW 5084   6.095   7.570   0.596  0.1014  0.3404  0.1034
 1424SOL    HW1 5085   6.115   7.663   0.583 -0.9610  0.5873  0.1735
 1424SOL    HW2 5086   5.999   7.566   0.598  0.1484 -0.5822  1.3422
 1425SOL     OW 5087   7.493   2.184   2.670 -0.2603  0.4686 -0.1555
 1425SOL    HW1 5088   7.569   2.153   2.621 -0.0130  0.4609  0.2215
 1425SOL    HW2 5089   7.486   2.123   2.744 -1.7152 -0.5868 -1.1561
 1426SOL     OW 5090   6.967   6.025   6.736  0.4807 -0.7929  0.0830
 1426SOL    HW1 5091   7.021   5.954   6.770 -0.1164 -0.9973  0.6028
 1426SOL    HW2 5092   6.930   6.067   6.813  1.5749  0.6908 -0.1736
 1427SOL     OW 5093   4.764   7.285   6.090 -0.3190 -0.6030  0.0901
 1427SOL    HW1 5094   4.752   7.361   6.033 -0.4371  0.5301  1.6096
 1427SOL    HW2 5095   4.756   7.210   6.031  1.5133  0.5747 -1.7561
 1428SOL     OW 5096   4.442   5.348   6.418 -0.3445 -0.2530  0.4102
 1428SOL    HW1 5097   4.453   5.253   6.406 -0.4695 -0.1444 -0.6728
 1428SOL    HW2 5098   4.394   5.376   6.340 -1.2771  0.5330  1.2535
 1429SOL     OW 5099   6.185   7.391   0.422  0.1494  0.1941  0.2717
 1429SOL    HW1 5100   6.183   7.457   0.490  1.6241  2.4784 -1.8215
 1429SOL    HW2 5101   6.133   7.428   0.351 -0.0744 -1.4541 -0.4551
 1430SOL     OW 5102   0.093   7.756   5.815 -0.2110 -0.7120  0.3314
 1430SOL    HW1 5103   0.050   7.753   5.901 -0.2461 -0.0575  0.3416
 1430SOL    HW2 5104   0.121   7.848   5.806 -0.3787 -0.7375 -0.4397
 1431SOL     OW 5105   0.683   1.447   6.768  0.0587  0.0979  0.5800
 1431SOL    HW1 5106   0.737   1.515   6.729 -1.6846  1.2437  0.0890
 1431SOL    HW2 5107   0.707   1.367   6.720  0.2024  0.8867 -0.6863
 1432SOL     OW 5108   7.981   1.012   4.229  0.4170 -0.4814  0.0202
 1432SOL    HW1 5109   7.905   1.051   4.186  0.8008  1.0644  0.7037
 1432SOL    HW2 5110   8.047   1.005   4.160  0.0140 -0.8324 -0.3325
 1433SOL     OW 5111   2.769   0.061   2.469 -0.3935  0.1762 -0.1665
 1433SOL    HW1 5112   2.824  -0.017   2.460  0.0358  0.4103  0.3944
 1433SOL    HW2 5113   2.699   0.034   2.528 -0.4567  0.1066 -0.2722
 1434SOL     OW 5114   5.069   5.033   2.370 -0.8637 -0.1968 -0.4255
 1434SOL    HW1 5115   5.055   4.940   2.390 -0.1154 -0.4584 -1.1331
 1434SOL    HW2 5116   5.003   5.053   2.303 -0.5820 -0.3862 -0.7590
 1435SOL     OW 5117   6.512   5.791   5.758 -0.2954  0.0364 -0.1333
 1435SOL    HW1 5118   6.608   5.793   5.762 -0.3671  0.3263  1.6411
 1435SOL    HW2 5119   6.488   5.711   5.805 -0.9517  0.2729 -0.0684
 1436SOL     OW 5120   7.378   2.271   3.447 -0.0884  0.1346 -0.5549
 1436SOL    HW1 5121   7.306   2.211   3.464 -0.4036  0.5038 -0.5847
 1436SOL    HW2 5122   7.417   2.239   3.365 -1.7379  1.3816 -1.8540
 1437SOL     OW 5123   6.984   3.710   4.283 -0.0547  0.0527 -1.5851
 1437SOL    HW1 5124   6.974   3.711   4.188 -1.0016 -2.2802 -1.5346
 1437SOL    HW2 5125   6.907   3.664   4.316  1.3025 -1.0269  0.1690
 1438SOL     OW 5126   2.306   5.775   4.347 -0.2582  0.1713  0.4230
 1438SOL    HW1 5127   2.265   5.760   4.433  0.8382 -1.2988  0.7101
 1438SOL    HW2 5128   2.376   5.837   4.365 -0.2684  0.1517  0.5352
 1439SOL     OW 5129   2.835   3.729   1.334 -0.1841  0.4223 -0.9231
 1439SOL    HW1 5130   2.924   3.703   1.311 -0.4017 -0.1325 -1.1482
 1439SOL    HW2 5131   2.782   3.653   1.312 -0.4882  0.1203  0.7949
 1440SOL     OW 5132   4.507   7.913   5.265 -0.2397  0.3044  0.4609
 1440SOL    HW1 5133   4.428   7.860   5.267  0.2712 -0.5937 -1.8113
 1440SOL    HW2 5134   4.484   7.988   5.210  0.8015 -0.5223 -1.1304
 1441SOL     OW 5135   6.230   1.368   1.162  0.6091 -0.0799 -0.0224
 1441SOL    HW1 5136   6.186   1.367   1.247  2.6227  0.1052  1.0584
 1441SOL    HW2 5137   6.171   1.416   1.105 -0.0525  1.1958  1.6940
 1442SOL     OW 5138   1.556   6.170   7.901  0.3422 -0.0905  0.0923
 1442SOL    HW1 5139   1.462   6.184   7.914  0.3988  0.3880  0.0076
 1442SOL    HW2 5140   1.587   6.251   7.859  0.2741 -1.4276 -2.6130
 1443SOL     OW 5141   0.589   2.105   1.709 -0.0258  0.4957 -0.6985
 1443SOL    HW1 5142   0.662   2.143   1.660  0.1005 -1.5859 -2.1893
 1443SOL    HW2 5143   0.631   2.043   1.770 -0.3001  1.9409  0.9971
 1444SOL     OW 5144   5.891   0.746   3.774  0.4741  0.5751 -0.6554
 1444SOL    HW1 5145   5.942   0.754   3.693 -0.3771 -0.0661 -1.2711
 1444SOL    HW2 5146   5.804   0.720   3.744 -0.0507  1.0772  0.4290
 1445SOL     OW 5147   4.626   1.698   2.666 -0.6312  0.3864 -0.2098
 1445SOL    HW1 5148   4.647   1.780   2.711  0.7868 -0.7538  1.2612
 1445SOL    HW2 5149   4.559   1.723   2.602  0.6939  2.9549 -0.7048
 1446SOL     OW 5150   1.743   1.206   3.650  0.6216  0.0278  0.5068
 1446SOL    HW1 5151   1.666   1.165   3.689 -1.0506  1.5317 -1.0991
 1446SOL    HW2 5152   1.762   1.153   3.573  0.6755  0.1543  0.4326
 1447SOL     OW 5153   3.807   3.904   6.035 -0.1810 -0.1443  0.2099
 1447SOL    HW1 5154   3.767   3.826   5.996 -1.8497  0.9502 -0.3072
 1447SOL    HW2 5155   3.751   3.926   6.110 -0.1806  0.9831 -0.1014
 1448SOL     OW 5156   7.391   1.223   3.599 -0.6295  0.3822  0.2137
 1448SOL    HW1 5157   7.428   1.302   3.560  1.5633 -0.0792  1.3331
 1448SOL    HW2 5158   7.413   1.153   3.538  2.6198 -0.3054  2.0955
 1449SOL     OW 5159   0.176   1.649   3.315 -0.2005 -0.2311  0.0657
 1449SOL    HW1 5160   0.249   1.662   3.376 -0.3657 -1.0815  0.4436
 1449SOL    HW2 5161   0.103   1.695   3.356  0.2226  1.0290 -0.5410
 1450SOL     OW 5162   0.955   5.354   3.463  0.3147  0.0390  0.3016
 1450SOL    HW1 5163   1.041   5.317   3.485  0.1155 -1.0431 -0.6750
 1450SOL    HW2 5164   0.960   5.374   3.370 -1.0829 -1.7820 -0.2147
 1451SOL     OW 5165   1.081   4.260   0.860  0.6798 -0.6670  0.5184
 1451SOL    HW1 5166   1.069   4.309   0.779 -0.7550 -2.1360 -0.1808
 1451SOL    HW2 5167   0.995   4.260   0.901  0.9179 -1.6666  1.0411
 1452SOL     OW 5168   6.734   5.964   4.310  0.4670 -0.1382  0.0617
 1452SOL    HW1 5169   6.761   5.872   4.319 -1.0754 -0.5907  0.1252
 1452SOL    HW2 5170   6.799   6.002   4.250  0.8867 -1.3679 -0.2758
 1453SOL     OW 5171   0.813   7.371   3.655  0.2058  0.0500  0.0573
 1453SOL    HW1 5172   0.789   7.417   3.574  0.4528 -1.2553 -0.7931
 1453SOL    HW2 5173   0.897   7.329   3.634  0.9332  0.7955  1.4532
 1454SOL     OW 5174   6.959   3.672   0.247  0.2469 -0.7260 -0.0060
 1454SOL    HW1 5175   6.970   3.633   0.161  1.6027  2.5573 -1.4029
 1454SOL    HW2 5176   7.019   3.747   0.248 -0.9057  0.2673  3.1920
 1455SOL     OW 5177   0.856   3.143   5.973 -0.2682 -0.6455  0.0331
 1455SOL    HW1 5178   0.866   3.111   5.883 -0.1102  1.4668 -0.7277
 1455SOL    HW2 5179   0.764   3.170   5.978  0.1683  0.8668 -0.0520
 1456SOL     OW 5180   6.857   7.517   0.364 -0.0997 -0.7000 -0.1657
 1456SOL    HW1 5181   6.805   7.590   0.328  0.2677 -0.6313 -0.5562
 1456SOL    HW2 5182   6.898   7.554   0.442 -1.4727 -1.0554  0.7554
 1457SOL     OW 5183   4.837   1.866   1.932  0.2396  0.0774 -0.1852
 1457SOL    HW1 5184   4.847   1.868   1.837 -1.6192  3.0024 -0.3703
 1457SOL    HW2 5185   4.784   1.787   1.948  1.8590 -1.2922 -1.3814
 1458SOL     OW 5186   6.985   2.202   6.989  0.4613  0.1346 -0.0906
 1458SOL    HW1 5187   6.950   2.135   6.930 -1.0135 -0.9296  1.9154
 1458SOL    HW2 5188   7.079   2.185   6.992  0.5016 -0.0284 -1.8139
 1459SOL     OW 5189   3.266   4.276   4.120  0.2666 -0.2180 -0.1242
 1459SOL    HW1 5190   3.191   4.221   4.097  1.7050 -1.1690 -2.7447
 1459SOL    HW2 5191   3.229   4.363   4.135 -1.2206 -0.3321 -2.8609
 1460SOL     OW 5192   7.781   3.959   0.097 -0.0994  0.0806 -0.4891
 1460SOL    HW1 5193   7.826   3.889   0.049 -0.7741 -0.2227 -0.6767
 1460SOL    HW2 5194   7.732   3.914   0.165  1.3130  0.5566  0.8727
 1461SOL     OW 5195   3.290   6.209   6.308  0.0044  0.0981  0.2510
 1461SOL    HW1 5196   3.303   6.132   6.253 -1.8389 -0.3855  0.4640
 1461SOL    HW2 5197   3.328   6.185   6.392  1.1615  0.1430 -0.2544
 1462SOL     OW 5198   3.842   4.634   0.594  0.1078 -0.0490 -0.0063
 1462SOL    HW1 5199   3.813   4.725   0.594  3.4390  1.1223 -1.2451
 1462SOL    HW2 5200   3.852   4.611   0.686  0.6150  1.3560  0.2971
 1463SOL     OW 5201   0.831   3.491   1.425 -0.4192  0.2278  0.0688
 1463SOL    HW1 5202   0.783   3.425   1.375 -0.0146  0.7619 -1.0331
 1463SOL    HW2 5203   0.818   3.465   1.517 -2.7245  0.3120 -0.2092
 1464SOL     OW 5204   0.960   0.504   3.417  0.3586  0.2635 -0.3029
 1464SOL    HW1 5205   0.974   0.413   3.388 -0.9384  0.5557 -1.9197
 1464SOL    HW2 5206   1.046   0.544   3.411  0.3417  0.0346 -2.9194
 1465SOL     OW 5207   7.629   4.062   4.491  0.5771 -0.4836 -0.2708
 1465SOL    HW1 5208   7.541   4.026   4.495 -0.2718  1.5921  0.5343
 1465SOL    HW2 5209   7.622   4.139   4.435  2.3082 -1.4303 -1.8337
 1466SOL     OW 5210   3.940   6.241   1.110 -0.1671 -0.5085 -0.2342
 1466SOL    HW1 5211   3.928   6.329   1.146  0.5668  0.1581 -1.5781
 1466SOL    HW2 5212   3.935   6.254   1.015 -0.9773 -2.0632 -0.4184
 1467SOL     OW 5213   2.019   3.682   5.958  0.0941  0.3240  0.3892
 1467SOL    HW1 5214   1.924   3.691   5.946 -0.3399 -2.8731  0.9296
 1467SOL    HW2 5215   2.049   3.636   5.880  0.9647  0.1097  0.8433
 1468SOL     OW 5216   2.569   0.364   7.253 -0.1958  0.1200 -0.1486
 1468SOL    HW1 5217   2.490   0.347   7.305  0.8408 -2.1357  0.7464
 1468SOL    HW2 5218   2.570   0.294   7.188  0.5049  0.7683 -0.8465
 1469SOL     OW 5219   5.205   6.195   2.409 -0.1346 -0.3185  0.1576
 1469SOL    HW1 5220   5.206   6.176   2.315 -0.8860 -2.0767  0.4822
 1469SOL    HW2 5221   5.145   6.269   2.418  0.1474  0.0314 -0.7760
 1470SOL     OW 5222   4.743   3.882   3.440  0.0618 -0.2481 -0.2165
 1470SOL    HW1 5223   4.734   3.850   3.530 -1.9149 -0.1602 -0.3679
 1470SOL    HW2 5224   4.741   3.978   3.448  2.0004 -0.1797 -0.1703
 1471SOL     OW 5225   7.803   2.964   2.216 -0.2502 -0.0137  0.1603
 1471SOL    HW1 5226   7.889   2.993   2.247 -0.8593  0.1463  1.7607
 1471SOL    HW2 5227   7.743   2.986   2.287 -1.7635  0.6101 -1.2515
 1472SOL     OW 5228   2.891   3.340   2.396  0.0734  0.2328  0.4053
 1472SOL    HW1 5229   2.905   3.396   2.320  0.0913 -2.3533 -1.5436
 1472SOL    HW2 5230   2.976   3.301   2.414 -0.2298 -0.1994  0.9238
 1473SOL     OW 5231   1.863   2.594   1.852  0.0055 -0.3876  0.2772
 1473SOL    HW1 5232   1.935   2.619   1.794 -2.1156  0.0495 -2.2762
 1473SOL    HW2 5233   1.823   2.678   1.879 -1.2536 -0.6783 -0.6180
 1474SOL     OW 5234   6.029   4.649   5.621  0.1332 -0.3690 -0.5652
 1474SOL    HW1 5235   5.969   4.574   5.625  0.1195 -0.2600  1.5580
 1474SOL    HW2 5236   6.004   4.704   5.695  3.3138 -0.6508  0.7940
 1475SOL     OW 5237   1.150   3.524   4.578  0.4105  0.4333  0.2883
 1475SOL    HW1 5238   1.165   3.610   4.618 -3.4334  1.6547 -0.6296
 1475SOL    HW2 5239   1.113   3.545   4.492  1.2301 -2.1807 -0.7281
 1476SOL     OW 5240   6.011   0.199   6.724 -0.1541  0.0447  0.7156
 1476SOL    HW1 5241   6.096   0.161   6.703 -0.9971 -1.7198  0.3755
 1476SOL    HW2 5242   5.968   0.211   6.639 -1.3040 -1.6952  1.0073
 1477SOL     OW 5243   7.945   7.579   2.526 -0.3400  0.1919  0.3784
 1477SOL    HW1 5244   7.868   7.624   2.491  0.3194  0.6983 -0.4171
 1477SOL    HW2 5245   7.996   7.648   2.568  0.3341  0.0796 -0.2487
 1478SOL     OW 5246   7.811   7.704   7.655  0.8026 -0.2748 -0.1905
 1478SOL    HW1 5247   7.780   7.786   7.617  1.0711  0.5534  1.3557
 1478SOL    HW2 5248   7.846   7.729   7.740 -0.6176 -2.2349  1.0045
 1479SOL     OW 5249   3.709   3.304   6.511  0.0636  0.6480 -0.3966
 1479SOL    HW1 5250   3.756   3.312   6.428 -2.0281 -1.7827 -1.8887
 1479SOL    HW2 5251   3.635   3.364   6.502 -1.2157 -0.9983 -1.0971
 1480SOL     OW 5252   6.103   0.590   6.595  0.5271 -0.0652  0.6081
 1480SOL    HW1 5253   6.182   0.548   6.561  0.3211  0.6794 -0.8255
 1480SOL    HW2 5254   6.129   0.681   6.610 -0.3127  0.4089 -0.7658
 1481SOL     OW 5255   1.464   5.869   3.611  0.1743  0.1359 -0.1930
 1481SOL    HW1 5256   1.537   5.873   3.549 -0.8373 -1.0823 -1.5121
 1481SOL    HW2 5257   1.391   5.910   3.565 -0.4978 -0.4574  0.3286
 1482SOL     OW 5258   6.644   6.868   0.079 -0.1152 -0.5239  0.9220
 1482SOL    HW1 5259   6.631   6.963   0.076 -0.4613 -0.5490  1.4662
 1482SOL    HW2 5260   6.555   6.832   0.076  0.0045 -0.8205  0.9758
 1483SOL     OW 5261   5.695   3.846   7.879  0.3910 -0.3599  0.2842
 1483SOL    HW1 5262   5.649   3.800   7.809 -0.7776  0.1420  0.7072
 1483SOL    HW2 5263   5.630   3.857   7.948  0.4525  2.4058 -0.0198
 1484SOL     OW 5264   6.537   3.473   5.869  0.4343 -0.2892  0.1201
 1484SOL    HW1 5265   6.506   3.416   5.799 -1.8566  1.4870 -0.3689
 1484SOL    HW2 5266   6.507   3.432   5.950  2.3446 -1.8933  0.0570
 1485SOL     OW 5267   5.204   4.910   1.053 -0.8924  0.2247 -0.6891
 1485SOL    HW1 5268   5.197   4.873   1.140 -0.1363 -1.3836 -1.2929
 1485SOL    HW2 5269   5.295   4.941   1.047 -0.8497  0.0472 -1.0061
 1486SOL     OW 5270   0.110   2.537   5.848  0.7404 -0.6619 -0.0536
 1486SOL    HW1 5271   0.093   2.566   5.758  0.7058 -0.1331  0.1231
 1486SOL    HW2 5272   0.110   2.617   5.900  0.4379 -0.9978  0.4720
 1487SOL     OW 5273   0.237   2.146   6.776  0.0464  0.4173 -0.0930
 1487SOL    HW1 5274   0.248   2.072   6.836 -1.3356  0.0481 -0.2676
 1487SOL    HW2 5275   0.155   2.128   6.731  0.4723  1.3034 -1.2392
 1488SOL     OW 5276   0.850   7.895   3.512  0.3830  0.4633  0.3017
 1488SOL    HW1 5277   0.902   7.866   3.587  0.7911 -0.4285 -0.3274
 1488SOL    HW2 5278   0.871   7.988   3.503  1.5139  0.2209  0.3469
 1489SOL     OW 5279   2.924   0.924   7.096 -0.3375  0.0442  0.1342
 1489SOL    HW1 5280   3.018   0.927   7.113 -0.6532  2.9454  1.6034
 1489SOL    HW2 5281   2.885   0.907   7.181 -1.2886  1.6927  0.0343
 1490SOL     OW 5282   1.245   0.333   1.528 -0.3367 -0.2230  0.6580
 1490SOL    HW1 5283   1.299   0.410   1.548  0.1283 -0.4436  0.2543
 1490SOL    HW2 5284   1.307   0.261   1.519 -0.8176 -0.7708  1.6032
 1491SOL     OW 5285   2.976   5.398   3.608 -0.4635  0.6030  0.5524
 1491SOL    HW1 5286   3.035   5.470   3.587 -1.8715  1.1906 -1.6111
 1491SOL    HW2 5287   2.954   5.411   3.700 -0.1985  2.5783  0.3635
 1492SOL     OW 5288   5.728   7.663   6.819 -0.1646 -0.2952  0.4044
 1492SOL    HW1 5289   5.764   7.680   6.732 -0.8915 -1.0076 -0.0511
 1492SOL    HW2 5290   5.804   7.660   6.877  0.3554 -0.1392 -0.2626
 1493SOL     OW 5291   2.963   5.279   2.747 -0.7448 -0.9195 -0.0905
 1493SOL    HW1 5292   3.024   5.322   2.807 -0.7510 -2.2255  0.8937
 1493SOL    HW2 5293   2.885   5.334   2.748 -0.2435 -0.2134  0.0579
 1494SOL     OW 5294   6.835   5.323   3.737  0.1378  0.2628  0.2500
 1494SOL    HW1 5295   6.877   5.315   3.823  1.6586  4.0710 -0.0081
 1494SOL    HW2 5296   6.770   5.392   3.749 -0.9920 -0.5295 -1.1988
 1495SOL     OW 5297   3.564   3.513   3.276  0.0389 -0.2651  0.3878
 1495SOL    HW1 5298   3.648   3.541   3.314  0.4913  1.0019 -1.4542
 1495SOL    HW2 5299   3.502   3.581   3.303 -0.1051 -0.4727  0.5860
 1496SOL     OW 5300   3.891   0.757   2.401  0.2787  0.0758  0.5167
 1496SOL    HW1 5301   3.910   0.728   2.312  1.1091 -0.2140  0.7773
 1496SOL    HW2 5302   3.938   0.840   2.409 -1.1515  0.9328  0.1478
 1497SOL     OW 5303   5.648   3.206   5.999 -0.2018  0.0706 -0.6076
 1497SOL    HW1 5304   5.583   3.219   5.930  0.7923  0.6423 -1.4478
 1497SOL    HW2 5305   5.732   3.211   5.954  0.4141 -1.3405  0.3519
 1498SOL     OW 5306   1.496   3.180   7.637 -0.0394  0.4882 -0.0029
 1498SOL    HW1 5307   1.511   3.273   7.619  0.1999  0.1639 -1.5528
 1498SOL    HW2 5308   1.584   3.142   7.640 -0.1640  0.1808 -0.1779
 1499SOL     OW 5309   5.837   0.316   1.347  0.2356 -0.2837 -0.0757
 1499SOL    HW1 5310   5.749   0.283   1.325 -0.5518  1.2203  0.7085
 1499SOL    HW2 5311   5.886   0.239   1.375 -0.8104 -1.1587 -0.6153
 1500SOL     OW 5312   4.301   5.755   6.383  0.0201  0.0420  0.5999
 1500SOL    HW1 5313   4.362   5.681   6.375 -0.1374  0.2134 -3.1336
 1500SOL    HW2 5314   4.232   5.735   6.320 -0.4308  2.9799  0.1196
 1501SOL     OW 5315   1.400   7.576   2.471  0.2460  0.2223 -0.4951
 1501SOL    HW1 5316   1.482   7.569   2.422  1.1074  2.6588  0.5091
 1501SOL    HW2 5317   1.335   7.601   2.406  0.4005 -1.1507 -1.1962
 1502SOL     OW 5318   3.783   1.052   6.301  0.7790 -0.4275  0.2095
 1502SOL    HW1 5319   3.737   0.968   6.297 -1.1718  0.5984  0.1615
 1502SOL    HW2 5320   3.800   1.066   6.395  0.5935 -0.6092  0.2698
 1503SOL     OW 5321   2.577   4.219   3.184  0.0893 -0.2971 -0.2255
 1503SOL    HW1 5322   2.566   4.144   3.242  2.1796  0.6488  1.4483
 1503SOL    HW2 5323   2.642   4.190   3.120  1.3538  0.2599  0.7844
 1504SOL     OW 5324   1.437   2.671   0.955  0.4290  0.0038  0.1961
 1504SOL    HW1 5325   1.464   2.597   0.901 -0.8148  0.3411 -0.9382
 1504SOL    HW2 5326   1.496   2.742   0.930  0.9639 -0.3202  0.5386
 1505SOL     OW 5327   3.358   3.182   5.482 -0.0320 -0.1748 -0.6652
 1505SOL    HW1 5328   3.449   3.164   5.459  0.6825  0.2639  1.6660
 1505SOL    HW2 5329   3.348   3.276   5.468 -0.2208 -0.2679 -1.1792
 1506SOL     OW 5330   3.028   0.058   0.348 -0.1812  0.3239 -0.0624
 1506SOL    HW1 5331   3.039   0.107   0.429 -0.2397 -1.3242  0.9712
 1506SOL    HW2 5332   3.048   0.121   0.279 -1.3285  2.0836  1.1766
 1507SOL     OW 5333   0.814   5.940   2.643 -0.0653 -0.5949 -0.5283
 1507SOL    HW1 5334   0.826   5.886   2.565  0.7692 -0.0103 -0.8137
 1507SOL    HW2 5335   0.741   5.900   2.689  0.7732 -2.1811 -0.5523
 1508SOL     OW 5336   7.615   4.247   4.767 -0.5079  0.0131 -0.5607
 1508SOL    HW1 5337   7.643   4.336   4.784  0.4733 -0.5330  0.7805
 1508SOL    HW2 5338   7.695   4.201   4.741 -0.1627 -1.4789  2.9420
 1509SOL     OW 5339   5.165   5.226   0.795 -0.2217 -0.2464 -0.1909
 1509SOL    HW1 5340   5.198   5.220   0.705  0.4788  0.0022  0.0526
 1509SOL    HW2 5341   5.137   5.317   0.805  1.0586  0.1044  0.3152
 1510SOL     OW 5342   0.515   6.823   5.381  0.2174  0.4670 -0.2725
 1510SOL    HW1 5343   0.567   6.744   5.365  1.1440  1.1778 -0.7367
 1510SOL    HW2 5344   0.459   6.799   5.456 -0.3789 -1.0404 -1.1728
 1511SOL     OW 5345   0.765   4.932   3.028  0.1980  0.2444 -0.2414
 1511SOL    HW1 5346   0.738   4.978   2.948  0.3157 -1.7079 -1.4660
 1511SOL    HW2 5347   0.844   4.977   3.057 -1.3968  2.7440  0.3982
 1512SOL     OW 5348   1.661   0.567   4.174  0.4748 -0.1156 -0.6118
 1512SOL    HW1 5349   1.639   0.495   4.233 -0.5996 -0.5052 -1.4795
 1512SOL    HW2 5350   1.755   0.581   4.188  0.1316  0.1724  1.5825
 1513SOL     OW 5351   6.313   0.345   3.130 -0.3452  0.5681  0.0754
 1513SOL    HW1 5352   6.287   0.261   3.092 -0.3140  0.2240  0.8127
 1513SOL    HW2 5353   6.353   0.393   3.057 -0.7281  0.1021 -0.4428
 1514SOL     OW 5354   5.205   1.951   6.491 -0.2492 -0.0650  0.0403
 1514SOL    HW1 5355   5.219   1.891   6.564  0.7046 -0.2321 -0.2830
 1514SOL    HW2 5356   5.112   1.940   6.470  0.5344 -3.6148 -1.9515
 1515SOL     OW 5357   1.405   6.759   7.688 -0.1913 -0.1975 -0.2276
 1515SOL    HW1 5358   1.406   6.665   7.707 -3.0788 -0.2527 -0.1414
 1515SOL    HW2 5359   1.369   6.799   7.766  0.4073  0.9316 -0.5237
 1516SOL     OW 5360   0.303   3.177   5.670  0.1777  0.2647  0.6148
 1516SOL    HW1 5361   0.381   3.128   5.645  1.2243  1.8551  0.6749
 1516SOL    HW2 5362   0.277   3.222   5.590  0.0358  0.6785  0.8915
 1517SOL     OW 5363   6.462   3.009   1.509 -0.2261 -0.0103  0.4557
 1517SOL    HW1 5364   6.466   3.077   1.441 -2.3955  0.4409  0.7298
 1517SOL    HW2 5365   6.429   3.055   1.586 -2.5093 -1.5158  0.4135
 1518SOL     OW 5366   1.509   7.812   3.924  0.2547 -0.1730 -0.2033
 1518SOL    HW1 5367   1.506   7.722   3.892 -0.3985  0.1917 -1.1916
 1518SOL    HW2 5368   1.418   7.842   3.921  0.5139  0.6293 -0.2201
 1519SOL     OW 5369   0.549   1.912   7.103  0.6297  0.0013  0.1336
 1519SOL    HW1 5370   0.553   1.917   7.199  0.2036  0.9129  0.1075
 1519SOL    HW2 5371   0.539   2.003   7.074 -0.2034 -0.3512 -0.7262
 1520SOL     OW 5372   1.270   7.646   6.616  0.4705  0.9715  0.1422
 1520SOL    HW1 5373   1.210   7.705   6.663 -1.6202 -0.5218 -0.5530
 1520SOL    HW2 5374   1.276   7.569   6.672  0.5199  0.4877 -0.5303
 1521SOL     OW 5375   7.022   7.785   2.064 -0.1458 -0.3960 -0.2731
 1521SOL    HW1 5376   7.009   7.699   2.105 -1.0768 -0.6388 -1.0477
 1521SOL    HW2 5377   7.008   7.847   2.135 -0.2668 -0.8640  0.1176
 1522SOL     OW 5378   5.563   5.347   7.577 -0.7892 -0.2752  1.0245
 1522SOL    HW1 5379   5.582   5.337   7.670 -1.0336 -0.4203  1.0610
 1522SOL    HW2 5380   5.610   5.426   7.551  0.5220 -1.0729  0.9137
 1523SOL     OW 5381   4.875   1.534   1.210  0.1324  0.1944 -0.0278
 1523SOL    HW1 5382   4.829   1.451   1.198  0.2761 -0.2451  2.3853
 1523SOL    HW2 5383   4.805   1.597   1.230  0.3153  0.0841  0.9434
 1524SOL     OW 5384   4.644   2.639   3.268  0.3460 -0.2483  0.5015
 1524SOL    HW1 5385   4.572   2.577   3.254 -0.8768  0.5749  2.8993
 1524SOL    HW2 5386   4.640   2.697   3.193  0.5875 -2.1662 -1.0437
 1525SOL     OW 5387   7.371   6.221   0.387  0.1314  0.2362 -0.2581
 1525SOL    HW1 5388   7.396   6.188   0.474  0.0660  0.8560 -0.0043
 1525SOL    HW2 5389   7.279   6.246   0.397  0.3586  1.1008 -0.2726
 1526SOL     OW 5390   0.059   6.662   0.965  0.8848 -0.0673 -0.4468
 1526SOL    HW1 5391   0.027   6.623   1.046  0.6953 -0.6308 -0.7880
 1526SOL    HW2 5392   0.046   6.594   0.899  1.1631  0.3374 -0.9237
 1527SOL     OW 5393   6.312   0.688   3.099 -0.5474 -0.4597  0.4120
 1527SOL    HW1 5394   6.323   0.673   3.193 -0.7747 -1.0108  0.3563
 1527SOL    HW2 5395   6.250   0.761   3.093 -0.3369 -0.2595  0.6899
 1528SOL     OW 5396   4.061   7.967   0.203  0.4454 -0.1915 -0.6014
 1528SOL    HW1 5397   4.036   7.962   0.111 -2.5181 -0.2624  0.1721
 1528SOL    HW2 5398   3.992   8.019   0.244  1.5126 -0.5060  1.6592
 1529SOL     OW 5399   4.158   5.293   1.128  0.7988 -0.0203  0.3753
 1529SOL    HW1 5400   4.202   5.342   1.059 -0.3501 -0.3858 -0.6312
 1529SOL    HW2 5401   4.094   5.354   1.164  0.2109 -0.3837 -0.0523
 1530SOL     OW 5402   0.524   7.836   2.458 -0.0397  0.7975  0.2041
 1530SOL    HW1 5403   0.614   7.864   2.471 -0.2897  1.4097  0.6788
 1530SOL    HW2 5404   0.496   7.802   2.543 -0.1741  0.3689 -0.0087
 1531SOL     OW 5405   4.961   3.420   7.528 -0.5921  0.5628  0.1911
 1531SOL    HW1 5406   5.041   3.467   7.505 -0.5750  0.6347  0.3929
 1531SOL    HW2 5407   4.891   3.484   7.513 -0.8532 -0.2373 -2.2796
 1532SOL     OW 5408   3.116   0.974   3.518  0.1068 -0.4154 -0.2435
 1532SOL    HW1 5409   3.070   1.052   3.549 -0.7744 -0.2458 -1.9036
 1532SOL    HW2 5410   3.091   0.905   3.579 -0.2196  0.2748  0.4127
 1533SOL     OW 5411   7.312   2.154   5.298  0.5275  0.6089 -0.0906
 1533SOL    HW1 5412   7.238   2.147   5.358  1.1004  0.3346  0.5822
 1533SOL    HW2 5413   7.271   2.160   5.211 -0.2797  0.2870  0.2577
 1534SOL     OW 5414   7.016   2.943   2.007  0.2510 -0.1369  0.4086
 1534SOL    HW1 5415   7.085   2.991   1.961  2.8087 -1.2123  2.9348
 1534SOL    HW2 5416   6.986   3.003   2.075 -2.3518  0.8417 -1.5456
 1535SOL     OW 5417   7.117   6.901   6.716  0.8206  0.2031 -0.0515
 1535SOL    HW1 5418   7.060   6.877   6.789 -0.1107 -0.7081 -1.0551
 1535SOL    HW2 5419   7.100   6.994   6.703 -2.2981 -0.5521 -1.8853
 1536SOL     OW 5420   6.125   5.905   1.223 -0.8343  0.2070 -0.6706
 1536SOL    HW1 5421   6.153   5.817   1.200  0.5758  0.5240 -0.1888
 1536SOL    HW2 5422   6.057   5.893   1.290  1.5444 -0.4397  1.7012
 1537SOL     OW 5423   7.141   2.134   3.509 -0.8121  0.0673 -0.0482
 1537SOL    HW1 5424   7.107   2.086   3.433 -1.7000 -0.6490  0.7992
 1537SOL    HW2 5425   7.066   2.182   3.543 -0.2938  0.7994  0.0697
 1538SOL     OW 5426   5.989   3.731   6.412 -0.4243 -0.2910 -0.3143
 1538SOL    HW1 5427   6.067   3.676   6.402 -1.3305 -1.3793 -1.5844
 1538SOL    HW2 5428   5.921   3.685   6.363 -1.1698  2.0399 -1.5746
 1539SOL     OW 5429   7.620   0.112   4.995  0.0009 -0.1129 -0.4351
 1539SOL    HW1 5430   7.525   0.110   5.002  0.0335  1.1491  0.4174
 1539SOL    HW2 5431   7.637   0.167   4.919 -0.0071 -2.9322 -2.5517
 1540SOL     OW 5432   0.925   3.232   2.774  0.2968 -0.3697 -0.1567
 1540SOL    HW1 5433   0.961   3.246   2.861 -0.3234  1.8018 -0.2348
 1540SOL    HW2 5434   0.841   3.190   2.789  0.6999 -1.0529  0.2298
 1541SOL     OW 5435   7.132   4.212   4.738 -0.2329  0.0879  0.0084
 1541SOL    HW1 5436   7.218   4.239   4.706 -0.3088 -1.1374 -1.3137
 1541SOL    HW2 5437   7.139   4.217   4.833  1.5691 -0.7666 -0.0526
 1542SOL     OW 5438   3.974   6.885   0.579  0.0896 -0.4272 -0.2929
 1542SOL    HW1 5439   4.053   6.831   0.576 -0.8981 -1.8703 -1.6190
 1542SOL    HW2 5440   4.004   6.973   0.558  1.5968 -0.6342  0.9578
 1543SOL     OW 5441   6.936   2.016   3.717  0.0889 -0.3747  0.0006
 1543SOL    HW1 5442   6.881   2.054   3.786  0.6078 -0.5160  0.4898
 1543SOL    HW2 5443   6.992   1.954   3.762  1.8601  1.0182 -0.2182
 1544SOL     OW 5444   4.613   2.047   5.727 -0.3157  0.4394  0.3102
 1544SOL    HW1 5445   4.643   1.956   5.732  0.0154  0.6060  1.8027
 1544SOL    HW2 5446   4.542   2.046   5.662  1.4289 -0.3643 -1.6091
 1545SOL     OW 5447   1.258   5.917   5.418  0.0277 -0.4181 -0.2148
 1545SOL    HW1 5448   1.336   5.973   5.417 -0.3738  0.1917  1.4166
 1545SOL    HW2 5449   1.292   5.828   5.430  0.4816 -0.1753  0.2953
 1546SOL     OW 5450   5.967   3.631   1.837  0.0958 -0.3154  0.0722
 1546SOL    HW1 5451   6.024   3.683   1.779  1.6198 -0.6027  1.2812
 1546SOL    HW2 5452   5.938   3.693   1.904 -0.7886 -0.2471 -0.3623
 1547SOL     OW 5453   3.662   3.746   2.127  0.1136 -0.1455  0.5470
 1547SOL    HW1 5454   3.608   3.796   2.188  0.7136  0.2431  0.7562
 1547SOL    HW2 5455   3.752   3.765   2.152  0.3656  0.0257 -0.4708
 1548SOL     OW 5456   5.443   1.183   7.389 -0.3837  0.5535 -0.1559
 1548SOL    HW1 5457   5.410   1.207   7.475  0.5564 -1.6653  0.8588
 1548SOL    HW2 5458   5.373   1.130   7.350 -1.4470  2.8072 -1.4133
 1549SOL     OW 5459   4.966   1.500   5.376 -0.3437  0.0537  0.1484
 1549SOL    HW1 5460   4.964   1.591   5.405  2.1626  0.4125 -0.6992
 1549SOL    HW2 5461   5.056   1.472   5.390 -0.1457 -1.1438 -3.0078
 1550SOL     OW 5462   2.126   6.706   4.562  0.3141 -0.0396  0.0088
 1550SOL    HW1 5463   2.059   6.653   4.518  1.3955 -0.4752 -1.1465
 1550SOL    HW2 5464   2.176   6.745   4.490  1.8058 -0.3624  0.8633
 1551SOL     OW 5465   6.720   2.127   0.431  0.4514  0.1450  0.2559
 1551SOL    HW1 5466   6.689   2.217   0.443 -0.6414 -0.3690  1.3384
 1551SOL    HW2 5467   6.772   2.131   0.351 -0.0844  1.6160 -0.0453
 1552SOL     OW 5468   7.765   6.713   3.867 -0.3193  0.3532 -0.4330
 1552SOL    HW1 5469   7.691   6.717   3.806 -1.7561  0.1777  1.2861
 1552SOL    HW2 5470   7.753   6.631   3.915  1.7919 -0.4012 -1.1132
 1553SOL     OW 5471   6.296   2.980   4.518 -0.4197 -0.4047  0.0761
 1553SOL    HW1 5472   6.310   3.010   4.428 -0.8807 -2.4360 -0.6918
 1553SOL    HW2 5473   6.236   2.906   4.510 -1.1409 -0.0888  2.1454
 1554SOL     OW 5474   7.533   3.141   5.056 -0.0234 -0.0952 -0.1926
 1554SOL    HW1 5475   7.478   3.220   5.052  1.3672  0.8403 -1.2015
 1554SOL    HW2 5476   7.543   3.124   5.149  0.8871  1.8238  0.0917
 1555SOL     OW 5477   4.497   2.964   7.175  0.5866 -0.0008 -0.3369
 1555SOL    HW1 5478   4.419   2.911   7.163  0.2267  0.7129 -1.2066
 1555SOL    HW2 5479   4.489   3.034   7.110  1.1020  1.0598  0.7107
 1556SOL     OW 5480   7.967   7.470   7.904  0.0371 -0.2931  0.0724
 1556SOL    HW1 5481   7.914   7.437   7.832  1.1797  0.0575 -0.9471
 1556SOL    HW2 5482   7.970   7.565   7.889 -1.4360  0.0422  1.7547
 1557SOL     OW 5483   6.975   4.660   4.327  0.4216 -0.5731  0.2457
 1557SOL    HW1 5484   6.929   4.615   4.256  1.0753 -2.0501  0.7200
 1557SOL    HW2 5485   7.066   4.666   4.297  0.3361  0.4587  0.1867
 1558SOL     OW 5486   2.248   3.462   7.598  0.5152 -0.6427  0.1404
 1558SOL    HW1 5487   2.237   3.405   7.674 -1.7821 -1.0315 -0.4257
 1558SOL    HW2 5488   2.196   3.540   7.618 -1.1262 -1.2704 -1.5055
 1559SOL     OW 5489   3.791   3.983   4.176 -0.3384 -0.4071  0.7442
 1559SOL    HW1 5490   3.853   3.911   4.163 -1.1501 -1.2854  1.5875
 1559SOL    HW2 5491   3.840   4.049   4.225  1.1574  0.7100 -2.1496
 1560SOL     OW 5492   5.695   2.945   3.915  0.2164  0.0072  0.0998
 1560SOL    HW1 5493   5.727   3.034   3.930  1.6292 -0.4970  0.1336
 1560SOL    HW2 5494   5.698   2.934   3.820  1.1419 -0.3995  0.1725
 1561SOL     OW 5495   7.426   5.679   0.986  0.3612  0.0322  0.2216
 1561SOL    HW1 5496   7.434   5.634   1.070  0.9162  0.4302  0.3816
 1561SOL    HW2 5497   7.379   5.760   1.006  1.1905  0.4964  0.2793
 1562SOL     OW 5498   7.914   5.584   3.041  0.1721 -0.1769 -0.4299
 1562SOL    HW1 5499   7.948   5.626   2.962  0.2026  0.6521  0.0130
 1562SOL    HW2 5500   7.883   5.498   3.011 -0.0209  0.2122 -1.3815
 1563SOL     OW 5501   2.681   1.466   4.222 -0.2891 -0.3967 -0.1364
 1563SOL    HW1 5502   2.595   1.482   4.184 -1.5788  0.1062  2.8244
 1563SOL    HW2 5503   2.686   1.371   4.232 -0.3784 -0.4460 -0.5652
 1564SOL     OW 5504   7.786   1.969   1.899 -0.4451  0.0921 -1.0767
 1564SOL    HW1 5505   7.837   2.049   1.890  0.1690 -0.0359  1.0297
 1564SOL    HW2 5506   7.837   1.913   1.958 -3.1590  0.1705  1.5123
 1565SOL     OW 5507   5.702   7.504   6.009 -0.4079  0.4058 -0.0521
 1565SOL    HW1 5508   5.642   7.578   6.021 -0.6324  0.4817 -1.5135
 1565SOL    HW2 5509   5.781   7.544   5.972 -1.0133 -0.2416 -2.1077
 1566SOL     OW 5510   6.444   6.856   2.493  0.0234  0.0261  0.3183
 1566SOL    HW1 5511   6.426   6.764   2.511 -0.7924  0.7921  3.7791
 1566SOL    HW2 5512   6.533   6.858   2.458  0.8426 -1.8802  2.2315
 1567SOL     OW 5513   7.219   3.390   3.589  0.4802  0.5498 -0.3240
 1567SOL    HW1 5514   7.206   3.374   3.683  2.3008  0.4608 -0.0665
 1567SOL    HW2 5515   7.247   3.481   3.584  1.7733  0.1461 -0.6342
 1568SOL     OW 5516   3.607   2.371   3.151 -0.6192 -0.1362  0.4524
 1568SOL    HW1 5517   3.528   2.416   3.182  0.3440  1.9546  0.0196
 1568SOL    HW2 5518   3.598   2.281   3.182 -3.2671  0.0026  0.2230
 1569SOL     OW 5519   0.959   2.459   6.753  0.2207  0.3366 -0.1889
 1569SOL    HW1 5520   1.044   2.473   6.794  0.9492 -1.5708 -0.9956
 1569SOL    HW2 5521   0.909   2.408   6.816 -0.3731  1.5323  0.3224
 1570SOL     OW 5522   5.829   1.113   6.841 -0.0784 -0.1121  0.4575
 1570SOL    HW1 5523   5.857   1.033   6.885  0.9375 -0.4269 -0.7313
 1570SOL    HW2 5524   5.908   1.144   6.796 -1.0004  0.3965 -0.8389
 1571SOL     OW 5525   1.662   4.864   1.014 -0.2792 -0.2544  0.4468
 1571SOL    HW1 5526   1.582   4.868   1.067 -1.1375  0.3780 -0.8656
 1571SOL    HW2 5527   1.632   4.874   0.924  1.1411 -1.5404 -0.1921
 1572SOL     OW 5528   0.113   0.323   2.881 -0.0263  0.6208 -0.2661
 1572SOL    HW1 5529   0.086   0.398   2.828  1.5686  1.2046 -0.3153
 1572SOL    HW2 5530   0.200   0.301   2.848 -0.7020 -1.6149 -0.5990
 1573SOL     OW 5531   2.762   2.051   3.929  0.1246  0.1204  0.1580
 1573SOL    HW1 5532   2.740   2.112   3.859 -0.8429  0.1340  0.4663
 1573SOL    HW2 5533   2.835   2.092   3.975  0.3797  0.3870 -0.4779
 1574SOL     OW 5534   4.568   3.305   3.741 -0.1316  0.8065 -0.1229
 1574SOL    HW1 5535   4.518   3.370   3.791 -0.5365 -0.7463  1.5502
 1574SOL    HW2 5536   4.507   3.274   3.674 -0.4077  1.1030 -0.0107
 1575SOL     OW 5537   4.342   6.234   3.669  0.1088 -0.2863 -0.6098
 1575SOL    HW1 5538   4.399   6.292   3.617  0.4490  1.3543  1.5456
 1575SOL    HW2 5539   4.312   6.289   3.742 -0.2152 -2.6123  1.0413
 1576SOL     OW 5540   6.817   1.454   0.082 -0.4228  0.0557 -0.1905
 1576SOL    HW1 5541   6.778   1.514   0.018  1.3892 -0.2849 -1.6656
 1576SOL    HW2 5542   6.784   1.484   0.166  0.1615  2.9275 -0.9266
 1577SOL     OW 5543   0.751   3.909   4.233  0.2282  0.5390 -0.3153
 1577SOL    HW1 5544   0.751   3.994   4.188 -0.1570  0.3315 -0.7025
 1577SOL    HW2 5545   0.784   3.847   4.169 -2.3630 -0.1390 -1.0450
 1578SOL     OW 5546   0.165   0.422   3.806 -0.3840  0.6105  0.1906
 1578SOL    HW1 5547   0.142   0.427   3.899 -1.3120 -0.1845  0.0174
 1578SOL    HW2 5548   0.080   0.420   3.761  0.0369 -1.3753 -0.5338
 1579SOL     OW 5549   2.463   5.658   6.249  0.7826  0.4558  0.2748
 1579SOL    HW1 5550   2.526   5.696   6.188  0.5661 -0.0073 -0.2282
 1579SOL    HW2 5551   2.497   5.571   6.269  0.2697  0.1740 -0.0556
 1580SOL     OW 5552   5.192   2.598   2.361 -0.2092 -0.4245 -0.1183
 1580SOL    HW1 5553   5.185   2.681   2.313 -0.5702 -1.1922 -1.4063
 1580SOL    HW2 5554   5.164   2.531   2.298 -2.3717 -1.2838  1.6822
 1581SOL     OW 5555   4.276   2.011   0.220 -0.2219 -0.6090  0.0322
 1581SOL    HW1 5556   4.181   2.019   0.233 -0.2104 -0.2525 -0.1126
 1581SOL    HW2 5557   4.314   2.041   0.302 -0.1396  1.9182 -0.8849
 1582SOL     OW 5558   6.285   7.235   0.023 -0.6412  0.0723 -0.3438
 1582SOL    HW1 5559   6.222   7.289   0.071  0.1246  1.5193 -0.9464
 1582SOL    HW2 5560   6.292   7.276  -0.063  0.0146 -0.9457 -0.7812
 1583SOL     OW 5561   6.909   2.286   1.884 -0.2298  0.3408 -0.2024
 1583SOL    HW1 5562   6.838   2.344   1.856 -2.5256 -0.7303  3.1058
 1583SOL    HW2 5563   6.970   2.343   1.931  0.8442  1.1431 -2.4828
 1584SOL     OW 5564   5.985   4.258   0.064  0.0179  0.1579  0.3115
 1584SOL    HW1 5565   6.074   4.293   0.068  0.5069 -1.2780  3.0243
 1584SOL    HW2 5566   5.948   4.277   0.150 -2.4979  1.1354 -0.9254
 1585SOL     OW 5567   1.159   2.283   7.236 -0.0441 -0.8070 -0.1044
 1585SOL    HW1 5568   1.082   2.269   7.291 -0.5568 -0.9977 -0.8772
 1585SOL    HW2 5569   1.203   2.359   7.275  0.4762 -1.9299  1.5583
 1586SOL     OW 5570   1.392   1.900   4.600  0.1923  0.3401  0.6652
 1586SOL    HW1 5571   1.296   1.901   4.600  0.1343 -1.8162  0.3656
 1586SOL    HW2 5572   1.417   1.979   4.552 -1.5042 -1.4012 -3.3086
 1587SOL     OW 5573   6.684   5.129   5.835  0.2339 -0.4305 -0.4070
 1587SOL    HW1 5574   6.627   5.065   5.877  0.3664 -1.0993 -1.2341
 1587SOL    HW2 5575   6.655   5.131   5.744  0.9608 -0.1266 -0.6356
 1588SOL     OW 5576   4.028   5.742   7.119 -0.1446  0.0119  0.0315
 1588SOL    HW1 5577   4.046   5.777   7.206  1.7124  0.0214 -0.3357
 1588SOL    HW2 5578   3.936   5.716   7.122  0.1437 -0.8493  2.2993
 1589SOL     OW 5579   3.582   3.776   1.348 -0.1077 -0.2770  0.7657
 1589SOL    HW1 5580   3.651   3.712   1.333 -0.6567 -1.0655  1.5656
 1589SOL    HW2 5581   3.627   3.861   1.344  0.6512 -0.7146 -0.1029
 1590SOL     OW 5582   6.116   6.921   2.878  0.6253 -0.8526 -0.6282
 1590SOL    HW1 5583   6.177   6.916   2.952 -0.4738 -1.0039  0.2830
 1590SOL    HW2 5584   6.037   6.878   2.910 -0.7239  1.2765 -1.0310
 1591SOL     OW 5585   2.358   2.069   4.039  0.5055  0.4528  0.3058
 1591SOL    HW1 5586   2.359   2.125   3.961  1.1965  0.3289  0.2268
 1591SOL    HW2 5587   2.352   2.130   4.112  0.3810  0.5890  0.1847
 1592SOL     OW 5588   6.391   2.154   5.749  0.0150  0.7087 -0.2983
 1592SOL    HW1 5589   6.350   2.216   5.809  1.0609 -0.0900  1.2752
 1592SOL    HW2 5590   6.485   2.172   5.755  0.3375 -1.0047  0.1814
 1593SOL     OW 5591   3.870   2.902   3.383  0.1568  0.0291 -0.3930
 1593SOL    HW1 5592   3.914   2.860   3.309  0.9593  0.8705 -0.3912
 1593SOL    HW2 5593   3.861   2.832   3.448 -0.9054 -0.8148 -1.4223
 1594SOL     OW 5594   2.184   5.540   1.687  0.3186  0.8463  0.1380
 1594SOL    HW1 5595   2.152   5.628   1.707  0.8280  1.1258 -0.2655
 1594SOL    HW2 5596   2.111   5.482   1.709  0.5969  1.2049  2.1137
 1595SOL     OW 5597   3.954   3.481   3.031 -0.2822 -0.2873 -0.4789
 1595SOL    HW1 5598   3.884   3.479   2.967  0.0646 -0.4687 -0.8564
 1595SOL    HW2 5599   3.970   3.575   3.046 -0.4522 -0.2461 -0.5614
 1596SOL     OW 5600   2.308   4.241   3.079  0.8012 -0.1059  0.8171
 1596SOL    HW1 5601   2.392   4.239   3.125  0.8244 -0.4445  0.7576
 1596SOL    HW2 5602   2.332   4.251   2.987  0.7228  2.4514  1.0193
 1597SOL     OW 5603   7.261   7.867   2.454 -0.0769 -0.3921  0.2208
 1597SOL    HW1 5604   7.287   7.888   2.364  1.3158 -1.2996  0.3863
 1597SOL    HW2 5605   7.190   7.804   2.444 -0.9261  0.6237 -0.2420
 1598SOL     OW 5606   4.381   7.805   6.758  0.4343 -0.2792  0.0837
 1598SOL    HW1 5607   4.439   7.731   6.774  0.0503 -0.8009 -0.8581
 1598SOL    HW2 5608   4.435   7.868   6.711  0.3325 -0.6369 -0.5237
 1599SOL     OW 5609   3.478   1.071   3.808  0.7997  0.7488  0.0257
 1599SOL    HW1 5610   3.396   1.060   3.856 -0.8200 -0.3443 -2.8335
 1599SOL    HW2 5611   3.460   1.141   3.745  1.1562 -1.2342 -2.3601
 1600SOL     OW 5612   7.961   2.065   4.191  0.1455  0.3778  0.0510
 1600SOL    HW1 5613   7.909   2.145   4.196  1.2914  1.0687  1.1275
 1600SOL    HW2 5614   7.949   2.034   4.102  0.2932  2.1617 -0.6089
 1601SOL     OW 5615   0.245   3.087   2.463  0.1930  0.1953  0.1413
 1601SOL    HW1 5616   0.309   3.118   2.398  1.1207  1.5917  1.6651
 1601SOL    HW2 5617   0.165   3.071   2.413  1.1862  0.2673 -1.5006
 1602SOL     OW 5618   6.825   1.404   5.400  0.5849  0.6232 -0.0522
 1602SOL    HW1 5619   6.853   1.397   5.491 -0.0347  2.2234  0.2637
 1602SOL    HW2 5620   6.802   1.314   5.375  0.8453  0.1715  1.3344
 1603SOL     OW 5621   0.351   6.912   1.382  0.8384 -0.0481  1.1389
 1603SOL    HW1 5622   0.443   6.934   1.395  0.5770  2.0715 -0.3213
 1603SOL    HW2 5623   0.307   6.997   1.373 -0.7571 -1.0686 -1.2094
 1604SOL     OW 5624   7.419   1.012   0.627  0.1417  0.0796  0.1499
 1604SOL    HW1 5625   7.407   1.039   0.718  0.4693  0.7076  0.0040
 1604SOL    HW2 5626   7.348   0.949   0.612 -0.2084  0.3391  0.6892
 1605SOL     OW 5627   0.149   2.367   0.941  0.1008  0.3314 -0.1185
 1605SOL    HW1 5628   0.100   2.370   1.023 -0.3658 -0.1447 -0.3770
 1605SOL    HW2 5629   0.240   2.355   0.967 -0.3240 -2.2083  0.2415
 1606SOL     OW 5630   5.772   6.644   2.705 -0.5929  0.1817  0.4172
 1606SOL    HW1 5631   5.841   6.619   2.644 -0.5860  0.2642  0.3919
 1606SOL    HW2 5632   5.715   6.703   2.655 -1.0979 -0.4804  0.2067
 1607SOL     OW 5633   3.996   3.075   2.087  0.2310  0.2270  0.1048
 1607SOL    HW1 5634   4.014   3.149   2.145 -1.1468 -0.3981  1.3620
 1607SOL    HW2 5635   3.941   3.016   2.139  1.4848 -1.7959 -0.7873
 1608SOL     OW 5636   1.243   7.957   3.895 -0.2920 -0.3135 -0.4457
 1608SOL    HW1 5637   1.290   8.012   3.958  0.8986 -1.2644 -0.4911
 1608SOL    HW2 5638   1.182   8.017   3.853  0.5263  0.8421 -0.0236
 1609SOL     OW 5639   2.717   2.429   0.435  0.6035 -0.5580  0.3421
 1609SOL    HW1 5640   2.666   2.409   0.356  0.4246  1.8484 -0.1984
 1609SOL    HW2 5641   2.659   2.405   0.507  0.4252 -1.9605 -0.2541
 1610SOL     OW 5642   0.858   4.132   1.088  0.3631 -0.5183 -0.0020
 1610SOL    HW1 5643   0.816   4.071   1.148  1.2104 -0.6460  0.4742
 1610SOL    HW2 5644   0.817   4.216   1.107 -1.3904 -1.0725 -1.2300
 1611SOL     OW 5645   7.202   0.852   2.323  0.0170 -0.6709  0.2728
 1611SOL    HW1 5646   7.187   0.758   2.329 -2.7683 -0.3519 -0.9231
 1611SOL    HW2 5647   7.138   0.890   2.383  2.1528  0.4454  1.9209
 1612SOL     OW 5648   0.840   4.976   0.603 -0.6269  0.0879  0.3688
 1612SOL    HW1 5649   0.906   5.042   0.624 -0.8433  0.1576  0.8580
 1612SOL    HW2 5650   0.771   4.991   0.669 -0.6470 -0.6618  0.5151
 1613SOL     OW 5651   4.493   5.540   0.166 -0.2599  0.0583  0.5314
 1613SOL    HW1 5652   4.481   5.551   0.072 -0.1073  1.1077  0.6323
 1613SOL    HW2 5653   4.580   5.500   0.174 -0.2408  0.0358  0.2301
 1614SOL     OW 5654   0.007   2.789   2.979 -0.3427 -0.0071 -0.1468
 1614SOL    HW1 5655  -0.017   2.699   3.003 -1.6450  1.2896  3.8126
 1614SOL    HW2 5656   0.071   2.779   2.909 -1.7075 -3.9728 -0.9636
 1615SOL     OW 5657   3.786   1.952   6.075  0.0662 -0.9354  0.8057
 1615SOL    HW1 5658   3.878   1.979   6.073  0.1678 -1.3228 -0.7117
 1615SOL    HW2 5659   3.787   1.862   6.109  0.5925 -2.1007 -2.1434
 1616SOL     OW 5660   2.551   0.058   2.955  0.6502 -0.0634 -0.4293
 1616SOL    HW1 5661   2.484   0.107   3.002  0.4368  0.0274 -0.8309
 1616SOL    HW2 5662   2.609   0.025   3.024 -0.2733 -0.8545 -0.0273
 1617SOL     OW 5663   4.359   0.662   3.950  0.1144  0.3608 -0.0655
 1617SOL    HW1 5664   4.276   0.671   3.998 -0.7522  1.9338 -1.7740
 1617SOL    HW2 5665   4.422   0.711   4.002 -0.8550  2.1954 -0.5427
 1618SOL     OW 5666   5.243   7.846   3.323  0.0562 -0.3825 -0.0310
 1618SOL    HW1 5667   5.219   7.856   3.231 -1.6025  0.8906  0.5203
 1618SOL    HW2 5668   5.236   7.752   3.340 -1.2755 -0.4251 -0.7795
 1619SOL     OW 5669   4.983   1.266   1.996 -0.2465 -0.3934  0.4045
 1619SOL    HW1 5670   5.068   1.295   2.026 -0.4522  0.4363  0.1974
 1619SOL    HW2 5671   4.978   1.174   2.022  1.2907 -0.8555 -0.8455
 1620SOL     OW 5672   3.271   2.997   0.589 -0.0788  0.2578  1.0621
 1620SOL    HW1 5673   3.183   2.961   0.594 -0.1813  0.5862  1.6169
 1620SOL    HW2 5674   3.328   2.928   0.622 -0.0408 -0.2755 -0.1007
 1621SOL     OW 5675   3.206   0.150   7.896  0.4442 -0.3129 -0.3793
 1621SOL    HW1 5676   3.262   0.224   7.872  0.6417 -0.1135  0.6794
 1621SOL    HW2 5677   3.263   0.092   7.945  0.1539 -0.9315 -0.7649
 1622SOL     OW 5678   3.255   7.400   3.662  0.2407 -0.4352  0.2957
 1622SOL    HW1 5679   3.242   7.352   3.581  1.5614 -1.0846  0.4531
 1622SOL    HW2 5680   3.239   7.492   3.639  0.0322 -0.6872 -0.5585
 1623SOL     OW 5681   1.313   3.600   1.248 -0.3219  0.0590 -0.5038
 1623SOL    HW1 5682   1.226   3.637   1.262 -0.3538 -0.5860  1.1132
 1623SOL    HW2 5683   1.300   3.538   1.176 -1.4698 -0.9066  0.5037
 1624SOL     OW 5684   4.232   0.766   2.539 -0.0216  0.1863  0.4150
 1624SOL    HW1 5685   4.166   0.711   2.580 -1.6568  2.5979  1.1201
 1624SOL    HW2 5686   4.217   0.854   2.575  2.4240  1.1447 -0.7505
 1625SOL     OW 5687   4.004   3.061   3.082 -0.2613  0.3489  0.0769
 1625SOL    HW1 5688   3.949   3.069   3.160 -1.4203 -0.8756 -0.5920
 1625SOL    HW2 5689   4.091   3.088   3.111 -0.3757 -1.3925  2.1434
 1626SOL     OW 5690   7.276   3.847   2.122  0.0689  0.1473  0.2247
 1626SOL    HW1 5691   7.321   3.877   2.044 -1.2265  0.7576 -0.3099
 1626SOL    HW2 5692   7.209   3.914   2.139 -1.6359 -1.4598  0.0906
 1627SOL     OW 5693   3.840   6.959   4.468  0.5906  0.4303 -0.2365
 1627SOL    HW1 5694   3.872   6.885   4.417  0.7579  0.0440  0.4171
 1627SOL    HW2 5695   3.914   6.982   4.526  0.3820  0.8192 -0.1204
 1628SOL     OW 5696   5.148   7.239   5.145  0.5372  0.1992  0.2285
 1628SOL    HW1 5697   5.100   7.304   5.196  0.5481 -0.0800  0.5960
 1628SOL    HW2 5698   5.199   7.191   5.209 -0.8194 -1.3360  0.2062
 1629SOL     OW 5699   4.287   1.788   6.839 -0.1682 -0.0309 -0.2397
 1629SOL    HW1 5700   4.269   1.879   6.818 -1.8406 -0.6175 -1.4722
 1629SOL    HW2 5701   4.201   1.747   6.846  0.5586 -1.4699  0.4885
 1630SOL     OW 5702   0.733   4.398   1.059 -0.2030  0.2295  0.5035
 1630SOL    HW1 5703   0.772   4.457   1.123 -0.0101  0.2608  0.3561
 1630SOL    HW2 5704   0.746   4.441   0.975 -0.0313 -0.0390  0.3906
 1631SOL     OW 5705   6.999   2.243   6.366 -0.1416 -0.2205 -0.4864
 1631SOL    HW1 5706   6.905   2.225   6.353  0.0645 -1.3290 -0.4678
 1631SOL    HW2 5707   7.043   2.191   6.298  0.4978 -0.1302 -0.1411
 1632SOL     OW 5708   1.484   4.254   6.432 -0.5250 -0.0472 -0.2476
 1632SOL    HW1 5709   1.440   4.319   6.376  1.7227  0.7120 -1.2044
 1632SOL    HW2 5710   1.540   4.305   6.489  0.1052 -1.0550  0.0530
 1633SOL     OW 5711   4.229   1.592   3.025  0.3631 -0.4214  0.4569
 1633SOL    HW1 5712   4.275   1.616   2.945  0.2779  1.3368  0.9267
 1633SOL    HW2 5713   4.244   1.498   3.034  2.2339 -0.2251 -0.4318
 1634SOL     OW 5714   3.094   3.930   6.262 -0.2911 -0.0150  0.2779
 1634SOL    HW1 5715   3.049   3.847   6.248  1.2575 -0.8661  0.2683
 1634SOL    HW2 5716   3.079   3.949   6.355 -0.3851 -0.4464  0.3535
 1635SOL     OW 5717   3.534   6.090   5.344 -0.7356 -0.2966  0.3864
 1635SOL    HW1 5718   3.563   6.147   5.416 -0.3244 -1.6807  1.3221
 1635SOL    HW2 5719   3.565   6.134   5.265  1.1376 -0.1139  1.1995
 1636SOL     OW 5720   5.352   5.793   1.212 -0.7090  0.2705  0.1864
 1636SOL    HW1 5721   5.342   5.876   1.258  0.0037 -0.0673  0.9518
 1636SOL    HW2 5722   5.316   5.727   1.271 -0.6083 -0.0492 -0.1041
 1637SOL     OW 5723   3.827   1.167   0.040 -0.0448 -0.3139  0.4008
 1637SOL    HW1 5724   3.841   1.139   0.131  0.9978 -1.3759 -0.0733
 1637SOL    HW2 5725   3.895   1.233   0.025 -1.2453  1.0718  0.8862
 1638SOL     OW 5726   6.809   2.841   4.181 -0.1384 -0.2535  0.1551
 1638SOL    HW1 5727   6.738   2.829   4.118  0.0748 -1.4496  0.1479
 1638SOL    HW2 5728   6.830   2.935   4.175 -1.7463  0.1277  0.1955
 1639SOL     OW 5729   4.888   3.363   2.316  0.0698  0.3922 -0.0564
 1639SOL    HW1 5730   4.925   3.404   2.395 -0.0181  0.5653 -0.1041
 1639SOL    HW2 5731   4.812   3.417   2.295  0.0136  0.2638 -0.1804
 1640SOL     OW 5732   0.501   4.509   5.345 -0.3346  0.0511  0.2818
 1640SOL    HW1 5733   0.545   4.588   5.314 -0.0775 -0.1198  0.2149
 1640SOL    HW2 5734   0.545   4.437   5.299 -0.8778 -0.0969 -0.0195
 1641SOL     OW 5735   1.688   4.607   4.221 -0.4576  0.2410  0.7619
 1641SOL    HW1 5736   1.619   4.594   4.155 -0.3857 -0.2392  0.7784
 1641SOL    HW2 5737   1.648   4.575   4.302 -0.2879  0.1477  0.8084
 1642SOL     OW 5738   6.735   1.054   0.488 -0.5186  0.1513 -0.1582
 1642SOL    HW1 5739   6.685   1.048   0.407 -2.5235 -1.7337  1.1723
 1642SOL    HW2 5740   6.823   1.025   0.464 -1.3242 -1.3119 -1.4628
 1643SOL     OW 5741   4.896   3.676   0.060 -0.4566 -0.1790 -0.1626
 1643SOL    HW1 5742   4.965   3.665  -0.005 -0.3195 -1.6516  0.2060
 1643SOL    HW2 5743   4.942   3.697   0.141 -0.4152 -1.3345  0.1226
 1644SOL     OW 5744   3.602   2.460   4.659  1.0137 -0.3815  0.4599
 1644SOL    HW1 5745   3.650   2.470   4.742  1.1781  1.9257  0.1149
 1644SOL    HW2 5746   3.526   2.518   4.668 -0.7757 -2.6194  0.2733
 1645SOL     OW 5747   2.935   0.658   6.661  0.3562  0.0077  0.5699
 1645SOL    HW1 5748   2.955   0.651   6.755 -1.2408  1.7401  1.0713
 1645SOL    HW2 5749   2.842   0.681   6.658  0.7177  1.3440 -1.3960
 1646SOL     OW 5750   4.552   5.037   5.440 -0.0337 -0.1661  0.4347
 1646SOL    HW1 5751   4.547   5.113   5.496  1.0900 -0.1798  0.5731
 1646SOL    HW2 5752   4.613   5.062   5.370  1.2078 -1.2848  1.0744
 1647SOL     OW 5753   6.084   3.938   6.278  0.5577 -0.1725  0.6673
 1647SOL    HW1 5754   6.014   3.894   6.325  0.8411  0.1098  1.3659
 1647SOL    HW2 5755   6.161   3.926   6.333  0.7871  0.5890  0.5223
 1648SOL     OW 5756   6.976   1.382   0.458  0.0760  0.2157 -0.7546
 1648SOL    HW1 5757   7.000   1.345   0.543  2.5920  0.1409 -1.4530
 1648SOL    HW2 5758   6.954   1.306   0.405  0.6058  0.0892 -0.7962
 1649SOL     OW 5759   1.537   6.251   4.147  0.1787 -0.2583 -0.3955
 1649SOL    HW1 5760   1.487   6.332   4.138 -0.5367 -0.6696 -0.2059
 1649SOL    HW2 5761   1.626   6.274   4.119 -0.1913  0.4087 -1.0475
 1650SOL     OW 5762   0.114   7.825   2.698 -0.5201 -0.3366  0.4712
 1650SOL    HW1 5763   0.071   7.887   2.756 -0.9176  2.5319 -2.7482
 1650SOL    HW2 5764   0.208   7.840   2.710 -0.6003  0.2911  0.2852
 1651SOL     OW 5765   0.245   4.457   7.279  0.2391 -0.0870 -0.0766
 1651SOL    HW1 5766   0.150   4.458   7.269  0.3004  0.0050 -0.6811
 1651SOL    HW2 5767   0.260   4.439   7.372 -0.3747  0.7786  0.1922
 1652SOL     OW 5768   3.998   3.378   0.844  0.1780 -0.0046 -0.3514
 1652SOL    HW1 5769   3.993   3.458   0.897  1.0810  0.6087 -1.1809
 1652SOL    HW2 5770   4.090   3.354   0.844  0.0373 -0.5589 -0.8302
 1653SOL     OW 5771   7.241   2.594   2.163  0.0978  0.0795 -0.3966
 1653SOL    HW1 5772   7.213   2.609   2.253 -1.1549 -0.0794 -0.7532
 1653SOL    HW2 5773   7.290   2.672   2.139  0.1622  0.2592  0.3181
 1654SOL     OW 5774   7.566   3.634   3.351  0.1196 -0.1966  0.1575
 1654SOL    HW1 5775   7.490   3.594   3.308  1.2132 -2.0539 -0.1024
 1654SOL    HW2 5776   7.582   3.578   3.427 -0.2974  1.6565  1.6519
 1655SOL     OW 5777   4.644   5.444   3.147  0.3988  0.4511  0.2807
 1655SOL    HW1 5778   4.724   5.475   3.105  1.5085  0.0285  2.0037
 1655SOL    HW2 5779   4.611   5.375   3.089  1.9343 -0.1783  0.1241
 1656SOL     OW 5780   1.770   3.973   7.906 -0.7126 -0.5066 -0.3978
 1656SOL    HW1 5781   1.821   3.955   7.985 -1.1074  1.5778  0.3442
 1656SOL    HW2 5782   1.714   3.896   7.896  0.8493 -1.7392  0.1351
 1657SOL     OW 5783   3.547   3.729   1.635 -0.1110 -0.6663  0.0956
 1657SOL    HW1 5784   3.545   3.747   1.541 -1.2229 -0.4009  0.1619
 1657SOL    HW2 5785   3.465   3.766   1.668  0.3514 -0.6173  1.1958
 1658SOL     OW 5786   1.366   0.708   3.101 -0.0438 -0.4640 -0.1625
 1658SOL    HW1 5787   1.459   0.710   3.078 -0.3029 -1.3991 -1.3150
 1658SOL    HW2 5788   1.324   0.763   3.034 -0.2941  0.2231  0.5432
 1659SOL     OW 5789   3.548   4.106   6.869 -1.0031 -0.3905 -0.5035
 1659SOL    HW1 5790   3.545   4.013   6.890 -2.3718 -0.4388 -0.8713
 1659SOL    HW2 5791   3.549   4.150   6.954  1.0075 -0.7672 -0.3203
 1660SOL     OW 5792   1.920   6.915   5.231  0.0519 -0.6378  0.1560
 1660SOL    HW1 5793   1.830   6.936   5.254 -0.0959  0.8002 -1.6347
 1660SOL    HW2 5794   1.937   6.964   5.151  2.4354 -0.8902  0.4577
 1661SOL     OW 5795   5.124   6.605   5.060 -0.0337  0.1329  0.1697
 1661SOL    HW1 5796   5.040   6.648   5.075 -1.3629 -2.8738  1.8576
 1661SOL    HW2 5797   5.150   6.572   5.146  2.7331  0.6839 -0.3953
 1662SOL     OW 5798   5.392   7.872   0.058 -0.3707  0.0205  0.0269
 1662SOL    HW1 5799   5.330   7.925   0.107  0.3115  0.3495  0.5391
 1662SOL    HW2 5800   5.347   7.789   0.043 -1.7329  1.0061 -1.4443
 1663SOL     OW 5801   3.242   6.087   0.519  0.0570 -0.1184  0.5614
 1663SOL    HW1 5802   3.181   6.032   0.567 -1.7974  0.0093 -1.5373
 1663SOL    HW2 5803   3.306   6.026   0.481 -1.2889 -0.7267 -0.7603
 1664SOL     OW 5804   7.795   1.506   4.957 -0.6983 -0.1651 -0.2089
 1664SOL    HW1 5805   7.711   1.522   5.001 -1.8490  0.4610 -2.5559
 1664SOL    HW2 5806   7.831   1.594   4.944 -0.3017 -0.3550 -0.3816
 1665SOL     OW 5807   3.265   5.898   1.379 -0.1616  0.4778  0.3305
 1665SOL    HW1 5808   3.345   5.848   1.366 -0.8406 -0.2805 -1.0458
 1665SOL    HW2 5809   3.242   5.931   1.292 -0.4985  2.0072  0.9792
 1666SOL     OW 5810   3.417   1.552   2.781 -0.7276  0.3395 -0.4808
 1666SOL    HW1 5811   3.474   1.629   2.793 -1.2075  0.7085 -0.5322
 1666SOL    HW2 5812   3.477   1.477   2.786 -0.8029  0.4173  4.3613
 1667SOL     OW 5813   5.359   5.122   2.041 -0.1485  0.2964 -0.0335
 1667SOL    HW1 5814   5.423   5.192   2.056 -1.0928  1.1132  0.3084
 1667SOL    HW2 5815   5.281   5.152   2.088 -0.1113 -1.6795  1.3339
 1668SOL     OW 5816   7.987   6.678   2.398  0.1079  0.1695 -0.3579
 1668SOL    HW1 5817   7.993   6.606   2.335 -0.5241  1.0289 -1.4087
 1668SOL    HW2 5818   7.922   6.649   2.462 -0.6427  0.0865 -1.1544
 1669SOL     OW 5819   3.904   0.251   1.550 -0.4259 -0.0024 -0.0484
 1669SOL    HW1 5820   3.972   0.244   1.483 -1.0825 -0.9745 -0.6125
 1669SOL    HW2 5821   3.910   0.342   1.580  0.3417  0.2401 -0.9206
 1670SOL     OW 5822   1.812   3.102   4.207 -0.1491 -0.1740 -0.3573
 1670SOL    HW1 5823   1.773   3.019   4.182 -0.7051 -1.1375  3.3438
 1670SOL    HW2 5824   1.737   3.160   4.222  0.2016  0.7108 -2.0014
 1671SOL     OW 5825   7.631   0.371   1.140 -0.4365 -0.3142  0.0113
 1671SOL    HW1 5826   7.622   0.425   1.061  0.3506 -0.7436 -0.3683
 1671SOL    HW2 5827   7.676   0.293   1.110 -1.7734 -1.2932  0.5176
 1672SOL     OW 5828   3.503   5.219   7.804 -0.3095  0.1491 -0.3537
 1672SOL    HW1 5829   3.586   5.190   7.764 -0.0528 -0.8462  0.8609
 1672SOL    HW2 5830   3.485   5.303   7.762  0.3464 -0.4945 -2.0022
 1673SOL     OW 5831   4.489   6.684   6.000 -0.0186  0.1489 -0.1322
 1673SOL    HW1 5832   4.480   6.689   5.905 -0.4022 -0.1526 -0.1141
 1673SOL    HW2 5833   4.558   6.620   6.015  0.5908  0.7733 -0.2219
 1674SOL     OW 5834   1.517   0.859   7.180  0.2298  0.4827  0.5124
 1674SOL    HW1 5835   1.548   0.769   7.187 -3.0481 -0.7073  0.6362
 1674SOL    HW2 5836   1.518   0.877   7.086  1.7864  0.7081  0.5473
 1675SOL     OW 5837   2.014   6.810   5.481  0.3636 -0.2472 -0.2978
 1675SOL    HW1 5838   1.990   6.830   5.390  0.6497 -0.5445 -0.4406
 1675SOL    HW2 5839   2.075   6.737   5.474 -1.7690 -2.1201  0.2924
 1676SOL     OW 5840   2.635   7.243   7.696 -0.6836  0.2503  0.4230
 1676SOL    HW1 5841   2.608   7.160   7.734  0.0440  0.1599  0.7454
 1676SOL    HW2 5842   2.573   7.307   7.731 -1.8129 -0.2881 -0.5451
 1677SOL     OW 5843   1.849   1.487   2.779 -0.3277  0.5199  0.0516
 1677SOL    HW1 5844   1.906   1.539   2.834 -0.2215  0.2887  0.1595
 1677SOL    HW2 5845   1.841   1.537   2.698  1.4853 -0.3173 -0.6537
 1678SOL     OW 5846   5.568   3.232   2.063  0.5051 -0.4592  1.0101
 1678SOL    HW1 5847   5.499   3.296   2.078 -0.4998 -1.6341  1.5381
 1678SOL    HW2 5848   5.572   3.181   2.144  0.9167 -1.3866  0.4179
 1679SOL     OW 5849   0.449   7.246   7.924 -0.1471 -0.1775 -0.0647
 1679SOL    HW1 5850   0.503   7.204   7.857 -1.3169  1.0150 -1.8099
 1679SOL    HW2 5851   0.489   7.332   7.935 -1.7869  0.7932 -1.5316
 1680SOL     OW 5852   6.129   6.984   1.042 -0.3552  0.1890  0.4101
 1680SOL    HW1 5853   6.191   6.990   0.970 -0.2574 -1.5227  0.3390
 1680SOL    HW2 5854   6.167   7.039   1.111  1.1373 -0.6615  0.2918
 1681SOL     OW 5855   4.525   5.643   5.753  0.0684 -0.3628 -0.0948
 1681SOL    HW1 5856   4.513   5.639   5.848 -0.0625  0.2465 -0.0873
 1681SOL    HW2 5857   4.480   5.723   5.726  1.0419  0.0459 -0.5333
 1682SOL     OW 5858   5.613   7.726   2.385  0.2605 -0.3500 -1.0348
 1682SOL    HW1 5859   5.594   7.803   2.438 -0.7217 -0.9131 -0.5391
 1682SOL    HW2 5860   5.697   7.694   2.418 -1.3675 -1.9581  1.7592
 1683SOL     OW 5861   3.173   3.584   1.609  0.0094 -0.1216  0.1598
 1683SOL    HW1 5862   3.226   3.566   1.687  0.4700  1.8008  0.3107
 1683SOL    HW2 5863   3.088   3.545   1.628  0.6919 -1.3279  0.8275
 1684SOL     OW 5864   7.365   2.830   2.148 -0.1443  0.1746 -0.4730
 1684SOL    HW1 5865   7.442   2.847   2.093 -1.0811  0.5395 -1.6955
 1684SOL    HW2 5866   7.347   2.913   2.191  0.0022  0.1480 -0.3578
 1685SOL     OW 5867   1.079   7.229   7.280  0.2511 -0.5328 -0.3903
 1685SOL    HW1 5868   1.119   7.310   7.247  1.6692 -1.6539 -1.4257
 1685SOL    HW2 5869   1.020   7.201   7.210 -0.5425 -0.2120  0.1322
 1686SOL     OW 5870   6.914   7.826   6.861 -0.0061  0.7413  0.5408
 1686SOL    HW1 5871   6.981   7.801   6.798  0.0103  2.0404  0.0236
 1686SOL    HW2 5872   6.875   7.744   6.890 -0.0685  0.1355 -1.2366
 1687SOL     OW 5873   4.445   1.451   1.911 -0.0320 -0.1897 -0.1753
 1687SOL    HW1 5874   4.533   1.452   1.950  0.1951  2.7368 -0.6980
 1687SOL    HW2 5875   4.386   1.443   1.985  0.6268 -1.6132  0.2249
 1688SOL     OW 5876   7.530   0.711   5.818 -0.3505  0.4137 -0.4325
 1688SOL    HW1 5877   7.531   0.788   5.762 -2.2924  0.6529 -0.1709
 1688SOL    HW2 5878   7.603   0.724   5.878 -1.2611  2.5821  0.2744
 1689SOL     OW 5879   3.857   1.543   4.324 -0.2299  0.1222  0.7862
 1689SOL    HW1 5880   3.937   1.595   4.330 -0.2635  0.1070  1.3775
 1689SOL    HW2 5881   3.786   1.607   4.331 -0.3297  0.6622 -3.7404
 1690SOL     OW 5882   3.110   1.075   7.463  0.4966 -0.0650  0.1340
 1690SOL    HW1 5883   3.172   1.143   7.492  0.1429 -0.3918  1.6739
 1690SOL    HW2 5884   3.042   1.124   7.417 -0.1586  0.7393  1.9023
 1691SOL     OW 5885   5.028   7.002   5.878 -0.0267  0.1544  0.1392
 1691SOL    HW1 5886   4.978   7.083   5.881 -0.0438  0.0937  1.5950
 1691SOL    HW2 5887   5.023   6.967   5.967  0.1919 -1.3121 -0.4096
 1692SOL     OW 5888   5.706   0.589   0.925 -0.8010 -0.0982 -0.1222
 1692SOL    HW1 5889   5.799   0.607   0.909 -1.1010  0.4280 -1.2815
 1692SOL    HW2 5890   5.700   0.494   0.926 -0.2947 -0.1325 -0.2928
 1693SOL     OW 5891   0.380   7.170   6.643 -0.0415  0.1654  0.2702
 1693SOL    HW1 5892   0.293   7.185   6.680  0.6440 -0.0252  1.9705
 1693SOL    HW2 5893   0.440   7.202   6.709  1.2112 -0.1621 -0.6981
 1694SOL     OW 5894   5.331   7.780   7.307  0.0568 -0.0079 -0.4427
 1694SOL    HW1 5895   5.319   7.866   7.265 -0.5110 -0.4682 -1.2387
 1694SOL    HW2 5896   5.415   7.787   7.352 -0.9943  1.6963  1.3285
 1695SOL     OW 5897   4.867   4.131   2.340  0.3740 -0.0088  0.0877
 1695SOL    HW1 5898   4.898   4.043   2.364  0.4354 -0.0393 -0.1071
 1695SOL    HW2 5899   4.938   4.167   2.287 -0.4912 -0.5699 -1.4768
 1696SOL     OW 5900   1.731   1.799   4.896 -0.6735  0.3220 -0.0724
 1696SOL    HW1 5901   1.744   1.710   4.929  0.0417  0.6601  0.5547
 1696SOL    HW2 5902   1.678   1.787   4.816  0.8772 -0.7983 -0.9608
 1697SOL     OW 5903   3.524   4.462   5.916 -0.1735  0.3185 -0.5137
 1697SOL    HW1 5904   3.472   4.382   5.913 -1.4264  1.1048 -0.4649
 1697SOL    HW2 5905   3.563   4.469   5.829 -2.2229  1.0366 -1.4149
 1698SOL     OW 5906   5.228   4.462   2.564 -0.3601 -0.4156 -0.0413
 1698SOL    HW1 5907   5.146   4.475   2.516 -2.0664 -2.2791  2.2534
 1698SOL    HW2 5908   5.245   4.547   2.604 -0.6794  0.2227 -1.2194
 1699SOL     OW 5909   4.208   0.493   5.330 -0.1482  0.9830 -0.1330
 1699SOL    HW1 5910   4.143   0.546   5.376 -1.6032  0.5613 -1.6450
 1699SOL    HW2 5911   4.281   0.553   5.314 -0.7697  1.8700  0.2957
 1700SOL     OW 5912   3.737   1.019   4.389 -0.1092  0.1372  0.0886
 1700SOL    HW1 5913   3.705   1.102   4.353  2.2869  0.5665 -1.1767
 1700SOL    HW2 5914   3.750   1.037   4.482  1.1856  1.4765 -0.3236
 1701SOL     OW 5915   2.638   4.438   3.362 -0.6184 -0.4913  0.4082
 1701SOL    HW1 5916   2.635   4.530   3.334  0.8811 -0.4834  0.2157
 1701SOL    HW2 5917   2.670   4.391   3.285  0.6675 -0.8787  1.1763
 1702SOL     OW 5918   4.162   3.132   7.750 -0.1595 -0.3783  0.1141
 1702SOL    HW1 5919   4.100   3.062   7.728  0.0458 -0.8771  1.1239
 1702SOL    HW2 5920   4.244   3.087   7.769 -0.0733  0.1278  0.9451
 1703SOL     OW 5921   5.819   3.393   6.992  0.2853 -0.0568  0.2773
 1703SOL    HW1 5922   5.775   3.401   6.907 -0.9137 -0.3140  0.8747
 1703SOL    HW2 5923   5.751   3.408   7.057  0.9725 -0.9364  1.2257
 1704SOL     OW 5924   4.532   0.096   6.529 -0.1962 -0.0801  0.0450
 1704SOL    HW1 5925   4.512   0.184   6.561 -0.9941 -0.1756 -0.1927
 1704SOL    HW2 5926   4.449   0.049   6.533  0.0652 -0.5973 -0.5486
 1705SOL     OW 5927   4.124   4.937   3.178 -0.4307 -0.0754  0.6184
 1705SOL    HW1 5928   4.171   4.974   3.252 -1.1641 -0.7726  1.4473
 1705SOL    HW2 5929   4.191   4.922   3.111  0.0175  1.8695  0.6021
 1706SOL     OW 5930   1.936   5.608   2.426 -0.3150 -0.0607 -0.1105
 1706SOL    HW1 5931   1.964   5.666   2.355  2.1768  0.1657  1.0078
 1706SOL    HW2 5932   1.919   5.666   2.500 -1.6525 -0.4184 -0.1269
 1707SOL     OW 5933   4.431   6.887   0.466  0.5268 -0.6234 -0.2267
 1707SOL    HW1 5934   4.425   6.981   0.486 -0.6554 -0.7482  0.0326
 1707SOL    HW2 5935   4.519   6.863   0.495 -0.3544 -0.3241  2.9250
 1708SOL     OW 5936   0.582   3.983   4.452  0.2095 -0.1587  0.3220
 1708SOL    HW1 5937   0.509   3.989   4.390  1.0262  2.1012 -0.4596
 1708SOL    HW2 5938   0.656   3.952   4.400  0.0857 -1.3761  0.8705
 1709SOL     OW 5939   6.097   7.426   3.211  0.4347  0.3391 -0.1058
 1709SOL    HW1 5940   6.160   7.368   3.168  0.9569 -0.1093  1.2424
 1709SOL    HW2 5941   6.102   7.508   3.160 -0.0982 -0.6743 -1.8402
 1710SOL     OW 5942   1.495   1.584   5.002 -0.1895 -0.7993 -0.2776
 1710SOL    HW1 5943   1.583   1.567   4.970  0.1050 -0.2610  0.2164
 1710SOL    HW2 5944   1.503   1.669   5.047 -1.4208  0.2807 -2.0380
 1711SOL     OW 5945   6.486   6.592   5.752  0.2888  0.0892  0.9924
 1711SOL    HW1 5946   6.436   6.511   5.742  1.2144 -0.4977  0.9612
 1711SOL    HW2 5947   6.556   6.585   5.687 -0.1537  1.3296  0.3809
 1712SOL     OW 5948   1.270   1.835   5.700 -0.4870  1.2241  0.4299
 1712SOL    HW1 5949   1.318   1.804   5.623 -1.0885 -1.4020  1.0464
 1712SOL    HW2 5950   1.200   1.890   5.665  0.9998  2.4308 -0.6896
 1713SOL     OW 5951   2.403   4.603   0.256  0.4512 -0.3658 -0.1287
 1713SOL    HW1 5952   2.423   4.511   0.242  0.2045 -0.7551  1.9820
 1713SOL    HW2 5953   2.310   4.605   0.279  0.2906  0.4832 -0.8017
 1714SOL     OW 5954   0.054   0.832   1.017  0.1555 -0.0191 -0.1062
 1714SOL    HW1 5955   0.105   0.752   1.030  3.8812  2.5498  1.7133
 1714SOL    HW2 5956   0.028   0.858   1.105 -0.7644  0.9746 -0.6624
 1715SOL     OW 5957   4.967   2.235   3.656  0.0816  0.3569  0.1195
 1715SOL    HW1 5958   4.909   2.289   3.602 -0.8597 -1.0746 -0.3401
 1715SOL    HW2 5959   5.054   2.272   3.643 -0.2253  0.3979 -1.9327
 1716SOL     OW 5960   2.965   2.953   7.435  0.3356  0.0561 -0.0402
 1716SOL    HW1 5961   2.898   2.971   7.501  1.0686 -2.9474  1.6208
 1716SOL    HW2 5962   2.953   3.022   7.369 -1.7056  1.9529  2.2265
 1717SOL     OW 5963   1.170   4.137   7.568 -0.2713 -0.6164 -0.0791
 1717SOL    HW1 5964   1.207   4.138   7.657 -2.1756  0.6483  0.7355
 1717SOL    HW2 5965   1.117   4.057   7.566 -1.2425  0.0021  0.3815
 1718SOL     OW 5966   0.870   2.022   4.219  0.2646  0.0145 -0.2072
 1718SOL    HW1 5967   0.846   2.015   4.127  1.4493 -0.4886 -0.4963
 1718SOL    HW2 5968   0.832   1.944   4.260  1.4868 -0.8519 -0.6870
 1719SOL     OW 5969   6.293   7.828   0.344 -0.3535 -0.1911 -0.3837
 1719SOL    HW1 5970   6.244   7.850   0.423 -0.6964 -1.2673 -0.2863
 1719SOL    HW2 5971   6.231   7.844   0.273 -0.6115 -0.8360 -0.3111
 1720SOL     OW 5972   3.381   5.939   2.452 -0.4334 -1.0814 -0.1014
 1720SOL    HW1 5973   3.368   5.863   2.395 -2.3964  0.2640 -1.5068
 1720SOL    HW2 5974   3.432   6.000   2.399 -0.0746 -0.8428  0.5148
 1721SOL     OW 5975   5.272   3.717   6.536 -0.1405 -0.4434 -0.2196
 1721SOL    HW1 5976   5.299   3.650   6.473  0.3606 -0.6460  0.2011
 1721SOL    HW2 5977   5.338   3.712   6.606 -0.0577  0.5306 -0.2152
 1722SOL     OW 5978   7.148   0.899   6.221 -0.0396  0.5360 -0.3072
 1722SOL    HW1 5979   7.168   0.992   6.229  0.0770  0.7222 -2.5012
 1722SOL    HW2 5980   7.230   0.859   6.193  0.2230 -0.4430  1.7047
 1723SOL     OW 5981   6.977   2.802   3.183 -0.1569 -0.1935  0.0878
 1723SOL    HW1 5982   6.989   2.897   3.174 -2.4007  0.1632  0.5627
 1723SOL    HW2 5983   7.000   2.767   3.096  1.7202  0.6449  0.2244
 1724SOL     OW 5984   4.732   0.316   3.540  0.3355  0.0518 -0.1115
 1724SOL    HW1 5985   4.668   0.308   3.611 -1.2593 -0.8783 -1.6031
 1724SOL    HW2 5986   4.796   0.379   3.572 -0.4185 -0.2681  2.0973
 1725SOL     OW 5987   3.842   7.597   7.560 -0.4725 -0.1487  0.0832
 1725SOL    HW1 5988   3.923   7.625   7.516 -0.7201  0.8718  0.2599
 1725SOL    HW2 5989   3.772   7.640   7.511 -0.8829 -0.6543  0.2234
 1726SOL     OW 5990   1.779   7.682   6.688 -0.3413 -0.4192 -0.2624
 1726SOL    HW1 5991   1.694   7.641   6.700 -1.5969  2.0897 -0.2437
 1726SOL    HW2 5992   1.792   7.684   6.593  0.0328 -1.3999 -0.2428
 1727SOL     OW 5993   4.175   6.907   4.955  0.3886  0.0447 -0.3214
 1727SOL    HW1 5994   4.120   6.967   4.906 -1.0246 -0.0567  1.1104
 1727SOL    HW2 5995   4.220   6.962   5.019  0.1900 -0.2067  0.0363
 1728SOL     OW 5996   4.676   7.773   3.815 -0.5060  1.0931  0.4349
 1728SOL    HW1 5997   4.693   7.817   3.898 -1.2669  0.1399  1.1011
 1728SOL    HW2 5998   4.623   7.697   3.838 -1.2159  1.1391 -0.9979
 1729SOL     OW 5999   4.781   2.733   1.242  0.0459  0.7387  0.3759
 1729SOL    HW1 6000   4.796   2.655   1.295  3.0428  1.2397  0.3219
 1729SOL    HW2 6001   4.796   2.806   1.301  2.0188  1.2871 -0.7929
 1730SOL     OW 6002   4.252   4.235   2.972 -0.4480 -0.1903 -0.5648
 1730SOL    HW1 6003   4.207   4.308   3.014 -0.7765 -0.9534  0.4513
 1730SOL    HW2 6004   4.208   4.157   3.006  0.1464 -0.8684 -1.3311
 1731SOL     OW 6005   2.167   2.920   1.520  0.0983  0.0596 -0.6641
 1731SOL    HW1 6006   2.255   2.915   1.556 -0.0402  0.2815 -0.2899
 1731SOL    HW2 6007   2.156   3.011   1.495 -0.3084  0.2057  0.0244
 1732SOL     OW 6008   3.489   1.741   1.068 -0.1614 -0.2840  0.1755
 1732SOL    HW1 6009   3.504   1.738   1.162  1.1295  0.4368 -0.0012
 1732SOL    HW2 6010   3.569   1.707   1.029  0.0746  1.2246 -0.7124
 1733SOL     OW 6011   7.747   0.566   1.750  0.2164  0.8511 -0.1610
 1733SOL    HW1 6012   7.831   0.528   1.775  1.2543  2.2182 -1.5517
 1733SOL    HW2 6013   7.769   0.649   1.708 -1.7348  0.5143 -1.9313
 1734SOL     OW 6014   5.724   7.029   2.623  0.4040  0.1142 -0.0859
 1734SOL    HW1 6015   5.808   6.989   2.599 -0.4968 -1.1044 -1.3589
 1734SOL    HW2 6016   5.659   6.968   2.589 -1.0048  1.3556  0.3367
 1735SOL     OW 6017   2.924   2.887   3.510  0.3127  0.4413  0.1736
 1735SOL    HW1 6018   2.892   2.834   3.438  1.3275 -1.6125  1.1905
 1735SOL    HW2 6019   2.898   2.976   3.488  0.0471 -0.2383 -2.3905
 1736SOL     OW 6020   0.090   6.728   3.389  0.3862 -0.2091  0.4507
 1736SOL    HW1 6021   0.011   6.737   3.441 -0.2264 -1.1210 -0.3165
 1736SOL    HW2 6022   0.124   6.818   3.381  0.4958 -0.0497  2.3865
 1737SOL     OW 6023   2.952   4.454   7.130 -0.1368  1.0435  0.0932
 1737SOL    HW1 6024   2.970   4.547   7.148  0.3895  0.2933  3.7228
 1737SOL    HW2 6025   2.965   4.410   7.214 -0.7693 -2.2952 -1.4819
 1738SOL     OW 6026   2.678   7.532   0.792 -0.0771  0.1517 -0.0720
 1738SOL    HW1 6027   2.613   7.593   0.757 -0.6528  1.2102  2.7395
 1738SOL    HW2 6028   2.757   7.586   0.804  0.7051 -0.6468 -1.4826
 1739SOL     OW 6029   0.104   5.066   6.688 -0.6060  0.3183 -0.2750
 1739SOL    HW1 6030   0.129   4.974   6.699 -1.0466  0.6240  4.0845
 1739SOL    HW2 6031   0.184   5.109   6.656  1.0414 -0.7959  2.1676
 1740SOL     OW 6032   2.115   2.427   3.129 -0.3046  0.4924 -0.4037
 1740SOL    HW1 6033   2.133   2.399   3.219 -0.5823 -1.2318 -0.8627
 1740SOL    HW2 6034   2.025   2.460   3.132 -0.0014  1.2861  0.1337
 1741SOL     OW 6035   2.987   4.903   1.160 -0.3587  0.5229 -0.4727
 1741SOL    HW1 6036   3.066   4.852   1.173 -1.9239 -1.2569  2.6166
 1741SOL    HW2 6037   2.922   4.840   1.129 -1.2720  1.4422 -0.4802
 1742SOL     OW 6038   6.938   1.212   4.684 -0.0763 -0.2338 -0.0038
 1742SOL    HW1 6039   6.953   1.117   4.685 -0.7616 -0.4149 -2.9663
 1742SOL    HW2 6040   7.015   1.247   4.640 -0.4070  0.4690 -0.0168
 1743SOL     OW 6041   6.122   5.257   7.633  0.1586 -0.7354  1.0460
 1743SOL    HW1 6042   6.069   5.211   7.568  1.9131  0.7685 -1.5732
 1743SOL    HW2 6043   6.095   5.349   7.626  1.3260 -0.3398  1.4370
 1744SOL     OW 6044   6.944   0.918   7.871 -0.7054  0.1208 -0.4777
 1744SOL    HW1 6045   6.967   0.998   7.823 -0.1435  0.1102 -0.2275
 1744SOL    HW2 6046   6.950   0.848   7.805 -1.7531  0.3540 -0.8365
 1745SOL     OW 6047   4.840   0.831   0.305  0.3012  0.0924  0.1761
 1745SOL    HW1 6048   4.811   0.846   0.395 -0.6673  0.6426 -0.2154
 1745SOL    HW2 6049   4.911   0.894   0.291 -1.5476  2.1127 -0.3975
 1746SOL     OW 6050   6.249   2.857   6.155  0.5740 -0.3735 -0.1625
 1746SOL    HW1 6051   6.219   2.788   6.214  1.0184  0.6975  1.3391
 1746SOL    HW2 6052   6.279   2.810   6.076 -1.0291 -1.7338  0.0232
 1747SOL     OW 6053   6.319   7.817   7.138 -0.1572 -0.4458  0.1533
 1747SOL    HW1 6054   6.399   7.870   7.135  1.3587 -2.6545 -0.2072
 1747SOL    HW2 6055   6.288   7.814   7.047 -1.4353  1.5260  0.5073
 1748SOL     OW 6056   2.483   0.389   4.236 -0.1765 -0.0617 -0.0115
 1748SOL    HW1 6057   2.575   0.364   4.234 -0.4564 -1.2976  1.3739
 1748SOL    HW2 6058   2.460   0.405   4.144  1.1703 -0.6715 -0.4648
 1749SOL     OW 6059   2.659   1.576   1.861 -0.5176 -0.3418 -0.0795
 1749SOL    HW1 6060   2.689   1.660   1.896  0.8990 -0.6483 -0.5012
 1749SOL    HW2 6061   2.586   1.598   1.804  1.0465  0.8479 -1.6921
 1750SOL     OW 6062   4.786   6.174   0.646 -0.4855 -0.1859 -0.4677
 1750SOL    HW1 6063   4.691   6.170   0.630 -0.1682 -0.7210 -2.4447
 1750SOL    HW2 6064   4.812   6.083   0.660 -0.3674  0.0334  0.7232
 1751SOL     OW 6065   3.290   6.931   2.099  0.6406 -0.2263  0.3292
 1751SOL    HW1 6066   3.364   6.987   2.121  0.9618 -0.3195 -0.5065
 1751SOL    HW2 6067   3.330   6.847   2.075  0.1846 -0.7178  1.2307
 1752SOL     OW 6068   7.406   2.372   3.037 -0.6175  0.5896  0.5167
 1752SOL    HW1 6069   7.358   2.454   3.042  0.5515  1.4798 -1.6725
 1752SOL    HW2 6070   7.497   2.396   3.057 -0.3004 -0.1887  0.0547
 1753SOL     OW 6071   6.380   4.881   4.873 -0.0227  0.4249  0.5539
 1753SOL    HW1 6072   6.371   4.952   4.810 -0.2883 -1.3823 -1.5301
 1753SOL    HW2 6073   6.473   4.857   4.869 -0.2916 -0.5456 -0.1581
 1754SOL     OW 6074   3.849   7.110   5.906 -0.2546 -0.2172 -0.2038
 1754SOL    HW1 6075   3.772   7.166   5.919 -0.2222 -0.2870  0.2968
 1754SOL    HW2 6076   3.899   7.154   5.838 -0.6549 -0.0807 -0.4124
 1755SOL     OW 6077   5.609   4.992   3.463 -0.0681  0.3817  0.2429
 1755SOL    HW1 6078   5.629   5.085   3.464  1.0895  0.1384  0.2009
 1755SOL    HW2 6079   5.518   4.987   3.431  0.6726  1.3613 -2.1457
 1756SOL     OW 6080   5.202   4.195   5.750  0.2256 -0.3901 -0.3780
 1756SOL    HW1 6081   5.257   4.228   5.821  1.2717  0.8334 -1.7228
 1756SOL    HW2 6082   5.122   4.165   5.793  0.0946  2.0232  1.1012
 1757SOL     OW 6083   4.112   5.855   7.354 -0.2990 -0.1616 -0.3599
 1757SOL    HW1 6084   4.126   5.922   7.421 -1.0593 -0.0506 -0.3100
 1757SOL    HW2 6085   4.185   5.794   7.366 -0.0842  0.1900  0.1596
 1758SOL     OW 6086   7.418   0.122   0.648 -0.4061  0.1884 -0.1337
 1758SOL    HW1 6087   7.498   0.110   0.597 -0.3521 -1.2953  0.2940
 1758SOL    HW2 6088   7.367   0.042   0.634 -1.7448  1.0348 -0.2631
 1759SOL     OW 6089   4.937   0.051   6.067  0.0748  0.9198 -0.0770
 1759SOL    HW1 6090   5.009   0.025   6.009 -0.7920  0.8495 -1.1494
 1759SOL    HW2 6091   4.921   0.143   6.045 -0.9879  0.5833 -0.7497
 1760SOL     OW 6092   4.317   4.773   5.589  0.1966 -0.1800  0.1980
 1760SOL    HW1 6093   4.400   4.767   5.636  0.5600 -1.9333 -0.6115
 1760SOL    HW2 6094   4.251   4.757   5.657  0.5599  0.2965  0.6715
 1761SOL     OW 6095   4.315   4.154   4.310  0.2326  0.5932  0.6737
 1761SOL    HW1 6096   4.398   4.133   4.353  0.9398  1.8110 -0.0675
 1761SOL    HW2 6097   4.249   4.111   4.364  1.2758  0.2997  1.7456
 1762SOL     OW 6098   0.765   6.628   2.271  0.2384 -0.6951  0.0074
 1762SOL    HW1 6099   0.781   6.546   2.319  0.8390  0.0593  1.1068
 1762SOL    HW2 6100   0.756   6.600   2.179  1.5651 -1.8666  0.2130
 1763SOL     OW 6101   1.115   1.808   6.579  0.0385 -0.4022  0.0349
 1763SOL    HW1 6102   1.136   1.739   6.642 -0.0150  0.0418  0.5453
 1763SOL    HW2 6103   1.192   1.812   6.522  0.0182 -0.9221 -0.0387
 1764SOL     OW 6104   6.068   5.992   7.243  0.2839  0.1916 -0.3920
 1764SOL    HW1 6105   5.974   5.977   7.252  0.0174  0.7504 -2.2660
 1764SOL    HW2 6106   6.093   5.944   7.165  1.4565  0.5585 -0.2549
 1765SOL     OW 6107   4.163   0.877   1.400 -0.4182 -0.2559  0.0765
 1765SOL    HW1 6108   4.072   0.869   1.372 -0.2620  0.2893 -0.6006
 1765SOL    HW2 6109   4.158   0.909   1.490 -0.9069 -1.0240  0.3240
 1766SOL     OW 6110   7.054   6.620   5.143  0.1939  0.7155 -0.5540
 1766SOL    HW1 6111   7.101   6.566   5.079  0.9845 -1.3468  1.6828
 1766SOL    HW2 6112   7.121   6.645   5.206 -0.9434  1.1238  0.5039
 1767SOL     OW 6113   2.134   2.658   1.379  0.3023  0.8748 -0.3029
 1767SOL    HW1 6114   2.175   2.745   1.386  0.9014  0.7002 -1.4879
 1767SOL    HW2 6115   2.046   2.676   1.344 -0.0833  1.1221  0.7936
 1768SOL     OW 6116   7.070   7.816   4.183 -0.4009  0.6025  0.5069
 1768SOL    HW1 6117   7.163   7.818   4.161 -0.5607  0.2369 -0.2300
 1768SOL    HW2 6118   7.034   7.895   4.141 -0.4452  0.6879  0.7033
 1769SOL     OW 6119   5.130   5.884   1.503 -0.0597 -0.3513 -0.4141
 1769SOL    HW1 6120   5.125   5.799   1.460 -1.1945 -0.2179 -0.5452
 1769SOL    HW2 6121   5.044   5.898   1.541  0.3971  0.3283  0.4120
 1770SOL     OW 6122   7.746   0.958   6.187 -0.4151  0.1770 -0.7393
 1770SOL    HW1 6123   7.679   0.992   6.128 -0.5288 -0.0397 -0.7360
 1770SOL    HW2 6124   7.761   1.028   6.250 -0.9104  0.0820 -0.5148
 1771SOL     OW 6125   4.818   6.773   5.709 -0.7385  0.1986 -0.1234
 1771SOL    HW1 6126   4.884   6.841   5.698 -1.0157  0.3748 -0.7361
 1771SOL    HW2 6127   4.853   6.697   5.662  0.1998 -0.5355  1.6978
 1772SOL     OW 6128   2.088   1.852   2.201 -0.5514 -0.1146 -0.3531
 1772SOL    HW1 6129   2.164   1.797   2.220 -0.0904  0.6056 -0.0767
 1772SOL    HW2 6130   2.012   1.796   2.219 -0.0882 -0.7410 -0.3401
 1773SOL     OW 6131   3.612   4.908   0.392 -0.7587 -0.0312 -0.0451
 1773SOL    HW1 6132   3.654   4.826   0.366 -1.6699 -0.1759 -1.1215
 1773SOL    HW2 6133   3.665   4.941   0.465 -0.0115 -1.2458 -0.0323
 1774SOL     OW 6134   4.971   3.008   3.140 -0.2228  0.3457  0.4841
 1774SOL    HW1 6135   5.009   2.987   3.225 -1.2028  0.6533  0.9974
 1774SOL    HW2 6136   4.882   3.036   3.159 -0.7268 -0.3843 -0.7173
 1775SOL     OW 6137   3.521   3.078   1.378 -0.0641 -0.1411 -0.3030
 1775SOL    HW1 6138   3.468   3.018   1.327  1.2078 -1.0562 -0.5882
 1775SOL    HW2 6139   3.498   3.059   1.469 -0.1830 -0.5834 -0.4221
 1776SOL     OW 6140   5.126   1.620   1.256 -0.6820 -0.3661 -0.7179
 1776SOL    HW1 6141   5.038   1.588   1.238 -0.0284 -1.9239 -1.3120
 1776SOL    HW2 6142   5.145   1.589   1.345 -1.0765  0.8052 -0.2096
 1777SOL     OW 6143   5.811   1.965   5.671  0.0211 -0.6729  0.2371
 1777SOL    HW1 6144   5.891   1.930   5.710 -0.3657  0.2402  1.8969
 1777SOL    HW2 6145   5.793   2.044   5.721 -0.8919  0.1577 -1.3615
 1778SOL     OW 6146   1.515   6.281   7.161  0.6109 -0.0962 -0.3848
 1778SOL    HW1 6147   1.474   6.347   7.105 -0.1198 -1.3687 -1.3703
 1778SOL    HW2 6148   1.441   6.229   7.194  1.2477 -0.8970 -0.2252
 1779SOL     OW 6149   7.602   2.895   0.830  0.4527  0.0128  0.0837
 1779SOL    HW1 6150   7.614   2.955   0.904 -0.4206  1.0046 -0.5791
 1779SOL    HW2 6151   7.683   2.844   0.829  1.6396  1.8353  0.0584
 1780SOL     OW 6152   2.151   3.206   6.859  0.2863 -0.1221  0.3520
 1780SOL    HW1 6153   2.078   3.145   6.870  0.3581 -0.0728  1.1445
 1780SOL    HW2 6154   2.113   3.284   6.819 -0.0448 -0.1999  0.5191
 1781SOL     OW 6155   4.647   3.893   6.744 -0.2025 -0.3040  0.1648
 1781SOL    HW1 6156   4.569   3.854   6.704  0.0217  0.9096 -1.5667
 1781SOL    HW2 6157   4.715   3.827   6.733 -0.8328 -1.1260  1.1326
 1782SOL     OW 6158   3.807   7.357   7.662 -0.5181 -0.2620  0.1613
 1782SOL    HW1 6159   3.805   7.442   7.618 -1.0134 -1.0726 -1.4342
 1782SOL    HW2 6160   3.856   7.372   7.742  1.8410  0.9017 -1.4537
 1783SOL     OW 6161   0.918   5.131   7.367 -0.6288 -0.1074  0.0402
 1783SOL    HW1 6162   0.923   5.215   7.321 -1.5149  0.1683  0.4370
 1783SOL    HW2 6163   0.941   5.066   7.301  1.0362  0.5268 -0.0097
 1784SOL     OW 6164   7.426   7.308   1.625 -0.1356 -0.5037  0.1791
 1784SOL    HW1 6165   7.383   7.388   1.596  0.7691  0.2273  0.8513
 1784SOL    HW2 6166   7.354   7.250   1.650 -0.7326  1.0260  2.1321
 1785SOL     OW 6167   2.588   2.658   2.657  0.3398 -0.0178 -0.3006
 1785SOL    HW1 6168   2.568   2.668   2.750 -0.7525  0.9523 -0.6272
 1785SOL    HW2 6169   2.543   2.577   2.631 -1.8413  1.2603 -0.6421
 1786SOL     OW 6170   3.250   2.368   5.305  0.5585  0.0795 -0.3446
 1786SOL    HW1 6171   3.183   2.397   5.366  1.4171  3.6436 -0.9565
 1786SOL    HW2 6172   3.205   2.306   5.247 -1.2094 -0.4263  1.5121
 1787SOL     OW 6173   6.983   0.865   1.220 -0.5883  0.6083  0.2552
 1787SOL    HW1 6174   6.959   0.774   1.207  3.5853 -0.2871 -1.9494
 1787SOL    HW2 6175   7.017   0.869   1.310  0.7646 -0.4017 -0.2027
 1788SOL     OW 6176   3.549   1.732   6.277  0.3714 -0.2569  0.2111
 1788SOL    HW1 6177   3.529   1.670   6.207  0.0797  1.0746 -0.9124
 1788SOL    HW2 6178   3.499   1.700   6.353 -1.4943 -0.1811 -0.9560
 1789SOL     OW 6179   7.481   4.939   0.796 -0.3048  0.0971  0.2942
 1789SOL    HW1 6180   7.527   4.918   0.877 -0.8513 -1.4096  0.2281
 1789SOL    HW2 6181   7.396   4.971   0.825 -0.8819 -1.4093  0.3054
 1790SOL     OW 6182   4.700   5.236   6.076 -0.4777 -0.4039  0.0559
 1790SOL    HW1 6183   4.712   5.145   6.103 -1.3746 -0.0612  1.6367
 1790SOL    HW2 6184   4.739   5.288   6.147  0.3456  0.4604 -0.9922
 1791SOL     OW 6185   7.705   0.732   3.094  0.1161  0.1105 -0.3201
 1791SOL    HW1 6186   7.663   0.818   3.084 -1.4231 -0.9670 -3.5761
 1791SOL    HW2 6187   7.794   0.753   3.123 -0.4524  2.7896 -0.3788
 1792SOL     OW 6188   6.513   7.381   4.315 -0.4504 -0.2050 -0.4582
 1792SOL    HW1 6189   6.553   7.356   4.232 -0.7430 -1.5439 -0.2049
 1792SOL    HW2 6190   6.559   7.330   4.381  0.4884  1.6374  0.3370
 1793SOL     OW 6191   5.001   3.390   4.597  0.1230 -0.6626 -1.0046
 1793SOL    HW1 6192   4.951   3.468   4.574  0.5588 -0.0761  0.0349
 1793SOL    HW2 6193   5.091   3.421   4.608  0.4233 -1.4287 -1.2383
 1794SOL     OW 6194   2.243   5.411   0.949  0.0682  0.1290  0.3981
 1794SOL    HW1 6195   2.331   5.445   0.933 -0.1182  0.7644  0.7145
 1794SOL    HW2 6196   2.185   5.471   0.901 -0.3181  0.7406  1.6072
 1795SOL     OW 6197   0.063   2.645   6.812 -0.5460  0.2987 -0.5040
 1795SOL    HW1 6198   0.045   2.625   6.720  0.2217  0.5353 -0.7082
 1795SOL    HW2 6199   0.112   2.727   6.810  0.1824 -0.1138  0.0597
 1796SOL     OW 6200   0.520   6.755   7.302 -0.6199 -0.5917  0.0147
 1796SOL    HW1 6201   0.567   6.715   7.375 -1.8093 -1.7904  0.1454
 1796SOL    HW2 6202   0.589   6.780   7.240  0.4214  0.8573  1.7244
 1797SOL     OW 6203   2.492   2.781   0.064  0.2578 -0.3250  0.4630
 1797SOL    HW1 6204   2.561   2.780  -0.002 -0.0059 -3.3485  0.1772
 1797SOL    HW2 6205   2.533   2.742   0.141 -0.9136 -1.5218  0.4949
 1798SOL     OW 6206   1.647   5.823   4.090  0.2641  0.1842  0.0803
 1798SOL    HW1 6207   1.574   5.884   4.091  0.0008 -0.1402  0.9186
 1798SOL    HW2 6208   1.706   5.856   4.158 -0.2256 -0.9039  1.0468
 1799SOL     OW 6209   5.699   2.492   3.803  0.2781 -0.0603 -0.3579
 1799SOL    HW1 6210   5.682   2.405   3.839  0.4328 -0.4588 -1.2343
 1799SOL    HW2 6211   5.787   2.513   3.834 -0.0116  0.0517  0.3818
 1800SOL     OW 6212   5.332   7.268   1.221  0.2971  0.0367  0.0114
 1800SOL    HW1 6213   5.269   7.300   1.157  1.3527 -1.4620 -1.8358
 1800SOL    HW2 6214   5.411   7.319   1.205  0.8533 -0.9784 -0.5301
 1801SOL     OW 6215   5.846   3.275   0.733  0.4591 -0.0754  0.2457
 1801SOL    HW1 6216   5.847   3.209   0.802  0.9360  1.2506  1.5383
 1801SOL    HW2 6217   5.933   3.269   0.693  0.1184 -0.9701 -0.3839
 1802SOL     OW 6218   4.994   7.417   0.854 -0.2196  0.5151 -0.0879
 1802SOL    HW1 6219   4.901   7.396   0.864 -0.2106  0.7037  0.4170
 1802SOL    HW2 6220   4.998   7.512   0.855 -0.4349  0.6585 -3.9875
 1803SOL     OW 6221   3.104   4.678   0.244  0.4187  0.1868  0.0840
 1803SOL    HW1 6222   3.199   4.683   0.239  0.4589 -0.3529  0.2404
 1803SOL    HW2 6223   3.086   4.629   0.324  0.0202 -0.0077 -0.1222
 1804SOL     OW 6224   1.140   5.390   7.013  0.2737 -0.0743 -0.0815
 1804SOL    HW1 6225   1.126   5.350   6.927  0.9936  0.2724 -0.3602
 1804SOL    HW2 6226   1.235   5.397   7.021  0.1300  2.9566 -0.6606
 1805SOL     OW 6227   7.839   2.928   2.747 -0.0847 -0.1300 -0.6688
 1805SOL    HW1 6228   7.897   2.858   2.718 -0.7662 -1.1793  0.4509
 1805SOL    HW2 6229   7.825   2.912   2.840  0.3641  1.9589 -0.2124
 1806SOL     OW 6230   2.614   3.891   1.277  0.0180  0.4870  0.4254
 1806SOL    HW1 6231   2.696   3.842   1.279  0.1309  0.6969  1.9378
 1806SOL    HW2 6232   2.639   3.981   1.255  0.1006  0.3895  0.1238
 1807SOL     OW 6233   2.122   3.626   4.290 -0.3715  0.0494  0.5823
 1807SOL    HW1 6234   2.192   3.691   4.293 -0.5325  0.1834  2.0235
 1807SOL    HW2 6235   2.155   3.556   4.234  0.8563  0.1728  1.1524
 1808SOL     OW 6236   0.240   0.076   0.843  0.0887  0.3651 -0.1548
 1808SOL    HW1 6237   0.187   0.046   0.916  1.0269  1.1623  0.8636
 1808SOL    HW2 6238   0.208   0.026   0.768 -1.0332 -0.2859  0.7514
 1809SOL     OW 6239   2.259   1.335   2.924 -0.8794  0.0557  0.4177
 1809SOL    HW1 6240   2.195   1.299   2.863 -1.9294  0.0126  1.5056
 1809SOL    HW2 6241   2.267   1.427   2.899 -0.1292 -0.3127 -0.7447
 1810SOL     OW 6242   1.241   5.726   4.003 -0.4837  0.0638 -0.6948
 1810SOL    HW1 6243   1.159   5.765   4.032  0.7905  2.4761 -0.2190
 1810SOL    HW2 6244   1.279   5.791   3.943  1.7679 -0.3307  0.2527
 1811SOL     OW 6245   0.697   7.515   3.410 -0.1100 -0.2228  0.1779
 1811SOL    HW1 6246   0.669   7.468   3.331 -0.4647 -1.2816  0.9214
 1811SOL    HW2 6247   0.758   7.581   3.378 -1.7536  0.6460 -1.2027
 1812SOL     OW 6248   7.139   4.667   4.056  0.4662 -0.7054 -0.4096
 1812SOL    HW1 6249   7.114   4.691   3.967 -0.1322 -1.5793 -0.4830
 1812SOL    HW2 6250   7.213   4.724   4.076  0.5803 -0.4745 -1.4524
 1813SOL     OW 6251   2.197   6.938   2.542 -0.0957 -0.0454 -0.6502
 1813SOL    HW1 6252   2.169   6.881   2.614  2.9955 -2.1076 -0.9393
 1813SOL    HW2 6253   2.122   6.995   2.525 -0.6602  1.0610  4.6873
 1814SOL     OW 6254   1.772   6.607   2.261  0.3159 -0.1694 -0.4241
 1814SOL    HW1 6255   1.864   6.614   2.235 -0.3905  3.4753 -2.2893
 1814SOL    HW2 6256   1.726   6.580   2.181 -0.4620 -0.0489 -0.0257
 1815SOL     OW 6257   5.501   6.126   4.824 -0.5420  0.3057 -0.0403
 1815SOL    HW1 6258   5.566   6.182   4.867 -0.2521 -1.2013  1.6024
 1815SOL    HW2 6259   5.548   6.088   4.750 -0.3644  1.2911 -0.4318
 1816SOL     OW 6260   2.289   7.215   4.056 -0.0271 -0.3925 -0.1599
 1816SOL    HW1 6261   2.334   7.294   4.086  0.4021 -0.2955 -1.0476
 1816SOL    HW2 6262   2.196   7.238   4.058  0.0204 -0.2568  0.6998
 1817SOL     OW 6263   6.084   5.225   3.092  0.1616 -0.1727 -0.2308
 1817SOL    HW1 6264   6.020   5.229   3.022 -0.4692 -4.2036 -0.0133
 1817SOL    HW2 6265   6.032   5.228   3.172  0.6146  0.7710  0.0439
 1818SOL     OW 6266   4.106   7.459   5.316  0.5664 -0.2876 -0.3961
 1818SOL    HW1 6267   4.074   7.543   5.350  2.4080 -0.2274  1.2831
 1818SOL    HW2 6268   4.088   7.396   5.386  1.2833 -0.8418 -0.6978
 1819SOL     OW 6269   3.151   4.482   4.946  0.0600 -0.4807  0.1614
 1819SOL    HW1 6270   3.231   4.474   4.894  0.9704 -0.1241  1.5082
 1819SOL    HW2 6271   3.110   4.396   4.939 -0.9769  0.1994 -2.9755
 1820SOL     OW 6272   6.852   4.003   6.094 -0.0708  0.1586  0.2344
 1820SOL    HW1 6273   6.794   3.951   6.150  1.8998 -0.6088  1.5985
 1820SOL    HW2 6274   6.874   3.945   6.021 -1.1217  0.5132 -0.3838
 1821SOL     OW 6275   7.537   0.243   5.813 -0.4720  0.1899 -0.9873
 1821SOL    HW1 6276   7.486   0.323   5.800  2.1854  2.0786 -0.2708
 1821SOL    HW2 6277   7.579   0.227   5.729  0.0434  0.3031 -0.7524
 1822SOL     OW 6278   6.099   5.089   7.321 -0.1418  0.1358  0.0044
 1822SOL    HW1 6279   6.012   5.053   7.335  0.5696 -1.1348  1.2243
 1822SOL    HW2 6280   6.120   5.068   7.230 -0.6511 -0.5197  0.0393
 1823SOL     OW 6281   6.931   7.651   0.570  0.0285  0.5780 -0.5127
 1823SOL    HW1 6282   6.952   7.740   0.598 -0.7407  1.1218 -1.5972
 1823SOL    HW2 6283   6.867   7.620   0.634  1.4728  0.2117  0.7730
 1824SOL     OW 6284   6.080   4.827   2.890 -0.8692 -0.3858  0.3206
 1824SOL    HW1 6285   6.130   4.810   2.970 -1.1437 -0.5777  0.4532
 1824SOL    HW2 6286   6.008   4.885   2.918 -0.1537  0.7047 -0.0557
 1825SOL     OW 6287   4.822   4.999   0.962  0.8673 -0.0912 -0.2948
 1825SOL    HW1 6288   4.858   4.911   0.968 -0.4495 -0.7018 -1.0013
 1825SOL    HW2 6289   4.845   5.029   0.875 -0.0489 -0.3701 -0.6413
 1826SOL     OW 6290   5.833   6.407   4.632 -0.0928  0.2846 -0.7386
 1826SOL    HW1 6291   5.916   6.427   4.675 -1.4492  0.6905  1.7681
 1826SOL    HW2 6292   5.785   6.490   4.633 -1.1660 -0.3220 -0.7037
 1827SOL     OW 6293   0.846   5.287   2.451  0.1377 -0.1833 -0.7100
 1827SOL    HW1 6294   0.910   5.301   2.521 -0.8376 -0.7473  0.2963
 1827SOL    HW2 6295   0.876   5.345   2.381  1.0613  0.4739  0.1990
 1828SOL     OW 6296   7.519   0.345   6.683  0.0375 -0.1531  0.1620
 1828SOL    HW1 6297   7.551   0.266   6.639 -0.6649  1.6583 -3.8362
 1828SOL    HW2 6298   7.597   0.398   6.698  0.0901 -0.0725 -0.3970
 1829SOL     OW 6299   6.192   7.895   7.619  0.0348  0.4239  0.4189
 1829SOL    HW1 6300   6.114   7.921   7.668 -0.2333 -0.0494  0.2560
 1829SOL    HW2 6301   6.158   7.836   7.551  0.8203 -1.7026  1.8380
 1830SOL     OW 6302   2.321   4.074   4.395  0.2118  0.0717 -0.4641
 1830SOL    HW1 6303   2.283   4.161   4.401 -2.6379 -1.2507  1.5769
 1830SOL    HW2 6304   2.272   4.021   4.458  3.8359 -2.3352  0.5563
 1831SOL     OW 6305   6.431   3.777   5.189  0.4916  0.1547 -0.1743
 1831SOL    HW1 6306   6.426   3.712   5.119 -1.0478  1.0312 -0.9213
 1831SOL    HW2 6307   6.341   3.809   5.197  1.0952  1.6871  0.6498
 1832SOL     OW 6308   2.426   3.283   5.775 -0.2917 -0.1343  0.3419
 1832SOL    HW1 6309   2.370   3.309   5.848 -0.5013 -1.1738  0.5596
 1832SOL    HW2 6310   2.420   3.188   5.774  0.9822 -0.2115 -0.0288
 1833SOL     OW 6311   1.552   5.332   1.191  0.5231 -0.0750  0.0190
 1833SOL    HW1 6312   1.636   5.328   1.237  0.4661 -0.9857  0.0416
 1833SOL    HW2 6313   1.561   5.409   1.134  0.3579  1.4257  1.9646
 1834SOL     OW 6314   6.993   7.846   7.112 -1.0876 -0.2284  0.2326
 1834SOL    HW1 6315   6.936   7.876   7.182 -2.1209 -0.9354 -0.2921
 1834SOL    HW2 6316   6.960   7.888   7.033  0.3893  0.9680  0.2333
 1835SOL     OW 6317   2.577   1.444   1.522  0.2172 -0.4146 -0.5072
 1835SOL    HW1 6318   2.650   1.460   1.582 -0.3042  0.1753 -0.0354
 1835SOL    HW2 6319   2.618   1.399   1.448  1.1402  0.2389 -0.4138
 1836SOL     OW 6320   7.837   1.160   1.106 -0.0530  0.1802  0.2103
 1836SOL    HW1 6321   7.925   1.183   1.078 -0.5806  0.8520 -0.9296
 1836SOL    HW2 6322   7.836   1.175   1.201  0.8125  0.9355  0.0955
 1837SOL     OW 6323   4.134   6.886   7.403  0.3431  0.1573 -0.1646
 1837SOL    HW1 6324   4.198   6.939   7.357  0.3796 -0.0475 -0.3531
 1837SOL    HW2 6325   4.187   6.824   7.454  0.3054  0.5194  0.3140
 1838SOL     OW 6326   5.215   0.890   0.086 -0.0334  0.3149  0.3714
 1838SOL    HW1 6327   5.207   0.807   0.039 -1.7196  0.3804  0.5033
 1838SOL    HW2 6328   5.229   0.956   0.018 -0.6620  0.1776  0.1133
 1839SOL     OW 6329   4.503   3.605   2.927 -0.3112  0.0899  0.3266
 1839SOL    HW1 6330   4.485   3.699   2.935 -0.2596  0.1436 -0.2049
 1839SOL    HW2 6331   4.512   3.575   3.018  2.1678  1.0632  0.4226
 1840SOL     OW 6332   0.299   3.265   7.182 -0.2874 -0.3245  0.9119
 1840SOL    HW1 6333   0.225   3.204   7.183 -0.7112  0.1005 -1.1192
 1840SOL    HW2 6334   0.368   3.219   7.135 -0.6958  0.8122 -0.8602
 1841SOL     OW 6335   2.337   0.287   4.816  0.0767 -0.9103 -0.0397
 1841SOL    HW1 6336   2.300   0.210   4.859 -1.0640 -1.0469 -1.2606
 1841SOL    HW2 6337   2.310   0.360   4.871 -0.1911 -1.2187  0.2419
 1842SOL     OW 6338   0.841   0.360   6.795 -0.4268  0.1757  0.3594
 1842SOL    HW1 6339   0.795   0.367   6.879 -0.2426 -1.4746  0.6154
 1842SOL    HW2 6340   0.919   0.414   6.806 -0.1154 -0.4778  1.4466
 1843SOL     OW 6341   1.747   0.311   5.097 -0.2482  0.1765 -0.2630
 1843SOL    HW1 6342   1.832   0.318   5.053  0.5119  1.5892  1.3266
 1843SOL    HW2 6343   1.688   0.364   5.044  0.0411 -0.2086 -0.9728
 1844SOL     OW 6344   2.431   0.019   5.399  0.0887  0.3329  0.2378
 1844SOL    HW1 6345   2.413  -0.070   5.430  0.5060 -0.6073 -2.1277
 1844SOL    HW2 6346   2.347   0.063   5.404 -0.9363 -1.2952 -2.0479
 1845SOL     OW 6347   0.222   3.376   4.191 -0.1270 -0.1730 -0.2862
 1845SOL    HW1 6348   0.198   3.356   4.100 -1.9541  0.0507  0.1263
 1845SOL    HW2 6349   0.237   3.470   4.192 -0.0571 -0.1833 -0.3638
 1846SOL     OW 6350   3.437   7.017   0.790 -0.4945  0.0371  0.1356
 1846SOL    HW1 6351   3.370   6.982   0.731  1.9363  0.1969 -2.8512
 1846SOL    HW2 6352   3.451   7.107   0.759  2.8210 -0.7823 -0.9602
 1847SOL     OW 6353   6.831   3.030   7.785 -0.8136  0.6867 -0.0683
 1847SOL    HW1 6354   6.870   2.974   7.852 -1.3377 -1.7920 -1.7698
 1847SOL    HW2 6355   6.737   3.014   7.792 -0.7641 -1.0102 -2.5411
 1848SOL     OW 6356   1.932   5.768   2.652 -0.3594  0.3747  0.0377
 1848SOL    HW1 6357   1.872   5.841   2.642 -0.7886  0.3624  2.2706
 1848SOL    HW2 6358   2.008   5.805   2.698 -0.0761 -0.3058  0.1320
 1849SOL     OW 6359   1.210   5.410   5.674 -0.1323 -0.0307  0.6360
 1849SOL    HW1 6360   1.175   5.498   5.667 -0.9316 -0.4198 -0.5043
 1849SOL    HW2 6361   1.212   5.378   5.583 -1.1369 -1.6713  1.1695
 1850SOL     OW 6362   3.537   1.488   6.684 -0.6071 -0.6779 -0.1352
 1850SOL    HW1 6363   3.486   1.485   6.765 -0.0208 -0.3575  0.2555
 1850SOL    HW2 6364   3.478   1.456   6.616 -0.7330 -2.0934  0.6207
 1851SOL     OW 6365   6.688   0.587   5.213 -0.2678  0.3747 -0.1661
 1851SOL    HW1 6366   6.600   0.559   5.189 -0.1836 -0.7106  0.7272
 1851SOL    HW2 6367   6.681   0.681   5.228 -1.5586  0.0814  1.1494
 1852SOL     OW 6368   0.170   3.101   5.122 -0.0755  0.1881 -0.1298
 1852SOL    HW1 6369   0.175   3.148   5.039 -0.4488 -1.1106 -0.9021
 1852SOL    HW2 6370   0.081   3.117   5.153 -0.4515 -0.6629 -0.7780
 1853SOL     OW 6371   7.411   6.058   0.616  0.7599  0.2110 -0.3549
 1853SOL    HW1 6372   7.409   5.964   0.629  2.9936 -0.0363 -1.4902
 1853SOL    HW2 6373   7.376   6.095   0.697  2.0493 -1.5476  1.0341
 1854SOL     OW 6374   4.967   1.317   3.741 -0.1264 -0.1003  0.4362
 1854SOL    HW1 6375   4.913   1.325   3.662  1.3269 -0.8165 -0.6466
 1854SOL    HW2 6376   4.931   1.240   3.786 -0.4985 -0.1209  0.1111
 1855SOL     OW 6377   2.537   1.926   3.228  0.0470 -0.1830  0.2341
 1855SOL    HW1 6378   2.581   1.888   3.304  0.8826 -0.3123 -0.3096
 1855SOL    HW2 6379   2.608   1.960   3.174 -0.5616  0.1189 -0.3790
 1856SOL     OW 6380   7.721   6.746   6.989  0.1942  0.0324 -0.0855
 1856SOL    HW1 6381   7.687   6.685   6.923  1.4365  0.1897 -0.8948
 1856SOL    HW2 6382   7.815   6.748   6.972  0.9120 -1.8197  3.3031
 1857SOL     OW 6383   6.570   7.305   4.760  0.0290  0.6858  0.0142
 1857SOL    HW1 6384   6.482   7.269   4.771  0.9999 -1.9234 -0.3883
 1857SOL    HW2 6385   6.607   7.307   4.849  0.4196 -0.5522 -0.1117
 1858SOL     OW 6386   4.799   3.213   7.651 -0.7655 -0.4251  0.0328
 1858SOL    HW1 6387   4.716   3.261   7.648  0.0799  1.0944  0.7085
 1858SOL    HW2 6388   4.863   3.274   7.615  0.4252 -0.8259  1.4397
 1859SOL     OW 6389   3.358   6.870   5.052  0.2022  0.1557 -0.3638
 1859SOL    HW1 6390   3.310   6.818   5.116 -0.6560  0.8678 -0.4119
 1859SOL    HW2 6391   3.397   6.941   5.103  0.4070  0.1235 -0.4728
 1860SOL     OW 6392   0.410   7.006   4.222  0.1403 -0.8463 -0.0466
 1860SOL    HW1 6393   0.343   6.951   4.181  1.4516 -1.3750 -1.5187
 1860SOL    HW2 6394   0.447   7.056   4.150 -0.3249  1.2438  1.1332
 1861SOL     OW 6395   1.277   3.234   3.132 -0.0332 -0.4697  0.0422
 1861SOL    HW1 6396   1.324   3.306   3.175  0.0720  0.1904 -1.1458
 1861SOL    HW2 6397   1.345   3.168   3.116  0.4447  0.3292 -1.3372
 1862SOL     OW 6398   3.752   4.507   4.093  0.1637 -0.3529 -0.1333
 1862SOL    HW1 6399   3.840   4.530   4.123  0.9269 -1.7513 -1.2486
 1862SOL    HW2 6400   3.711   4.591   4.074  1.1181  0.3348  0.7851
 1863SOL     OW 6401   0.511   4.077   5.359 -0.2295  0.0972  0.2626
 1863SOL    HW1 6402   0.422   4.109   5.372  0.4466  0.7559  3.5512
 1863SOL    HW2 6403   0.509   3.986   5.389  0.6091  0.6716  2.1317
 1864SOL     OW 6404   2.209   5.212   0.239  0.5980  0.3549 -0.5018
 1864SOL    HW1 6405   2.161   5.241   0.316  0.4468  0.3636 -0.5990
 1864SOL    HW2 6406   2.177   5.123   0.222 -1.0460  1.1986 -1.9134
 1865SOL     OW 6407   1.607   7.854   3.434  0.3903 -0.2520 -0.1511
 1865SOL    HW1 6408   1.656   7.830   3.513 -0.3449 -0.6994  0.1711
 1865SOL    HW2 6409   1.523   7.885   3.467  0.6392  1.0153 -0.6732
 1866SOL     OW 6410   7.020   2.613   4.485 -0.3208  0.1289  0.8004
 1866SOL    HW1 6411   6.995   2.528   4.522 -1.7999 -0.3121 -1.1004
 1866SOL    HW2 6412   6.954   2.674   4.518  0.1184  0.3314  1.3060
 1867SOL     OW 6413   7.311   3.971   7.570  0.6748 -0.3212 -0.0280
 1867SOL    HW1 6414   7.240   3.920   7.531  1.6887 -1.9278  0.1564
 1867SOL    HW2 6415   7.335   4.034   7.502 -0.2333 -0.4477 -0.4743
 1868SOL     OW 6416   2.319   6.952   2.291 -0.1964 -0.3899 -0.0726
 1868SOL    HW1 6417   2.265   6.919   2.364  0.2122 -1.2235 -0.1447
 1868SOL    HW2 6418   2.407   6.960   2.328  0.5204 -3.0592 -1.0877
 1869SOL     OW 6419   4.358   6.715   7.452 -0.1745 -0.1946  0.5648
 1869SOL    HW1 6420   4.313   6.633   7.435  0.8669 -0.3782 -1.4389
 1869SOL    HW2 6421   4.444   6.705   7.410 -0.2672  2.1182 -0.2542
 1870SOL     OW 6422   2.068   6.620   6.095 -0.0079 -0.1644 -0.2767
 1870SOL    HW1 6423   2.011   6.692   6.070  0.1334  0.2542  0.6139
 1870SOL    HW2 6424   2.106   6.646   6.179  2.2400  0.0035 -1.3031
 1871SOL     OW 6425   5.265   2.603   5.300  0.0828  0.4002  0.5127
 1871SOL    HW1 6426   5.315   2.541   5.353  1.8641  2.1356  0.8957
 1871SOL    HW2 6427   5.253   2.679   5.357  0.9919  1.8127 -1.1278
 1872SOL     OW 6428   2.689   4.104   4.060  0.3568  0.0948  0.1861
 1872SOL    HW1 6429   2.660   4.085   3.971 -0.8919 -0.9883  0.8162
 1872SOL    HW2 6430   2.614   4.084   4.116  1.4877 -0.3745  1.5997
 1873SOL     OW 6431   1.399   0.779   6.300 -1.2048  0.0933 -0.1038
 1873SOL    HW1 6432   1.476   0.821   6.337 -0.3669 -0.6981 -0.9265
 1873SOL    HW2 6433   1.376   0.832   6.224 -0.5522 -0.5382 -0.7474
 1874SOL     OW 6434   3.920   4.551   0.152  0.0182  0.5983  0.2746
 1874SOL    HW1 6435   3.980   4.592   0.089  1.1615 -0.5698  0.5853
 1874SOL    HW2 6436   3.971   4.547   0.233 -0.5497 -0.2380  0.5941
 1875SOL     OW 6437   2.135   2.385   1.505 -0.4512  0.0695 -0.4380
 1875SOL    HW1 6438   2.096   2.472   1.509 -0.8867 -0.1054 -0.8969
 1875SOL    HW2 6439   2.165   2.375   1.415 -1.0199 -0.5206 -0.5692
 1876SOL     OW 6440   3.833   4.574   2.221  0.4789  0.2517 -0.7864
 1876SOL    HW1 6441   3.822   4.669   2.223  0.2181  0.2233 -0.9045
 1876SOL    HW2 6442   3.891   4.558   2.147  1.3409  0.4007 -0.1558
 1877SOL     OW 6443   1.517   2.041   7.619  0.0997  0.6787 -0.3586
 1877SOL    HW1 6444   1.426   2.064   7.601 -0.0974  1.2025  1.2385
 1877SOL    HW2 6445   1.514   1.949   7.643 -0.0403  0.7620 -0.0580
 1878SOL     OW 6446   5.234   2.128   7.546 -0.0781  0.0230  0.0294
 1878SOL    HW1 6447   5.189   2.086   7.619  2.6636 -0.6958  1.3853
 1878SOL    HW2 6448   5.239   2.220   7.570 -1.0807  0.1599 -0.2750
 1879SOL     OW 6449   0.642   0.994   4.243 -0.4716  0.3281 -0.0656
 1879SOL    HW1 6450   0.634   1.055   4.317  0.0434  2.4120 -1.6688
 1879SOL    HW2 6451   0.717   1.026   4.193 -2.6253  0.8588 -3.1423
 1880SOL     OW 6452   3.926   2.440   1.594 -0.8619  0.2387 -0.0439
 1880SOL    HW1 6453   3.855   2.430   1.658  0.9895 -2.4584  1.6856
 1880SOL    HW2 6454   3.925   2.358   1.545  2.0220 -0.5041  1.0503
 1881SOL     OW 6455   7.062   5.160   4.788  0.1037 -0.0644 -0.1626
 1881SOL    HW1 6456   7.084   5.084   4.841  0.6270  0.7431  0.7958
 1881SOL    HW2 6457   6.988   5.200   4.833 -0.3140 -0.1187 -0.7850
 1882SOL     OW 6458   4.435   5.468   5.578  0.1461  0.2210 -0.1593
 1882SOL    HW1 6459   4.487   5.522   5.638 -1.1337  0.4218  0.8073
 1882SOL    HW2 6460   4.488   5.389   5.564  0.8464  0.5538  0.5647
 1883SOL     OW 6461   4.240   6.315   4.507  0.0794  0.2298 -0.3533
 1883SOL    HW1 6462   4.327   6.319   4.547 -0.3038 -1.7028  0.7523
 1883SOL    HW2 6463   4.195   6.392   4.542  1.1247  0.9085 -0.4480
 1884SOL     OW 6464   5.290   0.039   5.107 -0.4055 -0.3239 -0.0222
 1884SOL    HW1 6465   5.250   0.109   5.055 -0.4826 -0.5408 -0.2605
 1884SOL    HW2 6466   5.280  -0.039   5.052  0.3566 -0.3782 -0.0938
 1885SOL     OW 6467   7.166   7.200   6.996 -0.2205 -0.7043  0.5151
 1885SOL    HW1 6468   7.231   7.235   6.935 -2.1522 -1.2335 -1.9353
 1885SOL    HW2 6469   7.198   7.112   7.018  0.2353 -0.6960 -0.1236
 1886SOL     OW 6470   6.323   2.749   2.496  0.5885 -0.4215  0.4114
 1886SOL    HW1 6471   6.263   2.810   2.538 -0.3637 -1.7011  0.9459
 1886SOL    HW2 6472   6.288   2.737   2.407  1.8443  1.2464 -0.3381
 1887SOL     OW 6473   3.573   0.568   0.103  0.0297 -0.2087  0.4954
 1887SOL    HW1 6474   3.505   0.632   0.082  0.1841  0.5031  2.0488
 1887SOL    HW2 6475   3.646   0.591   0.045 -0.5566 -0.1297 -0.2251
 1888SOL     OW 6476   6.238   4.446   5.616  0.5148 -0.1727  0.4451
 1888SOL    HW1 6477   6.318   4.498   5.609 -0.2695  1.0601  0.5391
 1888SOL    HW2 6478   6.169   4.502   5.581 -0.3937 -1.0356  0.8249
 1889SOL     OW 6479   7.489   0.218   3.344 -0.2321 -0.0721  0.0363
 1889SOL    HW1 6480   7.477   0.193   3.435 -0.7076 -1.0468 -0.2791
 1889SOL    HW2 6481   7.512   0.311   3.346 -1.1310  0.1300  1.0795
 1890SOL     OW 6482   3.327   2.593   3.996 -0.3765 -0.6614 -0.4070
 1890SOL    HW1 6483   3.273   2.514   3.997 -0.8529 -0.3402  0.7346
 1890SOL    HW2 6484   3.359   2.600   3.906 -1.0774 -1.6430 -0.7390
 1891SOL     OW 6485   1.767   0.290   2.284 -0.2591  0.1041 -0.2592
 1891SOL    HW1 6486   1.774   0.206   2.329  1.5423  0.5964  0.4121
 1891SOL    HW2 6487   1.695   0.335   2.328  0.4539 -0.0507  1.0935
 1892SOL     OW 6488   6.540   2.287   5.250 -0.2906 -0.1163 -0.3689
 1892SOL    HW1 6489   6.522   2.349   5.321  0.1187  0.8932 -1.1325
 1892SOL    HW2 6490   6.455   2.251   5.227 -0.6639  0.8763 -0.5677
 1893SOL     OW 6491   5.576   4.717   6.779  0.1082 -0.1567 -0.8883
 1893SOL    HW1 6492   5.633   4.781   6.737  0.0711 -0.2253 -1.0451
 1893SOL    HW2 6493   5.525   4.680   6.707  0.0418 -0.2730 -0.7808
 1894SOL     OW 6494   6.087   1.486   3.465  0.2103 -0.5241 -0.0766
 1894SOL    HW1 6495   6.142   1.543   3.519  0.1088 -2.1680  1.8028
 1894SOL    HW2 6496   6.128   1.489   3.378  0.9217  1.4243  0.3063
 1895SOL     OW 6497   3.001   0.172   7.708  0.0201 -0.0505 -0.3059
 1895SOL    HW1 6498   3.060   0.168   7.783 -0.2470  2.0430  0.0621
 1895SOL    HW2 6499   3.056   0.204   7.636 -0.1497 -0.2496 -0.5257
 1896SOL     OW 6500   6.895   7.250   6.945  0.2453  0.0692 -0.1771
 1896SOL    HW1 6501   6.895   7.216   6.856  0.3725 -0.3616 -0.0133
 1896SOL    HW2 6502   6.988   7.251   6.970  0.0901 -1.3128  0.5180
 1897SOL     OW 6503   1.724   6.322   1.415 -0.3070  0.1193 -0.4714
 1897SOL    HW1 6504   1.729   6.379   1.491 -1.3443 -1.2929  0.6985
 1897SOL    HW2 6505   1.764   6.372   1.344 -0.5312  1.9849  0.6868
 1898SOL     OW 6506   6.174   7.397   5.114  0.6526 -0.2179 -0.3043
 1898SOL    HW1 6507   6.171   7.431   5.025 -0.4893 -0.4724 -0.3626
 1898SOL    HW2 6508   6.139   7.468   5.168 -0.2285 -0.6821 -0.2508
 1899SOL     OW 6509   0.041   2.461   6.200 -0.3107 -0.2462 -0.2084
 1899SOL    HW1 6510   0.006   2.408   6.128 -0.1386  1.7085 -1.7810
 1899SOL    HW2 6511  -0.009   2.433   6.277  0.0229 -2.9110 -0.8875
 1900SOL     OW 6512   1.487   3.903   2.437 -0.4310  0.1998  0.0100
 1900SOL    HW1 6513   1.458   3.890   2.527  0.0236 -0.4411  0.0711
 1900SOL    HW2 6514   1.437   3.840   2.386  1.0997 -1.1805  0.1700
 1901SOL     OW 6515   2.739   0.404   5.003  0.1027 -0.1967  0.5186
 1901SOL    HW1 6516   2.697   0.392   5.089 -0.7726 -1.0812 -0.0239
 1901SOL    HW2 6517   2.671   0.446   4.950  0.1162 -1.0577 -0.1850
 1902SOL     OW 6518   4.565   6.240   5.641 -0.3516  0.3199 -0.2186
 1902SOL    HW1 6519   4.588   6.191   5.720  0.8129  1.4372  0.1763
 1902SOL    HW2 6520   4.477   6.211   5.618  0.4605 -2.2193 -0.2414
 1903SOL     OW 6521   5.823   4.966   2.209 -0.5758 -0.1729  0.1923
 1903SOL    HW1 6522   5.831   4.904   2.282  0.3034  0.5367  0.7151
 1903SOL    HW2 6523   5.889   4.938   2.146  0.3561  0.6753  0.7729
 1904SOL     OW 6524   2.817   0.800   5.095 -0.1153  0.4622  1.0014
 1904SOL    HW1 6525   2.777   0.758   5.019  2.2120 -0.0698  0.0180
 1904SOL    HW2 6526   2.804   0.894   5.081 -0.6117  0.3155  0.4751
 1905SOL     OW 6527   2.944   4.561   1.100  0.2165  0.0001  0.5666
 1905SOL    HW1 6528   2.969   4.498   1.032  0.9716 -1.8039  2.4489
 1905SOL    HW2 6529   2.850   4.546   1.112  0.4849 -1.1445  1.3455
 1906SOL     OW 6530   7.765   3.351   6.606 -0.0120  0.1015 -0.2124
 1906SOL    HW1 6531   7.859   3.338   6.617  0.1845  1.0725 -0.6287
 1906SOL    HW2 6532   7.732   3.267   6.576  1.0193  0.2478 -1.8325
 1907SOL     OW 6533   3.730   3.203   0.482 -0.3182 -0.2046 -0.0613
 1907SOL    HW1 6534   3.647   3.236   0.449 -0.5952 -2.0717 -1.3634
 1907SOL    HW2 6535   3.706   3.128   0.537  0.4679 -0.5703 -0.2017
 1908SOL     OW 6536   0.551   1.863   6.331  0.2383  0.1984  0.3273
 1908SOL    HW1 6537   0.641   1.855   6.302  0.4658  2.5091  0.3167
 1908SOL    HW2 6538   0.557   1.901   6.419 -0.7502  1.2689 -0.0534
 1909SOL     OW 6539   1.352   3.848   6.623  0.3061 -0.3754 -0.6094
 1909SOL    HW1 6540   1.265   3.808   6.617  0.4323 -0.7159 -0.1807
 1909SOL    HW2 6541   1.408   3.779   6.657 -0.0489  0.9313  2.8322
 1910SOL     OW 6542   7.714   0.113   0.553 -0.4100  0.3238  0.0325
 1910SOL    HW1 6543   7.706   0.020   0.530  2.3685  0.7376 -2.9874
 1910SOL    HW2 6544   7.778   0.113   0.625  1.3600  0.0160 -1.4942
 1911SOL     OW 6545   0.576   0.902   2.689 -0.2707 -0.1947  0.1289
 1911SOL    HW1 6546   0.663   0.887   2.653 -0.1432 -0.3021  0.4814
 1911SOL    HW2 6547   0.573   0.997   2.705 -0.9311  0.1171 -1.7133
 1912SOL     OW 6548   3.063   7.872   5.562  0.6012  0.2245  0.1579
 1912SOL    HW1 6549   3.061   7.837   5.651 -2.4423 -1.1771 -0.3828
 1912SOL    HW2 6550   3.079   7.796   5.506 -1.5607  0.3883 -0.7310
 1913SOL     OW 6551   5.563   3.573   6.993 -0.1164 -0.6944 -0.5786
 1913SOL    HW1 6552   5.470   3.557   7.010 -0.2309 -1.1000 -1.5800
 1913SOL    HW2 6553   5.604   3.561   7.079 -0.8716 -1.4141 -0.3009
 1914SOL     OW 6554   5.573   0.991   3.277  0.0113  0.6279 -0.0278
 1914SOL    HW1 6555   5.597   1.054   3.345 -2.1216  0.4383  0.9677
 1914SOL    HW2 6556   5.592   1.034   3.195 -0.0834  2.0097  0.6668
 1915SOL     OW 6557   7.203   3.730   6.408 -0.2229  0.3069 -0.4818
 1915SOL    HW1 6558   7.197   3.816   6.450 -2.3747  0.1530 -0.4255
 1915SOL    HW2 6559   7.161   3.742   6.323  1.6749 -0.0911 -1.4996
 1916SOL     OW 6560   4.931   3.280   4.207  0.0993 -0.1546 -0.0775
 1916SOL    HW1 6561   4.960   3.238   4.125 -1.5380 -1.5470  0.0469
 1916SOL    HW2 6562   5.006   3.335   4.232  0.7420  0.0986 -2.3583
 1917SOL     OW 6563   4.027   0.565   4.523 -0.5079 -0.2020  0.0342
 1917SOL    HW1 6564   4.091   0.636   4.526  0.0059 -0.7173  2.0963
 1917SOL    HW2 6565   4.073   0.492   4.483 -0.2273 -0.1618  0.2866
 1918SOL     OW 6566   1.271   6.800   6.804  0.9671 -0.0053  0.1332
 1918SOL    HW1 6567   1.334   6.871   6.803 -0.4140  1.2508  0.4453
 1918SOL    HW2 6568   1.273   6.765   6.715  0.6182  1.3744 -0.4351
 1919SOL     OW 6569   6.312   7.537   7.270  0.4402 -0.3246  0.3248
 1919SOL    HW1 6570   6.346   7.614   7.314  1.7162 -0.6570 -0.0481
 1919SOL    HW2 6571   6.349   7.541   7.182 -2.0491  0.3193 -0.7405
 1920SOL     OW 6572   4.981   6.567   1.051 -0.8085 -0.7733  0.6677
 1920SOL    HW1 6573   5.031   6.574   1.132  2.8232  0.7941 -1.5694
 1920SOL    HW2 6574   5.028   6.500   1.000 -0.7347  0.9181 -1.5862
 1921SOL     OW 6575   1.317   3.264   1.492 -0.0280 -0.0687  0.2955
 1921SOL    HW1 6576   1.406   3.289   1.519  0.1759 -0.8374  0.3326
 1921SOL    HW2 6577   1.260   3.324   1.540  0.4188 -0.2468  1.0551
 1922SOL     OW 6578   2.932   4.632   6.870  0.0514 -0.2536 -0.0697
 1922SOL    HW1 6579   2.868   4.561   6.868 -0.0837 -0.1360  0.0306
 1922SOL    HW2 6580   2.961   4.635   6.961 -0.0671 -0.0715 -0.0371
 1923SOL     OW 6581   2.446   7.396   4.188 -0.2773 -0.5358 -0.0832
 1923SOL    HW1 6582   2.441   7.465   4.122 -2.0780 -1.9666 -1.5162
 1923SOL    HW2 6583   2.445   7.442   4.272 -1.1051  1.1825 -1.0043
 1924SOL     OW 6584   0.653   5.917   7.573 -0.3479 -0.0794  0.0210
 1924SOL    HW1 6585   0.693   5.832   7.556  0.7829 -0.0562  2.3412
 1924SOL    HW2 6586   0.693   5.976   7.509 -0.3161 -1.0458 -0.8643
 1925SOL     OW 6587   6.691   6.360   3.001  0.2963  0.7773 -0.4571
 1925SOL    HW1 6588   6.771   6.310   3.019  0.6379  1.5406  0.1183
 1925SOL    HW2 6589   6.625   6.319   3.056  0.4533  0.6049 -0.3937
 1926SOL     OW 6590   5.756   7.286   2.113 -0.5195  0.2809 -0.4066
 1926SOL    HW1 6591   5.675   7.334   2.094 -1.0050 -0.3231  0.1024
 1926SOL    HW2 6592   5.774   7.305   2.205 -0.9803 -0.8936 -0.0693
 1927SOL     OW 6593   0.436   1.051   0.056 -0.6908  0.3898 -0.0763
 1927SOL    HW1 6594   0.514   1.020   0.102 -1.1994  1.0236  1.2427
 1927SOL    HW2 6595   0.365   1.039   0.119 -0.8928  4.2809  0.5439
 1928SOL     OW 6596   1.510   4.277   4.335  0.0298  0.1986 -0.5109
 1928SOL    HW1 6597   1.555   4.246   4.414  1.0796  1.6584 -0.5034
 1928SOL    HW2 6598   1.505   4.372   4.347 -2.1648  0.1689 -0.9978
 1929SOL     OW 6599   6.105   5.264   4.256 -0.4838  0.2354  0.3236
 1929SOL    HW1 6600   6.151   5.343   4.228 -0.0158 -0.4698 -0.9777
 1929SOL    HW2 6601   6.174   5.197   4.261 -0.9790 -0.2453  0.7479
 1930SOL     OW 6602   1.037   5.166   0.785  0.0659  0.3468  0.4432
 1930SOL    HW1 6603   1.038   5.099   0.854  2.7054 -0.8317 -0.7004
 1930SOL    HW2 6604   1.106   5.227   0.809  1.6563 -0.5916 -1.6289
 1931SOL     OW 6605   4.794   2.901   6.408 -0.2540  0.4004 -0.1200
 1931SOL    HW1 6606   4.838   2.845   6.344 -0.5235  0.4481 -0.3491
 1931SOL    HW2 6607   4.834   2.878   6.492 -0.4302 -0.1981 -0.2045
 1932SOL     OW 6608   2.511   1.896   1.762  0.0530  0.0052  0.3931
 1932SOL    HW1 6609   2.422   1.920   1.789  0.5485  0.8463  1.3053
 1932SOL    HW2 6610   2.499   1.818   1.707 -1.2951  0.4556  0.0301
 1933SOL     OW 6611   3.295   6.129   3.709  0.5677 -0.4812  0.0687
 1933SOL    HW1 6612   3.251   6.184   3.645  1.6344 -0.6833 -0.8590
 1933SOL    HW2 6613   3.260   6.156   3.794 -0.0699  0.5166 -0.5167
 1934SOL     OW 6614   1.025   3.296   3.025  0.2938 -0.2075 -0.8677
 1934SOL    HW1 6615   1.099   3.268   3.079 -1.1442 -3.5284 -0.5278
 1934SOL    HW2 6616   1.022   3.391   3.037  2.0582 -0.4724  2.2617
 1935SOL     OW 6617   6.980   5.355   1.292  0.0926  0.0403  0.5564
 1935SOL    HW1 6618   7.048   5.290   1.277  1.5594  1.6133  0.2472
 1935SOL    HW2 6619   6.987   5.415   1.218 -1.5450  0.2960  0.5887
 1936SOL     OW 6620   0.908   3.186   2.447  0.1847  0.3320  0.0250
 1936SOL    HW1 6621   0.867   3.163   2.530  1.4735  0.3223  0.6685
 1936SOL    HW2 6622   0.844   3.159   2.380 -1.5536  1.8069  1.0463
 1937SOL     OW 6623   1.002   7.480   2.632 -0.1432  0.2332  0.1512
 1937SOL    HW1 6624   0.971   7.437   2.553 -1.7700 -0.2864  1.0542
 1937SOL    HW2 6625   1.072   7.423   2.665  0.0933  0.1154 -0.5516
 1938SOL     OW 6626   7.044   7.522   1.116 -1.0066 -0.0990 -0.1506
 1938SOL    HW1 6627   6.962   7.552   1.156 -0.4896  0.0330  0.8256
 1938SOL    HW2 6628   7.064   7.440   1.161  0.1584  0.6122  0.6461
 1939SOL     OW 6629   0.939   1.277   7.563 -0.5959 -0.4003 -0.5891
 1939SOL    HW1 6630   0.896   1.219   7.499 -0.1949  2.0654 -3.1490
 1939SOL    HW2 6631   0.976   1.348   7.511 -2.8660  3.3344  2.6122
 1940SOL     OW 6632   6.013   1.836   5.481  0.1306  0.0048 -0.0980
 1940SOL    HW1 6633   5.978   1.895   5.415  0.4716 -1.5220 -1.6773
 1940SOL    HW2 6634   5.937   1.784   5.509  0.1987 -0.0945 -0.0960
 1941SOL     OW 6635   4.069   6.122   5.741  0.2823  0.5262  0.4183
 1941SOL    HW1 6636   3.989   6.166   5.770 -0.7737 -1.6831  1.0188
 1941SOL    HW2 6637   4.046   6.029   5.742  2.9320 -0.1601  0.8120
 1942SOL     OW 6638   7.837   4.232   5.789 -0.0568 -0.1911 -0.2592
 1942SOL    HW1 6639   7.862   4.148   5.751 -0.0861 -0.7038  0.8100
 1942SOL    HW2 6640   7.838   4.293   5.716 -0.0109 -1.1178 -1.0492
 1943SOL     OW 6641   4.976   4.736   5.630 -0.6122 -0.6905  0.3640
 1943SOL    HW1 6642   4.892   4.773   5.655 -0.8547 -1.4107  0.6280
 1943SOL    HW2 6643   5.020   4.806   5.581 -1.3587 -0.3138  0.2315
 1944SOL     OW 6644   4.358   3.777   1.403  0.3599 -0.2708 -0.2806
 1944SOL    HW1 6645   4.426   3.836   1.370 -1.1400  1.3169 -0.6353
 1944SOL    HW2 6646   4.348   3.801   1.495 -1.5583  1.3782 -0.8793
 1945SOL     OW 6647   0.109   1.748   1.997  0.3423 -0.3180  0.0401
 1945SOL    HW1 6648   0.200   1.748   1.970  0.7624  1.0919  1.3744
 1945SOL    HW2 6649   0.093   1.836   2.030 -0.6042 -1.4105  2.7151
 1946SOL     OW 6650   1.129   2.811   3.640  0.2133  0.2405 -0.1587
 1946SOL    HW1 6651   1.160   2.724   3.666  1.1298  0.6702  0.2319
 1946SOL    HW2 6652   1.035   2.801   3.629  0.4088 -0.9813 -0.8455
 1947SOL     OW 6653   3.915   2.954   0.178 -0.2207 -0.0762 -0.2547
 1947SOL    HW1 6654   3.836   2.920   0.221 -1.2264  2.1630 -0.2364
 1947SOL    HW2 6655   3.942   3.027   0.233  2.8896 -1.8503  0.6525
 1948SOL     OW 6656   5.430   6.039   6.049 -0.3288  0.3526 -0.3448
 1948SOL    HW1 6657   5.480   6.048   5.968  0.6235  0.0500  0.1980
 1948SOL    HW2 6658   5.494   6.056   6.118 -0.5436 -1.8949  0.4218
 1949SOL     OW 6659   6.470   4.518   2.507 -0.0512 -0.5167 -0.2010
 1949SOL    HW1 6660   6.508   4.558   2.429 -2.8595  1.3091 -0.6906
 1949SOL    HW2 6661   6.490   4.425   2.498  1.0089 -0.1270 -2.2766
 1950SOL     OW 6662   3.949   4.207   3.464  0.2502  0.6555 -0.3933
 1950SOL    HW1 6663   3.930   4.227   3.556 -2.8416  0.8382 -0.9986
 1950SOL    HW2 6664   4.032   4.251   3.446 -0.3019  2.6652  1.6712
 1951SOL     OW 6665   4.960   2.328   4.972 -0.5944  0.5371 -1.1747
 1951SOL    HW1 6666   4.978   2.417   5.002 -0.8607 -0.2627  1.5028
 1951SOL    HW2 6667   5.015   2.273   5.027 -1.8649 -1.0609 -1.4706
 1952SOL     OW 6668   3.048   5.343   6.945  0.2061 -0.0593  0.2317
 1952SOL    HW1 6669   3.048   5.395   7.026  0.4088  0.4736 -0.1138
 1952SOL    HW2 6670   3.054   5.407   6.875  1.2391 -0.5969 -0.1759
 1953SOL     OW 6671   5.105   7.410   2.173 -0.6663 -0.2039 -0.2569
 1953SOL    HW1 6672   5.039   7.466   2.214 -1.7357 -2.1553  0.7289
 1953SOL    HW2 6673   5.057   7.332   2.146  1.0200 -1.1422 -0.5781
 1954SOL     OW 6674   1.535   6.126   1.361 -0.2249  0.1480 -0.4093
 1954SOL    HW1 6675   1.534   6.096   1.452  0.3972  3.0195  0.5818
 1954SOL    HW2 6676   1.589   6.204   1.362 -2.4720  1.8174 -2.7353
 1955SOL     OW 6677   3.483   5.781   1.256  0.0878  0.3356  0.0428
 1955SOL    HW1 6678   3.531   5.808   1.178 -1.1522  0.7453 -0.5792
 1955SOL    HW2 6679   3.529   5.825   1.328 -1.3776  3.4851 -0.8601
 1956SOL     OW 6680   6.062   6.588   1.679 -0.1604 -0.2143  0.0531
 1956SOL    HW1 6681   6.021   6.535   1.611 -0.9618 -1.3743  1.4016
 1956SOL    HW2 6682   6.155   6.566   1.675 -0.0415  0.5167 -1.3528
 1957SOL     OW 6683   4.044   3.006   5.525  0.8023  0.3648 -0.0335
 1957SOL    HW1 6684   4.123   3.057   5.508  0.6369  1.3103  1.8922
 1957SOL    HW2 6685   4.049   2.982   5.617  0.0472 -1.7146 -0.4971
 1958SOL     OW 6686   0.443   0.530   0.712  0.2328 -0.1959  0.2767
 1958SOL    HW1 6687   0.471   0.567   0.795 -0.7608 -1.2644  1.1020
 1958SOL    HW2 6688   0.379   0.463   0.736 -1.2914  0.6271 -1.4284
 1959SOL     OW 6689   3.974   0.773   1.129 -0.2486 -0.1366  0.2149
 1959SOL    HW1 6690   3.924   0.770   1.048 -0.2022  1.5767  0.1041
 1959SOL    HW2 6691   4.023   0.691   1.130 -0.1432 -0.1254 -1.5658
 1960SOL     OW 6692   7.004   2.739   5.010 -0.4788 -0.3605 -0.1112
 1960SOL    HW1 6693   6.925   2.718   4.961 -1.2346  0.0378  0.9074
 1960SOL    HW2 6694   7.007   2.673   5.079 -0.2866  0.0187  0.2462
 1961SOL     OW 6695   4.927   0.527   0.035  0.7145 -0.4179 -0.1364
 1961SOL    HW1 6696   4.912   0.555   0.125  1.4888 -0.3384 -0.0327
 1961SOL    HW2 6697   4.901   0.435   0.034  1.4508 -0.6349  0.3582
 1962SOL     OW 6698   4.069   5.722   1.298  0.4756  0.4098  0.1539
 1962SOL    HW1 6699   4.125   5.799   1.306  0.8256  0.1253  0.4501
 1962SOL    HW2 6700   4.103   5.660   1.363  0.2447 -0.0218 -0.1315
 1963SOL     OW 6701   1.710   6.640   4.176 -0.3948  0.1577  0.3958
 1963SOL    HW1 6702   1.767   6.678   4.108 -1.2689  0.4647 -0.1833
 1963SOL    HW2 6703   1.698   6.711   4.239 -1.5622  0.6850 -0.3933
 1964SOL     OW 6704   6.180   3.794   2.574  0.1580 -0.9269 -0.2536
 1964SOL    HW1 6705   6.169   3.705   2.539  2.4859 -1.3471 -0.0186
 1964SOL    HW2 6706   6.253   3.786   2.636 -0.1101  0.9944  0.3369
 1965SOL     OW 6707   0.979   0.849   0.792  0.4987  0.2429 -0.0276
 1965SOL    HW1 6708   1.044   0.816   0.854 -0.4079  1.2111  1.4739
 1965SOL    HW2 6709   1.011   0.821   0.707  1.8434 -1.0009  0.8622
 1966SOL     OW 6710   1.861   6.685   3.964 -0.3437  0.1700  0.4552
 1966SOL    HW1 6711   1.937   6.737   3.938 -2.0940  1.6561 -1.8905
 1966SOL    HW2 6712   1.867   6.606   3.910 -0.3242  0.1721  0.4540
 1967SOL     OW 6713   7.919   3.633   4.709 -0.3447  0.4966 -0.0984
 1967SOL    HW1 6714   7.915   3.697   4.638 -0.3424  0.8612  0.2265
 1967SOL    HW2 6715   7.845   3.574   4.692 -0.3317  0.5702 -0.4126
 1968SOL     OW 6716   7.058   7.194   6.698  0.5423 -0.1577  0.1480
 1968SOL    HW1 6717   7.141   7.237   6.721  0.3599  0.5624 -0.5138
 1968SOL    HW2 6718   7.049   7.210   6.604  0.3615 -1.4767 -0.0642
 1969SOL     OW 6719   4.266   4.973   0.800 -0.3375  0.2413  0.0774
 1969SOL    HW1 6720   4.257   4.880   0.782 -0.7158  0.2427  0.2601
 1969SOL    HW2 6721   4.176   5.007   0.801 -0.3373  0.2354  1.9631
 1970SOL     OW 6722   2.317   0.819   0.390 -0.2283  0.3100 -0.2079
 1970SOL    HW1 6723   2.322   0.782   0.478  0.6987  0.6755 -0.1046
 1970SOL    HW2 6724   2.362   0.755   0.335  0.1812  0.6140 -0.2352
 1971SOL     OW 6725   1.830   4.866   1.464  0.0228  0.0465 -0.6320
 1971SOL    HW1 6726   1.766   4.824   1.406  1.4738  0.2077 -2.3848
 1971SOL    HW2 6727   1.870   4.793   1.512 -0.5191 -0.1807 -0.5227
 1972SOL     OW 6728   6.917   5.514   4.877  0.0025  0.5179  0.4594
 1972SOL    HW1 6729   6.938   5.538   4.787 -0.3521  0.7117  0.4303
 1972SOL    HW2 6730   6.852   5.578   4.905 -0.7851 -0.2669  0.4532
 1973SOL     OW 6731   7.622   4.814   0.382  0.0570  0.3192  0.0196
 1973SOL    HW1 6732   7.687   4.765   0.332 -2.2668 -0.5165 -2.2832
 1973SOL    HW2 6733   7.585   4.750   0.443 -0.3113  0.1685 -0.3599
 1974SOL     OW 6734   3.843   0.117   2.897  0.4365 -0.2657 -0.0674
 1974SOL    HW1 6735   3.938   0.121   2.895  0.3654  2.8414  0.0544
 1974SOL    HW2 6736   3.815   0.205   2.871 -2.4218 -1.5187 -1.5092
 1975SOL     OW 6737   0.845   1.628   5.203 -0.1371 -0.2194 -0.0853
 1975SOL    HW1 6738   0.866   1.668   5.119  0.3421 -1.3504 -0.5111
 1975SOL    HW2 6739   0.898   1.676   5.267 -0.7843  0.8876 -0.3669
 1976SOL     OW 6740   0.776   1.245   4.668 -0.2302  0.1148  0.1607
 1976SOL    HW1 6741   0.740   1.317   4.720 -1.9460  0.7693 -1.8899
 1976SOL    HW2 6742   0.700   1.192   4.645  0.3132  0.4614 -2.6053
 1977SOL     OW 6743   2.050   1.363   6.303 -0.3245 -0.0763  0.6123
 1977SOL    HW1 6744   2.140   1.338   6.280 -0.3906 -0.7268  1.0457
 1977SOL    HW2 6745   2.060   1.418   6.381 -0.2780  0.2025  0.4143
 1978SOL     OW 6746   2.174   5.185   3.041  0.1432 -0.0057 -0.4804
 1978SOL    HW1 6747   2.194   5.099   3.006  0.5205 -0.1302  0.0263
 1978SOL    HW2 6748   2.162   5.170   3.135 -1.3624  0.2350 -0.6216
 1979SOL     OW 6749   2.366   7.768   5.523  0.6087 -0.3409  0.6264
 1979SOL    HW1 6750   2.395   7.723   5.602  0.4180 -1.1073  0.2600
 1979SOL    HW2 6751   2.368   7.701   5.454  3.3670  0.9323 -0.6150
 1980SOL     OW 6752   7.607   2.009   3.502  0.0402 -0.4007 -0.1049
 1980SOL    HW1 6753   7.625   2.083   3.559 -0.1895  1.0020 -1.8193
 1980SOL    HW2 6754   7.531   1.966   3.542  0.5843 -0.1260  1.2535
 1981SOL     OW 6755   3.736   1.299   0.689  0.4167 -0.6194  0.1425
 1981SOL    HW1 6756   3.651   1.332   0.662  0.0756 -1.1746  0.5186
 1981SOL    HW2 6757   3.795   1.374   0.681  0.0259 -0.4018 -0.7283
 1982SOL     OW 6758   3.001   6.155   1.131  0.0617  0.3989 -0.1233
 1982SOL    HW1 6759   2.990   6.229   1.191 -1.3116  0.8604 -0.8998
 1982SOL    HW2 6760   2.932   6.168   1.065  1.3099 -0.2853 -1.5910
 1983SOL     OW 6761   6.783   3.646   5.476  0.2143  0.0796  0.4141
 1983SOL    HW1 6762   6.716   3.713   5.488 -1.9564 -1.6678 -1.3595
 1983SOL    HW2 6763   6.842   3.682   5.411 -1.6374 -0.1663 -1.4611
 1984SOL     OW 6764   5.014   4.488   2.321 -0.7895  0.0487 -0.3012
 1984SOL    HW1 6765   5.044   4.397   2.314  1.8577  0.9714 -1.4899
 1984SOL    HW2 6766   4.921   4.485   2.297 -0.8614 -2.4007  0.1857
 1985SOL     OW 6767   1.326   5.937   4.789 -0.0039 -0.0017  0.2033
 1985SOL    HW1 6768   1.313   5.897   4.875 -2.4743 -0.6372 -0.4204
 1985SOL    HW2 6769   1.345   5.864   4.731  1.0460  0.3588  0.0844
 1986SOL     OW 6770   3.808   2.993   2.731  0.7203  0.3861  0.2061
 1986SOL    HW1 6771   3.778   2.919   2.783 -2.3469 -1.2168 -3.5794
 1986SOL    HW2 6772   3.733   3.052   2.728  1.8962  1.9060  0.1318
 1987SOL     OW 6773   7.996   4.645   7.049  0.2505 -0.3970 -0.4228
 1987SOL    HW1 6774   8.012   4.571   7.109  1.2820 -0.0640 -0.2704
 1987SOL    HW2 6775   8.062   4.710   7.074 -1.6774  1.2483  0.5233
 1988SOL     OW 6776   4.180   7.100   6.310  0.2686  0.2538 -0.2861
 1988SOL    HW1 6777   4.124   7.041   6.260  1.7146 -1.7971  0.4301
 1988SOL    HW2 6778   4.251   7.123   6.250  0.0612  0.7244 -0.3499
 1989SOL     OW 6779   0.263   1.951   2.436  0.1300  0.3492  0.3219
 1989SOL    HW1 6780   0.314   1.994   2.367  2.2296 -2.3460  0.0942
 1989SOL    HW2 6781   0.324   1.943   2.510 -0.5381 -1.1930  0.7336
 1990SOL     OW 6782   7.595   4.885   7.345 -0.7609  0.8379 -0.5354
 1990SOL    HW1 6783   7.581   4.791   7.335 -2.3193  0.8981  0.7482
 1990SOL    HW2 6784   7.687   4.893   7.371 -0.3783 -0.2498 -1.5111
 1991SOL     OW 6785   6.271   7.160   5.040  0.1526 -0.2515 -1.0144
 1991SOL    HW1 6786   6.285   7.128   5.129 -0.2445  0.7815 -0.5700
 1991SOL    HW2 6787   6.233   7.248   5.051 -0.3280 -0.2928 -2.1959
 1992SOL     OW 6788   3.896   7.052   3.142 -0.6409  0.0527  1.2077
 1992SOL    HW1 6789   3.912   6.992   3.069 -1.3519 -0.5056  1.5115
 1992SOL    HW2 6790   3.895   6.996   3.220  1.8477  0.8489  1.8750
 1993SOL     OW 6791   5.235   3.917   5.918  0.1793 -0.1586  0.1631
 1993SOL    HW1 6792   5.308   3.951   5.867 -0.6271  1.4669  0.0551
 1993SOL    HW2 6793   5.157   3.956   5.878 -0.7443 -1.7174  0.3895
 1994SOL     OW 6794   4.891   2.340   3.388 -0.1122 -0.3520 -0.5148
 1994SOL    HW1 6795   4.966   2.281   3.394  1.2797  1.5808  1.6166
 1994SOL    HW2 6796   4.913   2.399   3.316 -0.9933 -1.6547 -1.8897
 1995SOL     OW 6797   0.394   1.299   3.115 -0.1059  0.6926  0.3171
 1995SOL    HW1 6798   0.310   1.339   3.138 -0.2283  0.2035  0.7233
 1995SOL    HW2 6799   0.437   1.284   3.199 -1.6789 -3.5870  0.4730
 1996SOL     OW 6800   5.641   4.509   3.131 -0.0765  0.4307  0.0424
 1996SOL    HW1 6801   5.618   4.487   3.041  1.8819  0.4800 -0.5000
 1996SOL    HW2 6802   5.565   4.556   3.165 -2.1494 -2.4239 -0.5061
 1997SOL     OW 6803   5.402   7.170   6.131 -0.3267  0.0928  0.0316
 1997SOL    HW1 6804   5.318   7.198   6.095 -0.3363  0.1895  0.1309
 1997SOL    HW2 6805   5.402   7.075   6.118  0.0771  0.2396 -1.0880
 1998SOL     OW 6806   7.875   5.204   0.865  0.1971 -0.0974 -0.5507
 1998SOL    HW1 6807   7.922   5.284   0.843  0.1383 -0.2721 -1.3223
 1998SOL    HW2 6808   7.841   5.220   0.953 -1.2448  1.4039 -1.3534
 1999SOL     OW 6809   7.435   2.023   7.654 -0.2395  0.6443 -0.2743
 1999SOL    HW1 6810   7.502   2.091   7.660 -0.0513  0.5777 -1.5564
 1999SOL    HW2 6811   7.484   1.945   7.628  0.1515 -0.9046  4.5087
 2000SOL     OW 6812   4.813   6.056   6.618  0.2068  0.6090 -0.1325
 2000SOL    HW1 6813   4.811   5.968   6.581  0.4444  1.0176 -1.1304
 2000SOL    HW2 6814   4.855   6.045   6.703 -1.0780 -0.4662  0.3893
 2001SOL     OW 6815   0.396   1.455   2.256  0.2947 -0.1012 -0.2718
 2001SOL    HW1 6816   0.438   1.424   2.175  0.4751  1.2002 -0.6851
 2001SOL    HW2 6817   0.327   1.390   2.273  0.3324 -0.4561 -1.4057
 2002SOL     OW 6818   5.062   0.400   6.983  0.1407  0.0766 -0.1305
 2002SOL    HW1 6819   5.078   0.495   6.983 -0.4301  0.1842  1.0285
 2002SOL    HW2 6820   5.029   0.382   6.895 -1.3077  1.2375  0.1511
 2003SOL     OW 6821   4.574   6.635   0.558 -0.2748 -0.0572 -0.2889
 2003SOL    HW1 6822   4.558   6.666   0.648  0.2099 -1.4284  0.2929
 2003SOL    HW2 6823   4.666   6.608   0.559 -0.1224  0.4433 -1.3602
 2004SOL     OW 6824   0.048   5.793   6.832 -0.0383  0.1047  0.1570
 2004SOL    HW1 6825   0.068   5.719   6.890 -0.2719  0.2514  0.4284
 2004SOL    HW2 6826   0.061   5.759   6.744  1.1453  0.1202  0.3195
 2005SOL     OW 6827   7.934   1.743   2.956  0.1220  0.1599 -0.1588
 2005SOL    HW1 6828   7.925   1.765   2.864 -0.2618 -0.7808 -0.3528
 2005SOL    HW2 6829   8.025   1.765   2.977  0.0637  0.8651 -0.6190
 2006SOL     OW 6830   2.686   7.805   5.081  0.3251  0.3234 -0.2034
 2006SOL    HW1 6831   2.713   7.816   5.172 -0.1361  0.5411 -0.0948
 2006SOL    HW2 6832   2.692   7.892   5.042  0.4837  0.2379 -0.3727
 2007SOL     OW 6833   6.347   3.541   0.038 -0.2107  0.1657 -0.0657
 2007SOL    HW1 6834   6.386   3.587  -0.037  1.5826 -0.0612  0.6977
 2007SOL    HW2 6835   6.413   3.474   0.061 -1.2331 -0.4801  1.0233
 2008SOL     OW 6836   2.385   0.687   1.110 -0.0890  0.2055  0.0548
 2008SOL    HW1 6837   2.444   0.632   1.058 -0.8629 -1.1115  0.5518
 2008SOL    HW2 6838   2.419   0.681   1.199 -0.8317 -0.3849  0.3037
 2009SOL     OW 6839   7.742   7.096   3.306 -0.1379  0.4060  0.2842
 2009SOL    HW1 6840   7.746   7.006   3.274  1.6773 -0.1827  2.0391
 2009SOL    HW2 6841   7.668   7.098   3.366  1.3856 -0.6332  2.2462
 2010SOL     OW 6842   7.989   6.771   0.711 -0.4700 -0.1173 -0.3595
 2010SOL    HW1 6843   8.035   6.744   0.791  0.5654 -0.9667 -1.2212
 2010SOL    HW2 6844   8.051   6.751   0.641 -1.5834  0.1335 -1.4207
 2011SOL     OW 6845   6.845   4.794   1.336  0.4176  0.1953  0.0031
 2011SOL    HW1 6846   6.841   4.721   1.399  0.0051  0.6358  0.4968
 2011SOL    HW2 6847   6.758   4.834   1.341  0.2659  0.0216 -1.1179
 2012SOL     OW 6848   1.671   7.967   7.593 -0.5776  1.0374 -0.5070
 2012SOL    HW1 6849   1.669   7.873   7.577  1.9682  0.6088  1.4088
 2012SOL    HW2 6850   1.582   7.989   7.621 -0.9110 -0.9958  0.0500
 2013SOL     OW 6851   6.870   3.315   3.222 -0.3420 -0.4472  0.2141
 2013SOL    HW1 6852   6.918   3.321   3.139  0.3453  1.5493  0.7506
 2013SOL    HW2 6853   6.794   3.372   3.210 -0.2732 -0.2018  0.9520
 2014SOL     OW 6854   6.232   5.315   5.286 -0.6258  0.0151  0.5950
 2014SOL    HW1 6855   6.267   5.226   5.278 -1.4270 -0.6678  3.8473
 2014SOL    HW2 6856   6.140   5.307   5.260 -0.5020  0.0616  0.1397
 2015SOL     OW 6857   6.736   0.369   3.873 -0.3660 -0.0503 -0.6216
 2015SOL    HW1 6858   6.829   0.358   3.892 -0.0630  3.2411  0.0752
 2015SOL    HW2 6859   6.693   0.360   3.958 -0.3484  1.5415 -0.4339
 2016SOL     OW 6860   7.062   0.560   1.361  0.0356 -0.4967 -0.1502
 2016SOL    HW1 6861   7.038   0.469   1.345 -0.1629 -0.2398 -1.3802
 2016SOL    HW2 6862   7.045   0.573   1.454  0.0565 -1.7121  0.0390
 2017SOL     OW 6863   6.838   5.183   7.484 -0.0647  0.3843 -0.2987
 2017SOL    HW1 6864   6.790   5.139   7.414  0.9937  1.9936 -2.0629
 2017SOL    HW2 6865   6.775   5.242   7.524 -0.2526  0.5726 -0.8771
 2018SOL     OW 6866   0.686   3.032   4.066  0.1682 -0.1440 -0.3920
 2018SOL    HW1 6867   0.694   3.013   3.973  4.3257  0.9115 -0.3356
 2018SOL    HW2 6868   0.646   3.120   4.069 -0.3824 -0.3622 -1.1230
 2019SOL     OW 6869   7.138   3.877   5.786 -0.3373  0.2725 -0.1076
 2019SOL    HW1 6870   7.048   3.855   5.807 -0.3491 -0.8853 -1.2982
 2019SOL    HW2 6871   7.151   3.964   5.822 -1.3001 -0.3814  1.8899
 2020SOL     OW 6872   1.411   4.102   1.588 -0.2466 -0.2199  0.6208
 2020SOL    HW1 6873   1.412   4.127   1.496 -0.6550  0.2791  0.7447
 2020SOL    HW2 6874   1.466   4.024   1.593  1.1895  0.7594  0.2478
 2021SOL     OW 6875   1.572   6.135   0.577 -0.0736  0.2500  0.2668
 2021SOL    HW1 6876   1.542   6.044   0.567 -0.4488  0.3793  0.1889
 2021SOL    HW2 6877   1.498   6.180   0.618  0.7542  0.1408  1.9187
 2022SOL     OW 6878   6.650   1.588   2.577  0.3284 -0.6715  0.1132
 2022SOL    HW1 6879   6.741   1.600   2.549  0.3881  0.3070  0.6897
 2022SOL    HW2 6880   6.654   1.584   2.672 -0.4428  1.4918  0.2640
 2023SOL     OW 6881   7.753   7.273   6.471  0.4527  0.1595 -0.9049
 2023SOL    HW1 6882   7.770   7.213   6.398  1.4777  0.7418 -1.1619
 2023SOL    HW2 6883   7.831   7.329   6.474  0.4718  0.0542  0.7280
 2024SOL     OW 6884   7.362   5.232   2.452 -0.5712 -0.1647  0.1352
 2024SOL    HW1 6885   7.282   5.232   2.503 -0.4949  1.6474  0.2756
 2024SOL    HW2 6886   7.337   5.194   2.368 -1.5680  0.4049  0.1756
 2025SOL     OW 6887   2.011   0.175   6.656  0.1863  0.5137 -0.1350
 2025SOL    HW1 6888   2.101   0.205   6.667  0.1269  0.5268  0.3484
 2025SOL    HW2 6889   2.009   0.137   6.568  0.9982 -0.6390  0.3329
 2026SOL     OW 6890   3.453   3.854   5.160 -0.1410 -0.2378 -0.3159
 2026SOL    HW1 6891   3.367   3.849   5.119  0.0929 -0.3442 -0.8010
 2026SOL    HW2 6892   3.515   3.836   5.089  0.2159 -2.1270  0.4388
 2027SOL     OW 6893   5.241   0.907   4.745  0.3269 -0.3648 -0.5019
 2027SOL    HW1 6894   5.238   1.002   4.737  1.4043 -0.1966  0.8423
 2027SOL    HW2 6895   5.162   0.876   4.701 -0.0736  1.1535 -0.8672
 2028SOL     OW 6896   7.304   5.075   2.247 -0.1575 -0.0388 -0.0549
 2028SOL    HW1 6897   7.262   5.114   2.170  0.2087  0.5964  0.0605
 2028SOL    HW2 6898   7.247   5.003   2.272 -1.2339  0.8811  0.1604
 2029SOL     OW 6899   1.261   7.130   0.252  0.4405 -0.0547 -0.4454
 2029SOL    HW1 6900   1.305   7.047   0.272  0.4886 -0.3528 -1.7654
 2029SOL    HW2 6901   1.170   7.116   0.280  0.5614 -0.3684 -0.1985
 2030SOL     OW 6902   1.305   3.356   5.870  0.3110 -0.9238 -0.2493
 2030SOL    HW1 6903   1.342   3.343   5.957  0.3419 -0.0741 -0.1241
 2030SOL    HW2 6904   1.355   3.430   5.834 -0.2019 -0.7901 -0.6962
 2031SOL     OW 6905   0.887   6.482   6.610  0.2194 -0.1835  0.1670
 2031SOL    HW1 6906   0.879   6.543   6.683  1.2391  0.8444 -0.5558
 2031SOL    HW2 6907   0.880   6.537   6.532 -1.5266 -1.3517 -0.5359
 2032SOL     OW 6908   5.162   6.105   6.284 -0.0589 -0.1508  0.3046
 2032SOL    HW1 6909   5.137   6.124   6.375  1.6697 -0.2644  0.8297
 2032SOL    HW2 6910   5.243   6.054   6.293 -0.0809 -0.4723 -1.3024
 2033SOL     OW 6911   3.851   2.440   0.549  0.1994  0.5214 -0.2033
 2033SOL    HW1 6912   3.903   2.369   0.511  0.2138 -0.1558  1.0545
 2033SOL    HW2 6913   3.916   2.497   0.592  0.0643  0.5997 -0.1020
 2034SOL     OW 6914   1.207   0.924   5.897  0.1248 -0.2509  0.1532
 2034SOL    HW1 6915   1.160   0.845   5.924 -0.3850  0.2952  0.8605
 2034SOL    HW2 6916   1.292   0.918   5.941  0.5652 -1.0124 -0.7704
 2035SOL     OW 6917   3.511   3.260   7.095 -0.3384  0.0251  0.5348
 2035SOL    HW1 6918   3.483   3.266   7.003  1.1246  3.2699  0.2170
 2035SOL    HW2 6919   3.470   3.335   7.137  2.0147  0.7150  1.6709
 2036SOL     OW 6920   1.134   0.117   6.167 -0.4893 -0.5351  0.0982
 2036SOL    HW1 6921   1.179   0.186   6.215 -1.9868 -0.2200  1.0736
 2036SOL    HW2 6922   1.107   0.055   6.234 -1.4311 -0.7609 -0.4810
 2037SOL     OW 6923   3.248   0.065   0.857 -0.4125  0.0954 -0.3288
 2037SOL    HW1 6924   3.282  -0.020   0.884 -1.2772 -0.0445  0.3305
 2037SOL    HW2 6925   3.154   0.051   0.845 -0.8660  1.3797  1.5281
 2038SOL     OW 6926   2.018   0.018   4.607  0.9868  0.0387  0.0301
 2038SOL    HW1 6927   1.952   0.016   4.537  0.2843  0.9611  0.6537
 2038SOL    HW2 6928   2.101   0.007   4.562  0.5065  0.2483 -0.9191
 2039SOL     OW 6929   2.133   7.415   4.467  0.7850  0.0118  0.2669
 2039SOL    HW1 6930   2.134   7.508   4.442 -0.4869  0.1043  0.5238
 2039SOL    HW2 6931   2.041   7.390   4.462  0.8082 -0.6029  2.5174
 2040SOL     OW 6932   4.046   3.603   5.021 -0.1890 -0.8080 -0.4157
 2040SOL    HW1 6933   4.074   3.687   4.985  0.2964 -1.1917 -0.9446
 2040SOL    HW2 6934   4.093   3.538   4.969  0.7744 -1.3677  1.1255
 2041SOL     OW 6935   7.879   7.506   6.792 -0.3377  0.4573  0.0831
 2041SOL    HW1 6936   7.944   7.576   6.793  0.1396  0.0213 -0.6352
 2041SOL    HW2 6937   7.798   7.550   6.763 -0.0151  0.6872 -0.4763
 2042SOL     OW 6938   2.435   7.105   3.855 -0.2051 -0.0550  0.1805
 2042SOL    HW1 6939   2.396   7.148   3.931 -0.0482 -1.5253  1.1058
 2042SOL    HW2 6940   2.511   7.060   3.890  1.5460  1.6136 -1.3628
 2043SOL     OW 6941   0.429   3.677   1.181 -0.5187 -0.7814 -0.5673
 2043SOL    HW1 6942   0.339   3.706   1.194  0.3705  2.0743 -0.5240
 2043SOL    HW2 6943   0.425   3.623   1.101 -1.9254  1.0569 -1.7807
 2044SOL     OW 6944   6.143   1.215   0.039 -0.2450  0.3975 -0.8148
 2044SOL    HW1 6945   6.069   1.156   0.023 -0.0220  0.4739 -2.1960
 2044SOL    HW2 6946   6.115   1.270   0.112 -0.0843 -2.0390  1.1372
 2045SOL     OW 6947   0.699   4.308   7.260 -0.0957 -0.3496  0.1753
 2045SOL    HW1 6948   0.669   4.260   7.338  0.6179  0.7478  1.1402
 2045SOL    HW2 6949   0.709   4.398   7.290  0.0071  0.1238 -1.2525
 2046SOL     OW 6950   5.252   2.619   0.506 -0.3412 -0.5619 -0.5139
 2046SOL    HW1 6951   5.285   2.578   0.426 -0.8899 -1.7094 -0.1557
 2046SOL    HW2 6952   5.323   2.607   0.570 -0.2473 -0.3910 -0.5856
 2047SOL     OW 6953   0.386   5.383   4.210  0.1884  0.3976  0.3815
 2047SOL    HW1 6954   0.465   5.330   4.222 -1.7720 -3.3270 -2.0319
 2047SOL    HW2 6955   0.410   5.445   4.141  0.9789 -0.9307 -0.5825
 2048SOL     OW 6956   3.225   4.631   7.751  0.1179  0.4951  0.4897
 2048SOL    HW1 6957   3.310   4.671   7.768  0.6873 -0.4037 -0.1674
 2048SOL    HW2 6958   3.168   4.664   7.820  1.3936 -0.1176  1.8649
 2049SOL     OW 6959   3.116   6.541   5.841  0.4144 -0.4778 -0.1268
 2049SOL    HW1 6960   3.178   6.470   5.860  0.8987  0.2815  1.1751
 2049SOL    HW2 6961   3.138   6.609   5.904 -2.1673 -0.4394  0.7602
 2050SOL     OW 6962   4.356   0.421   3.384 -0.3371 -0.8384  0.2680
 2050SOL    HW1 6963   4.443   0.431   3.344 -0.7009  1.4550 -0.0602
 2050SOL    HW2 6964   4.298   0.472   3.326 -1.7388 -1.6276  0.9641
 2051SOL     OW 6965   6.761   1.050   6.459  0.2369 -0.1814  0.4432
 2051SOL    HW1 6966   6.769   1.144   6.474 -1.4386 -0.1255  0.9796
 2051SOL    HW2 6967   6.709   1.042   6.379 -2.1642 -0.6709  2.0112
 2052SOL     OW 6968   5.066   3.132   4.023  0.6553 -0.0677 -0.0349
 2052SOL    HW1 6969   5.140   3.093   4.069  2.9746  1.8230 -2.0378
 2052SOL    HW2 6970   5.084   3.114   3.930 -1.4901  0.2771 -0.5473
 2053SOL     OW 6971   1.578   3.561   3.831  0.2148 -0.5015 -0.1763
 2053SOL    HW1 6972   1.606   3.637   3.781 -0.9355 -0.3649 -0.6248
 2053SOL    HW2 6973   1.617   3.574   3.918 -0.9104  1.1743  0.0989
 2054SOL     OW 6974   7.493   5.715   7.410  0.5381  0.0212 -0.4247
 2054SOL    HW1 6975   7.506   5.636   7.358 -1.6674  0.2548 -1.4116
 2054SOL    HW2 6976   7.513   5.688   7.500 -1.5405 -2.0683 -0.5395
 2055SOL     OW 6977   3.653   0.034   5.291 -0.1197 -0.2380  0.5648
 2055SOL    HW1 6978   3.717   0.099   5.263 -1.9209  1.3351 -0.0367
 2055SOL    HW2 6979   3.642  -0.023   5.214  0.6000 -0.5701  0.7022
 2056SOL     OW 6980   7.213   5.255   0.753 -0.4232 -0.3451 -0.5000
 2056SOL    HW1 6981   7.130   5.302   0.750  0.0510  0.4571 -1.4372
 2056SOL    HW2 6982   7.275   5.319   0.790 -0.1735 -0.8519 -0.0448
 2057SOL     OW 6983   1.811   4.401   0.529 -0.0445  0.3641  0.4146
 2057SOL    HW1 6984   1.791   4.484   0.573  0.6546  1.9236 -2.1218
 2057SOL    HW2 6985   1.738   4.344   0.551 -0.6391  1.7117  2.0498
 2058SOL     OW 6986   5.839   1.114   5.952  0.0166 -0.6708 -0.3823
 2058SOL    HW1 6987   5.799   1.032   5.978 -2.5448  0.5441 -0.3456
 2058SOL    HW2 6988   5.815   1.176   6.021  1.6912  0.1961 -0.5357
 2059SOL     OW 6989   2.448   1.648   1.645 -0.0100 -0.4863  0.5841
 2059SOL    HW1 6990   2.467   1.569   1.595  0.6827 -0.8962  1.4770
 2059SOL    HW2 6991   2.417   1.711   1.580  2.6977 -0.3998 -0.6722
 2060SOL     OW 6992   1.886   6.386   5.998 -0.5075  0.1704  0.0140
 2060SOL    HW1 6993   1.967   6.428   5.971 -0.7465  1.3596  1.1203
 2060SOL    HW2 6994   1.874   6.412   6.089 -2.2664  0.2437 -0.2209
 2061SOL     OW 6995   7.494   3.279   6.248  0.0059 -0.0549 -0.0001
 2061SOL    HW1 6996   7.489   3.257   6.154  0.8440  0.4331 -0.1595
 2061SOL    HW2 6997   7.494   3.194   6.292 -2.1432 -0.2628 -0.3507
 2062SOL     OW 6998   3.315   0.523   6.500 -0.2199 -0.7936  0.2268
 2062SOL    HW1 6999   3.263   0.603   6.492 -2.6267 -2.2628  0.6573
 2062SOL    HW2 7000   3.405   0.554   6.510 -0.4958  1.7513 -4.0655
 2063SOL     OW 7001   6.410   6.962   6.237 -0.0258 -0.3043  0.1411
 2063SOL    HW1 7002   6.456   7.013   6.304 -0.9944 -0.7738  1.1845
 2063SOL    HW2 7003   6.318   6.967   6.264 -0.3123 -1.2322 -0.6754
 2064SOL     OW 7004   2.601   6.176   0.632  0.3145  0.0287 -0.4158
 2064SOL    HW1 7005   2.570   6.261   0.664  1.1031  0.6109 -1.1671
 2064SOL    HW2 7006   2.620   6.191   0.539 -2.8542 -1.8772 -1.4539
 2065SOL     OW 7007   6.243   0.470   7.409  0.1961  0.0405 -0.4847
 2065SOL    HW1 7008   6.227   0.385   7.449 -0.4314  0.0358 -0.7403
 2065SOL    HW2 7009   6.299   0.451   7.334  0.4593 -0.0868 -0.2575
 2066SOL     OW 7010   7.660   0.549   5.616  0.0650  0.0409  0.7281
 2066SOL    HW1 7011   7.733   0.498   5.653  0.2866  0.2164  0.5337
 2066SOL    HW2 7012   7.632   0.605   5.688  1.1404  1.0927  0.3491
 2067SOL     OW 7013   7.227   4.754   2.402 -0.2507  0.1831 -0.3076
 2067SOL    HW1 7014   7.198   4.692   2.469 -1.7394  1.2760  0.0913
 2067SOL    HW2 7015   7.229   4.839   2.447 -1.4229  0.9642 -1.6740
 2068SOL     OW 7016   5.409   0.520   4.096 -0.0363 -0.0213 -0.0641
 2068SOL    HW1 7017   5.446   0.568   4.022  0.7639  0.4319  0.6123
 2068SOL    HW2 7018   5.449   0.432   4.090  1.2635  0.4912  0.7105
 2069SOL     OW 7019   5.006   2.460   7.516  0.1078 -0.3072 -0.1568
 2069SOL    HW1 7020   5.047   2.487   7.598  0.6376 -2.0741  0.1974
 2069SOL    HW2 7021   5.056   2.504   7.448 -0.4060  1.2593  0.4753
 2070SOL     OW 7022   4.684   7.464   0.999  0.0340 -0.2873  0.2603
 2070SOL    HW1 7023   4.739   7.524   1.049  0.8142  0.0678 -1.0195
 2070SOL    HW2 7024   4.612   7.442   1.059 -1.1968  3.2057  0.1888
 2071SOL     OW 7025   0.503   6.129   2.370 -0.2418 -0.2296 -0.1192
 2071SOL    HW1 7026   0.531   6.188   2.440 -0.0193  1.2617 -1.4363
 2071SOL    HW2 7027   0.416   6.160   2.345  0.7243  0.8833 -2.2333
 2072SOL     OW 7028   1.016   2.477   2.660 -0.2290 -0.1736  0.3585
 2072SOL    HW1 7029   1.079   2.518   2.601  0.2652 -0.3475  0.7566
 2072SOL    HW2 7030   1.035   2.383   2.654 -1.5036 -0.3640 -0.7217
 2073SOL     OW 7031   2.810   4.996   7.885 -0.1704 -0.2260 -0.0804
 2073SOL    HW1 7032   2.860   4.925   7.924 -1.4332 -1.0444  0.0679
 2073SOL    HW2 7033   2.845   5.075   7.927 -0.7694 -0.9982  1.9519
 2074SOL     OW 7034   1.036   4.281   0.354  0.3471 -0.2562 -0.0440
 2074SOL    HW1 7035   0.967   4.336   0.316 -0.2004 -0.6063  0.4349
 2074SOL    HW2 7036   1.036   4.304   0.447 -0.4442 -1.6489  0.3101
 2075SOL     OW 7037   5.154   2.203   5.140  0.3035 -0.1808 -0.0450
 2075SOL    HW1 7038   5.200   2.209   5.056  0.3912  1.4660  0.0971
 2075SOL    HW2 7039   5.214   2.155   5.197  2.8016  3.6677  0.7262
 2076SOL     OW 7040   5.097   0.694   1.816  0.7247  0.5774  0.2200
 2076SOL    HW1 7041   5.184   0.653   1.819  1.5247  2.2914  1.1173
 2076SOL    HW2 7042   5.053   0.661   1.894  0.3951 -0.6391 -0.4670
 2077SOL     OW 7043   7.704   5.327   1.097 -0.0103  0.4276  0.3678
 2077SOL    HW1 7044   7.702   5.406   1.043  1.0236 -0.3759 -0.8528
 2077SOL    HW2 7045   7.786   5.333   1.146  0.4732 -0.2894 -0.3435
 2078SOL     OW 7046   5.860   3.333   1.362  0.4027 -0.3999 -0.1066
 2078SOL    HW1 7047   5.831   3.304   1.449 -0.6383 -1.2178 -0.7234
 2078SOL    HW2 7048   5.895   3.254   1.321  1.7675  0.1884 -0.0808
 2079SOL     OW 7049   1.201   6.554   1.851  0.3509  0.4811  0.0840
 2079SOL    HW1 7050   1.121   6.570   1.803 -1.2257 -2.6169  1.5134
 2079SOL    HW2 7051   1.175   6.555   1.943  1.7041 -1.4974  0.5322
 2080SOL     OW 7052   4.564   4.360   5.041  0.6743 -0.7191  0.3028
 2080SOL    HW1 7053   4.515   4.278   5.039  0.3516 -0.5159 -0.1676
 2080SOL    HW2 7054   4.584   4.379   4.950 -2.6673  1.7405 -0.0408
 2081SOL     OW 7055   3.352   1.537   5.223 -0.3791 -0.3208 -0.2696
 2081SOL    HW1 7056   3.343   1.570   5.313  1.8908 -0.5094  0.0695
 2081SOL    HW2 7057   3.305   1.454   5.223  0.4785 -0.8305  1.0508
 2082SOL     OW 7058   3.091   4.103   6.023  0.4540 -0.0955 -0.1018
 2082SOL    HW1 7059   3.044   4.036   5.974 -1.8714  1.0807  0.4417
 2082SOL    HW2 7060   3.096   4.069   6.112  1.8705 -0.8284 -0.4541
 2083SOL     OW 7061   7.240   1.358   5.629 -0.3262  0.0132  0.4196
 2083SOL    HW1 7062   7.175   1.404   5.682 -1.0183 -0.9002  0.3916
 2083SOL    HW2 7063   7.312   1.340   5.690  0.1216  1.4448  0.3318
 2084SOL     OW 7064   5.423   5.424   6.498  0.8980  0.0068  0.6293
 2084SOL    HW1 7065   5.381   5.510   6.502  1.1172  0.1114  0.6963
 2084SOL    HW2 7066   5.493   5.435   6.434  0.0377 -0.5087 -0.4163
 2085SOL     OW 7067   4.408   1.735   3.702 -0.0120  0.0368 -0.4444
 2085SOL    HW1 7068   4.361   1.709   3.781 -0.4032  0.7079 -0.4547
 2085SOL    HW2 7069   4.385   1.670   3.637 -1.2334  0.5809 -0.5599
 2086SOL     OW 7070   5.984   6.725   4.687 -0.1003 -0.2943 -0.2219
 2086SOL    HW1 7071   5.931   6.673   4.627  0.4272 -0.6732 -0.3611
 2086SOL    HW2 7072   6.019   6.662   4.749  2.1624 -0.4065 -1.5711
 2087SOL     OW 7073   0.749   3.867   6.184  0.1394 -0.4815  0.0873
 2087SOL    HW1 7074   0.676   3.807   6.171  0.3644 -0.7131 -0.1154
 2087SOL    HW2 7075   0.731   3.940   6.125  0.2040 -0.6588 -0.1512
 2088SOL     OW 7076   3.792   0.910   1.853  0.0415 -0.0585  0.3231
 2088SOL    HW1 7077   3.774   0.996   1.816 -2.6664 -0.9837 -0.6664
 2088SOL    HW2 7078   3.785   0.922   1.948  0.7149  0.9940  0.2519
 2089SOL     OW 7079   0.757   5.387   1.890 -0.0870 -0.0781  0.2015
 2089SOL    HW1 7080   0.845   5.414   1.865  0.8278 -2.1937  1.0208
 2089SOL    HW2 7081   0.768   5.344   1.975 -1.9407 -0.1622  0.4223
 2090SOL     OW 7082   3.511   2.305   5.126  0.1578  0.6123  0.0277
 2090SOL    HW1 7083   3.542   2.363   5.056  1.5344  0.5252  0.5538
 2090SOL    HW2 7084   3.457   2.240   5.081 -1.9906  2.6879 -0.4876
 2091SOL     OW 7085   0.561   2.696   4.122  0.4005  0.0145  0.2956
 2091SOL    HW1 7086   0.560   2.663   4.032  0.6304 -0.3919  0.4402
 2091SOL    HW2 7087   0.648   2.734   4.133  0.6263 -0.5758  0.5729
 2092SOL     OW 7088   6.816   6.376   6.072 -0.0584  0.3766  0.2319
 2092SOL    HW1 7089   6.782   6.311   6.134  0.5265  1.3752  1.6241
 2092SOL    HW2 7090   6.738   6.422   6.040 -0.5682 -1.6395 -1.5137
 2093SOL     OW 7091   2.708   4.092   1.086 -0.9757 -0.0102 -0.4823
 2093SOL    HW1 7092   2.736   4.165   1.030  0.5643 -0.8701 -0.8780
 2093SOL    HW2 7093   2.735   4.014   1.038 -0.5484 -0.7863  0.9995
 2094SOL     OW 7094   0.891   7.329   6.437  0.0675 -0.2029 -0.5468
 2094SOL    HW1 7095   0.822   7.277   6.477 -0.7867  1.1825 -0.1769
 2094SOL    HW2 7096   0.945   7.358   6.511 -0.0321  0.2369 -0.6424
 2095SOL     OW 7097   6.416   3.042   6.274 -0.2924  0.4284  0.3682
 2095SOL    HW1 7098   6.445   3.098   6.202  0.0775  1.0073  0.9730
 2095SOL    HW2 7099   6.351   2.984   6.233 -0.0045  0.6730 -0.4605
 2096SOL     OW 7100   2.461   6.673   4.048  0.4224  0.4615  0.1881
 2096SOL    HW1 7101   2.551   6.654   4.021  0.2406  0.5696 -0.4932
 2096SOL    HW2 7102   2.462   6.765   4.074  0.4988  0.4710  0.1515
 2097SOL     OW 7103   7.610   6.220   3.690 -0.5160 -0.2737  0.1059
 2097SOL    HW1 7104   7.650   6.248   3.607  1.3823 -0.2845  0.9851
 2097SOL    HW2 7105   7.616   6.124   3.688  0.5519 -0.2296  0.7260
 2098SOL     OW 7106   0.322   0.403   3.182 -0.7112  0.8865 -0.1062
 2098SOL    HW1 7107   0.281   0.317   3.172 -1.3074  1.4094 -2.3899
 2098SOL    HW2 7108   0.336   0.434   3.093  3.3515  1.3722  0.6190
 2099SOL     OW 7109   3.288   4.847   6.455  0.4430  0.0522  0.0193
 2099SOL    HW1 7110   3.264   4.904   6.528  0.6801 -0.3217  0.3924
 2099SOL    HW2 7111   3.267   4.898   6.377  1.0321  0.8252  0.3495
 2100SOL     OW 7112   5.007   5.410   6.735  0.2325  0.5070  0.7763
 2100SOL    HW1 7113   5.083   5.422   6.792  0.8562  3.1128 -0.5383
 2100SOL    HW2 7114   5.044   5.389   6.649 -0.6150 -0.6013  0.6639
 2101SOL     OW 7115   7.351   6.928   1.587  0.2855  0.1030  0.0377
 2101SOL    HW1 7116   7.377   6.918   1.495 -0.4376  1.4404 -0.3238
 2101SOL    HW2 7117   7.431   6.910   1.637  1.1405  1.1369 -0.9317
 2102SOL     OW 7118   6.886   6.690   1.262 -0.3384 -0.5442  0.6752
 2102SOL    HW1 7119   6.956   6.650   1.313 -0.4563 -1.8494 -0.1376
 2102SOL    HW2 7120   6.807   6.641   1.287 -0.3089 -1.5519 -1.0821
 2103SOL     OW 7121   0.429   5.386   3.301 -0.0763  0.1110  0.4171
 2103SOL    HW1 7122   0.427   5.322   3.372 -0.1787 -1.5430 -1.0567
 2103SOL    HW2 7123   0.339   5.418   3.296 -0.2240 -0.2818  0.5590
 2104SOL     OW 7124   5.604   3.325   0.474  0.2991  0.0352  0.2300
 2104SOL    HW1 7125   5.519   3.357   0.446  1.0177  0.2532 -1.7543
 2104SOL    HW2 7126   5.643   3.398   0.522  0.1579  0.6181 -0.5365
 2105SOL     OW 7127   4.991   5.284   5.918 -1.0247 -0.0823  0.2135
 2105SOL    HW1 7128   5.077   5.324   5.936  0.7277 -2.3966 -2.5795
 2105SOL    HW2 7129   4.976   5.226   5.993 -0.6206  1.0966  1.2199
 2106SOL     OW 7130   2.282   0.217   4.054  0.2352 -0.4147  0.3318
 2106SOL    HW1 7131   2.349   0.151   4.073 -0.1656 -0.2863  2.2486
 2106SOL    HW2 7132   2.330   0.288   4.011  1.0280 -1.0537  0.1513
 2107SOL     OW 7133   4.862   5.558   4.728 -0.0112  0.0034  0.5982
 2107SOL    HW1 7134   4.849   5.653   4.728 -0.2924 -0.0299  0.0748
 2107SOL    HW2 7135   4.923   5.542   4.800  1.3823  0.7820 -0.3558
 2108SOL     OW 7136   2.081   3.107   4.163  0.0520  1.0723  0.0506
 2108SOL    HW1 7137   2.098   3.036   4.225  2.8364  0.0878 -1.7437
 2108SOL    HW2 7138   1.986   3.106   4.152 -0.1480 -1.1247  1.5264
 2109SOL     OW 7139   3.702   6.288   6.623  0.4042 -0.2015 -0.3220
 2109SOL    HW1 7140   3.732   6.367   6.578 -2.1943  1.0482  0.0606
 2109SOL    HW2 7141   3.678   6.228   6.553 -0.5360  0.5225 -0.6352
 2110SOL     OW 7142   7.868   5.950   3.091 -0.2597  0.1808  0.4840
 2110SOL    HW1 7143   7.931   5.881   3.111  1.2636  1.0286 -1.2515
 2110SOL    HW2 7144   7.903   6.028   3.135 -1.0806  0.2470  1.0303
 2111SOL     OW 7145   0.582   0.622   7.542  0.1825  0.5305 -0.4792
 2111SOL    HW1 7146   0.623   0.679   7.607  0.5733 -0.2228 -0.0629
 2111SOL    HW2 7147   0.496   0.601   7.580  0.1128  0.6839 -0.5491
 2112SOL     OW 7148   0.247   0.268   2.335  0.7988 -0.0089 -0.2111
 2112SOL    HW1 7149   0.200   0.198   2.380  2.0770 -1.0045 -0.4160
 2112SOL    HW2 7150   0.322   0.225   2.294  0.1369  1.0194 -2.5962
 2113SOL     OW 7151   1.642   2.489   2.151 -0.2073  0.2972 -0.4422
 2113SOL    HW1 7152   1.646   2.539   2.232  1.9338 -0.5681 -0.0000
 2113SOL    HW2 7153   1.732   2.483   2.121 -0.6806 -1.4713 -1.6041
 2114SOL     OW 7154   1.630   4.615   2.155  0.0667  0.1739 -0.6579
 2114SOL    HW1 7155   1.551   4.668   2.143  0.7726  1.1599 -1.0154
 2114SOL    HW2 7156   1.644   4.574   2.070 -0.8567 -1.1207 -0.1911
 2115SOL     OW 7157   6.365   7.796   7.840  0.1123 -0.3195  0.4231
 2115SOL    HW1 7158   6.308   7.762   7.909  0.2068 -1.4558 -0.0417
 2115SOL    HW2 7159   6.305   7.827   7.772  0.0142  1.1364  1.1605
 2116SOL     OW 7160   1.618   5.511   3.811 -0.0255 -0.0666  0.2608
 2116SOL    HW1 7161   1.684   5.579   3.826 -0.4165  0.1753  0.8862
 2116SOL    HW2 7162   1.585   5.489   3.898  0.7437 -1.7239  0.1670
 2117SOL     OW 7163   6.457   7.376   0.391 -0.0228 -0.0482  0.1644
 2117SOL    HW1 7164   6.485   7.285   0.394 -1.2689 -0.4972 -0.8882
 2117SOL    HW2 7165   6.362   7.371   0.374  0.0281  1.4364 -0.6809
 2118SOL     OW 7166   5.653   0.055   0.442  0.1034 -0.0347 -0.8160
 2118SOL    HW1 7167   5.608   0.113   0.503  0.8495 -0.8862  0.5703
 2118SOL    HW2 7168   5.736   0.098   0.424  0.7388 -0.7424  0.3627
 2119SOL     OW 7169   2.907   5.985   4.139 -0.1923 -0.4006  0.1178
 2119SOL    HW1 7170   2.996   5.978   4.104  0.3955 -0.4380  1.6048
 2119SOL    HW2 7171   2.919   6.006   4.232 -1.7345 -0.4157  0.3297
 2120SOL     OW 7172   7.720   5.073   0.003  0.1534  0.5540  0.0394
 2120SOL    HW1 7173   7.679   5.159  -0.010  0.8455  1.1608  1.8558
 2120SOL    HW2 7174   7.731   5.065   0.097  0.1726 -1.5121 -0.1145
 2121SOL     OW 7175   0.550   0.729   4.844  0.1088 -0.6699 -0.1039
 2121SOL    HW1 7176   0.526   0.743   4.752  0.8573 -0.0416 -0.2095
 2121SOL    HW2 7177   0.542   0.815   4.884  1.7891 -0.5218 -0.0534
 2122SOL     OW 7178   1.151   6.987   1.531  0.3808 -0.0404  0.5402
 2122SOL    HW1 7179   1.066   7.022   1.557  0.3286 -0.0719  0.4138
 2122SOL    HW2 7180   1.134   6.942   1.448  0.6855  0.6686  0.0936
 2123SOL     OW 7181   6.893   1.211   6.103 -0.1757 -0.7352 -0.0879
 2123SOL    HW1 7182   6.838   1.289   6.092 -1.4952 -1.5735  0.5110
 2123SOL    HW2 7183   6.959   1.238   6.168 -1.1835 -0.4141  0.8062
 2124SOL     OW 7184   7.131   2.533   5.209  0.0489  0.4612 -0.1778
 2124SOL    HW1 7185   7.203   2.592   5.189 -1.1131  1.6593 -0.9274
 2124SOL    HW2 7186   7.141   2.461   5.146  1.0664  0.1932  0.2805
 2125SOL     OW 7187   0.967   3.120   4.845 -0.2450  0.2337  0.3758
 2125SOL    HW1 7188   0.999   3.127   4.935 -1.3564  1.6881  0.6806
 2125SOL    HW2 7189   0.957   3.211   4.815 -2.0990 -0.1786 -0.3917
 2126SOL     OW 7190   2.385   5.355   3.989 -1.3125  0.3174 -0.1407
 2126SOL    HW1 7191   2.323   5.310   4.047  0.1461 -1.0693  0.3781
 2126SOL    HW2 7192   2.437   5.285   3.950  2.0159  1.5552  1.8343
 2127SOL     OW 7193   5.096   3.241   5.812  0.3484  0.3642 -0.2368
 2127SOL    HW1 7194   5.119   3.287   5.731  0.7780  1.5051  0.5001
 2127SOL    HW2 7195   5.001   3.236   5.812  0.4453 -2.1040 -2.1094
 2128SOL     OW 7196   7.198   2.721   7.643 -0.5979  0.0005 -0.5163
 2128SOL    HW1 7197   7.107   2.716   7.670 -0.0299 -1.4921  1.2447
 2128SOL    HW2 7198   7.197   2.694   7.551 -1.9480  0.2340 -0.5830
 2129SOL     OW 7199   7.501   2.713   4.894  0.2997  0.2185  0.1185
 2129SOL    HW1 7200   7.430   2.765   4.856  1.7202  0.3599 -2.4373
 2129SOL    HW2 7201   7.563   2.778   4.928 -0.4360  0.0964  1.7788
 2130SOL     OW 7202   5.106   4.571   5.793  0.4059  1.0604  0.2843
 2130SOL    HW1 7203   5.060   4.642   5.749 -1.3088 -1.5743 -2.3673
 2130SOL    HW2 7204   5.188   4.562   5.744  0.2162  0.6274  0.0471
 2131SOL     OW 7205   4.407   4.999   4.748  0.1449  0.5352  0.0812
 2131SOL    HW1 7206   4.493   4.958   4.762  0.9531  2.1615 -0.0122
 2131SOL    HW2 7207   4.351   4.962   4.816  1.1649  0.1346  0.7059
 2132SOL     OW 7208   4.736   0.839   0.543  0.8975  0.3572 -0.4423
 2132SOL    HW1 7209   4.748   0.896   0.619  0.4414 -1.1849  0.8120
 2132SOL    HW2 7210   4.654   0.792   0.561  0.7914 -0.0469 -1.8800
 2133SOL     OW 7211   6.312   5.082   4.308 -0.2410  0.0591  0.0314
 2133SOL    HW1 7212   6.318   5.010   4.245 -1.8355  0.7994 -0.9808
 2133SOL    HW2 7213   6.402   5.095   4.337  0.2616 -1.4485 -0.7973
 2134SOL     OW 7214   4.611   5.915   0.777  0.0284  0.1492 -0.3719
 2134SOL    HW1 7215   4.670   5.842   0.794  0.3379  0.2747 -0.9093
 2134SOL    HW2 7216   4.623   5.936   0.684 -0.5527  0.4444 -0.3880
 2135SOL     OW 7217   5.117   7.170   2.011 -0.2197 -0.0541 -0.0072
 2135SOL    HW1 7218   5.091   7.115   1.938 -0.3150  0.1067 -0.0953
 2135SOL    HW2 7219   5.211   7.155   2.022 -0.1596  0.1027 -0.3150
 2136SOL     OW 7220   4.276   3.113   5.414 -0.1153  0.2318  0.5770
 2136SOL    HW1 7221   4.317   3.188   5.457  2.2826 -1.0131  0.5514
 2136SOL    HW2 7222   4.278   3.135   5.321  2.2810 -0.6013  0.3906
 2137SOL     OW 7223   5.375   0.533   2.084  0.3336  0.5720  0.6377
 2137SOL    HW1 7224   5.375   0.606   2.022  2.2832  0.7742  0.8331
 2137SOL    HW2 7225   5.434   0.468   2.045  0.6479  0.1973  1.7192
 2138SOL     OW 7226   1.940   3.470   2.592 -0.3972  0.1658  0.2356
 2138SOL    HW1 7227   1.947   3.377   2.570  0.9223  0.1818  0.5187
 2138SOL    HW2 7228   1.995   3.514   2.527  0.4079  0.5772  1.1880
 2139SOL     OW 7229   0.959   0.138   0.438 -0.2473  0.1124 -0.0979
 2139SOL    HW1 7230   0.887   0.188   0.475  0.0114  0.7059 -0.3954
 2139SOL    HW2 7231   1.030   0.147   0.502 -0.7337 -1.2603  0.6628
 2140SOL     OW 7232   2.477   3.526   4.896  0.0932 -0.2582 -0.1576
 2140SOL    HW1 7233   2.435   3.579   4.828  0.1174  1.0639  0.8377
 2140SOL    HW2 7234   2.404   3.487   4.945  0.0657 -0.3763 -0.2911
 2141SOL     OW 7235   4.541   7.124   4.240  0.4654  0.0547  0.4295
 2141SOL    HW1 7236   4.474   7.173   4.285 -1.1062 -0.6106 -1.1248
 2141SOL    HW2 7237   4.509   7.034   4.239  1.6985 -0.4030  0.2699
 2142SOL     OW 7238   3.487   4.736   2.325 -0.1796 -0.4961 -0.7042
 2142SOL    HW1 7239   3.510   4.826   2.347  0.1351 -0.4099 -1.3683
 2142SOL    HW2 7240   3.570   4.693   2.307 -0.1848 -1.4330  1.4568
 2143SOL     OW 7241   4.830   7.283   1.442 -0.0604  0.5345  0.3145
 2143SOL    HW1 7242   4.810   7.355   1.382 -0.3961  0.3579  0.2140
 2143SOL    HW2 7243   4.915   7.250   1.412 -0.0822  0.6437  0.1307
 2144SOL     OW 7244   4.258   3.361   2.510  0.5269  0.1312 -0.6503
 2144SOL    HW1 7245   4.168   3.383   2.487 -0.1465 -0.8929  0.9329
 2144SOL    HW2 7246   4.282   3.426   2.576  0.9590  0.4087 -1.0775
 2145SOL     OW 7247   7.569   5.960   2.207 -0.3291  0.0178  0.1477
 2145SOL    HW1 7248   7.617   5.929   2.130 -1.2749 -1.1428  0.0070
 2145SOL    HW2 7249   7.625   5.937   2.281  0.9723  1.8717 -0.2004
 2146SOL     OW 7250   0.403   3.407   5.422 -0.0694 -0.3524  0.2178
 2146SOL    HW1 7251   0.495   3.385   5.406  0.2909  1.5826 -0.5142
 2146SOL    HW2 7252   0.406   3.489   5.472 -1.4021 -0.4519  0.4865
 2147SOL     OW 7253   0.466   1.791   4.378  0.5240 -0.5271  0.0927
 2147SOL    HW1 7254   0.395   1.727   4.382  1.6626 -1.7494  1.3969
 2147SOL    HW2 7255   0.453   1.845   4.456  0.5830 -0.2730 -0.0733
 2148SOL     OW 7256   6.876   2.322   3.857  0.0805  0.2711 -0.4968
 2148SOL    HW1 7257   6.915   2.247   3.901 -1.3119 -0.7616 -0.9786
 2148SOL    HW2 7258   6.929   2.397   3.885  1.4479 -0.8767  0.0241
 2149SOL     OW 7259   0.500   0.655   7.899  0.0205 -0.4077  0.8982
 2149SOL    HW1 7260   0.572   0.594   7.879  0.7258  0.2268  1.4681
 2149SOL    HW2 7261   0.527   0.738   7.859 -0.3437 -0.1379  1.2058
 2150SOL     OW 7262   7.710   2.200   3.904 -0.5957  0.5417 -0.0571
 2150SOL    HW1 7263   7.651   2.228   3.835 -1.2222  1.1303  0.7072
 2150SOL    HW2 7264   7.664   2.128   3.948 -1.2234  1.7029  1.2154
 2151SOL     OW 7265   0.194   4.920   7.323  0.2933 -0.1410  0.0699
 2151SOL    HW1 7266   0.237   4.985   7.379  0.2204  0.6835 -0.8096
 2151SOL    HW2 7267   0.141   4.868   7.383  2.4710 -1.1559  1.1869
 2152SOL     OW 7268   5.642   1.379   7.323  0.4537 -0.2572  0.1333
 2152SOL    HW1 7269   5.555   1.341   7.340  1.2485 -1.9522  0.5337
 2152SOL    HW2 7270   5.639   1.464   7.367 -0.3153 -1.1650  1.9036
 2153SOL     OW 7271   5.827   1.590   5.873  0.1930 -0.1596  0.2268
 2153SOL    HW1 7272   5.733   1.582   5.886 -0.2796 -0.0126 -2.8156
 2153SOL    HW2 7273   5.860   1.500   5.882 -0.6453 -0.6571 -1.3462
 2154SOL     OW 7274   3.540   7.564   4.059  0.5330 -0.0200  0.1604
 2154SOL    HW1 7275   3.627   7.543   4.023  0.3869 -0.8204  0.2547
 2154SOL    HW2 7276   3.487   7.487   4.039 -0.4082  0.8356 -0.6933
 2155SOL     OW 7277   6.430   6.918   4.250 -0.0729 -0.1019  0.0440
 2155SOL    HW1 7278   6.381   6.838   4.269  2.0117 -1.0073  1.7169
 2155SOL    HW2 7279   6.430   6.967   4.331 -2.8039  2.4688 -1.4294
 2156SOL     OW 7280   3.846   2.344   6.425 -0.3505 -0.5002 -0.0002
 2156SOL    HW1 7281   3.760   2.356   6.384  1.0498 -0.2159 -3.0128
 2156SOL    HW2 7282   3.862   2.250   6.420  0.1721 -0.3710 -0.9026
 2157SOL     OW 7283   0.223   3.543   7.723  0.3317 -0.1662  0.6642
 2157SOL    HW1 7284   0.174   3.492   7.660  0.2897 -0.6710  1.1084
 2157SOL    HW2 7285   0.312   3.546   7.688  0.0081  0.7192 -0.1202
 2158SOL     OW 7286   5.406   0.838   1.213 -0.0980  0.2741  0.1501
 2158SOL    HW1 7287   5.368   0.751   1.199 -1.7557  0.4177  3.3391
 2158SOL    HW2 7288   5.498   0.828   1.188 -0.4475 -2.1664 -0.2975
 2159SOL     OW 7289   6.841   1.626   3.324  0.7381  0.1825 -0.2042
 2159SOL    HW1 7290   6.807   1.711   3.295  1.4954 -0.3265 -2.6963
 2159SOL    HW2 7291   6.885   1.645   3.407  0.8014  2.1912 -0.6778
 2160SOL     OW 7292   3.062   2.591   2.497 -0.2839 -0.2403  0.3647
 2160SOL    HW1 7293   2.975   2.598   2.458  0.2098 -0.3266 -0.7924
 2160SOL    HW2 7294   3.082   2.498   2.493  0.4042 -0.0649 -0.6369
 2161SOL     OW 7295   6.521   2.857   4.950  0.1180  0.4870 -0.0358
 2161SOL    HW1 7296   6.533   2.863   4.855  0.4673  0.0513 -0.0201
 2161SOL    HW2 7297   6.606   2.827   4.983  0.4870  2.1575  0.5701
 2162SOL     OW 7298   7.596   2.237   3.639 -0.0828  0.1373  0.1606
 2162SOL    HW1 7299   7.636   2.316   3.602 -0.4945 -0.2021 -1.0311
 2162SOL    HW2 7300   7.502   2.248   3.623 -0.2041 -0.3163  0.5399
 2163SOL     OW 7301   2.871   5.121   1.296  0.4527  0.3462 -0.0738
 2163SOL    HW1 7302   2.896   5.042   1.248  2.0323  1.0934 -0.5209
 2163SOL    HW2 7303   2.834   5.179   1.230  1.3698  0.8380 -0.1784
 2164SOL     OW 7304   6.688   0.576   6.353 -0.0405 -0.0078  0.3711
 2164SOL    HW1 7305   6.657   0.647   6.410  1.0644  2.2416 -1.7102
 2164SOL    HW2 7306   6.736   0.621   6.284 -0.9782 -2.6597 -2.1157
 2165SOL     OW 7307   3.316   6.462   7.985  0.4995 -0.3385 -0.0831
 2165SOL    HW1 7308   3.378   6.509   8.039  0.4058 -0.8772  0.5007
 2165SOL    HW2 7309   3.305   6.377   8.029 -0.0656 -0.5320 -0.5874
 2166SOL     OW 7310   3.007   3.134   6.579  0.1885 -0.2438 -0.7170
 2166SOL    HW1 7311   3.090   3.087   6.576  0.6589  0.5787 -0.6560
 2166SOL    HW2 7312   2.946   3.071   6.617  0.5872 -1.1354 -1.5474
 2167SOL     OW 7313   6.345   7.088   7.363 -0.3826 -0.0244 -0.3289
 2167SOL    HW1 7314   6.380   7.010   7.320  0.9273  0.1194  0.4683
 2167SOL    HW2 7315   6.254   7.066   7.381 -0.3571 -0.9045 -1.2070
 2168SOL     OW 7316   2.731   2.050   0.778 -0.0165 -0.0611 -0.2254
 2168SOL    HW1 7317   2.817   2.020   0.750 -0.0144 -0.5242  0.2643
 2168SOL    HW2 7318   2.699   1.981   0.836 -0.5750  0.2656 -0.1359
 2169SOL     OW 7319   7.171   6.726   3.955  0.3270 -0.0980  0.2784
 2169SOL    HW1 7320   7.135   6.733   3.867  1.6820  1.6908 -0.1661
 2169SOL    HW2 7321   7.247   6.669   3.946 -0.6653 -1.5170  0.6812
 2170SOL     OW 7322   0.453   1.063   6.656  0.5387  0.0496  0.0378
 2170SOL    HW1 7323   0.375   1.007   6.660  0.6234 -0.2173 -1.5333
 2170SOL    HW2 7324   0.510   1.019   6.592  2.1143  0.0828  1.3927
 2171SOL     OW 7325   0.995   5.986   7.071 -0.5323  0.2949 -0.1429
 2171SOL    HW1 7326   0.962   6.074   7.088  1.9691  0.8722  1.8949
 2171SOL    HW2 7327   0.959   5.933   7.142  0.7435  0.4099  0.6123
 2172SOL     OW 7328   5.798   3.790   5.232 -0.4477 -0.4154 -0.7222
 2172SOL    HW1 7329   5.720   3.803   5.285  0.4097  1.5564  0.1006
 2172SOL    HW2 7330   5.795   3.860   5.167 -0.0131 -1.1043 -1.4951
 2173SOL     OW 7331   5.494   2.242   0.853 -0.2389 -0.2524  0.1841
 2173SOL    HW1 7332   5.440   2.321   0.852 -0.4118 -0.3662  0.4382
 2173SOL    HW2 7333   5.431   2.169   0.854 -0.0870 -0.3843  0.5184
 2174SOL     OW 7334   7.374   2.950   7.652  0.4703 -0.0696  0.4860
 2174SOL    HW1 7335   7.291   2.902   7.641  0.3686  0.3888 -0.7724
 2174SOL    HW2 7336   7.434   2.885   7.690 -0.1478 -0.7112  0.3810
 2175SOL     OW 7337   4.744   0.069   6.936  0.0086  0.5863  0.3788
 2175SOL    HW1 7338   4.731   0.006   6.865 -1.3112  1.1947  0.0630
 2175SOL    HW2 7339   4.743   0.154   6.892 -0.1773  0.9298  1.0476
 2176SOL     OW 7340   4.765   3.583   4.099  0.4350  0.7751  0.1095
 2176SOL    HW1 7341   4.730   3.494   4.089  0.5997  0.6971  0.2143
 2176SOL    HW2 7342   4.739   3.628   4.019  1.5141  0.2445 -0.5578
 2177SOL     OW 7343   4.683   4.312   5.538 -0.3392 -0.3585  0.7528
 2177SOL    HW1 7344   4.617   4.328   5.469 -0.5600 -0.3481  0.9651
 2177SOL    HW2 7345   4.694   4.397   5.581  1.3851  0.1602 -0.6470
 2178SOL     OW 7346   6.863   7.280   6.016 -0.5522  0.1315 -0.4594
 2178SOL    HW1 7347   6.853   7.236   5.932  1.2762  0.6025 -0.9458
 2178SOL    HW2 7348   6.956   7.275   6.035 -0.9084  0.2630  1.4290
 2179SOL     OW 7349   2.878   3.503   0.278 -0.3212 -0.1022 -0.5556
 2179SOL    HW1 7350   2.872   3.597   0.260  1.2924 -0.0046 -0.6646
 2179SOL    HW2 7351   2.951   3.473   0.222 -1.1610 -1.5138 -0.9215
 2180SOL     OW 7352   3.608   6.777   6.523 -0.1280  0.2213  0.1192
 2180SOL    HW1 7353   3.564   6.766   6.439 -0.7902  1.7871  0.2553
 2180SOL    HW2 7354   3.589   6.867   6.549  0.0096 -0.2641  1.9825
 2181SOL     OW 7355   7.393   2.576   6.479 -0.1623  0.2986 -0.2335
 2181SOL    HW1 7356   7.377   2.657   6.527 -0.2742  1.2143 -1.7544
 2181SOL    HW2 7357   7.488   2.566   6.481 -0.1743  0.2685  0.2753
 2182SOL     OW 7358   1.100   6.850   0.966  0.2281 -0.1366  0.3236
 2182SOL    HW1 7359   1.013   6.850   0.925 -0.0320  1.5124  0.8495
 2182SOL    HW2 7360   1.140   6.768   0.937 -1.0461 -0.3437 -0.9023
 2183SOL     OW 7361   4.099   2.856   7.656 -0.0519 -0.2996  0.8281
 2183SOL    HW1 7362   4.193   2.840   7.650  0.1711  1.5359 -1.4832
 2183SOL    HW2 7363   4.065   2.827   7.572 -1.2462  0.8836  0.8861
 2184SOL     OW 7364   7.469   1.531   1.621 -0.0249 -0.0902 -0.5136
 2184SOL    HW1 7365   7.524   1.502   1.548  0.6201 -0.2288  0.0311
 2184SOL    HW2 7366   7.386   1.484   1.608 -0.2584  0.6077 -1.6983
 2185SOL     OW 7367   4.885   5.421   5.110  0.6743 -0.5729 -0.0536
 2185SOL    HW1 7368   4.943   5.445   5.037 -0.3637 -1.5828 -1.2462
 2185SOL    HW2 7369   4.797   5.435   5.075  0.1627 -1.3639  0.9168
 2186SOL     OW 7370   4.304   1.935   2.275 -0.0858 -0.0675 -0.1578
 2186SOL    HW1 7371   4.244   1.867   2.243  0.6554 -1.0832  0.5695
 2186SOL    HW2 7372   4.247   2.008   2.298 -0.6512  0.7020 -3.7309
 2187SOL     OW 7373   1.422   3.680   3.242 -0.4547 -0.5060 -0.4034
 2187SOL    HW1 7374   1.428   3.627   3.163  0.8095 -0.9748 -0.0097
 2187SOL    HW2 7375   1.512   3.688   3.273 -1.1505 -2.1960  2.2311
 2188SOL     OW 7376   7.663   7.014   6.048  0.0794  0.0420 -0.3722
 2188SOL    HW1 7377   7.752   7.021   6.081  0.3946 -1.9472 -0.7664
 2188SOL    HW2 7378   7.636   7.105   6.032  1.6954  0.7013  0.6091
 2189SOL     OW 7379   2.494   6.307   6.923 -0.4714  0.3463 -0.1165
 2189SOL    HW1 7380   2.559   6.349   6.866  1.2399 -1.9635  0.0795
 2189SOL    HW2 7381   2.531   6.318   7.012 -0.2280 -1.1628 -0.0274
 2190SOL     OW 7382   5.899   0.997   7.145  0.7399 -0.4879  0.3649
 2190SOL    HW1 7383   5.941   0.911   7.150 -1.7330 -1.8914 -1.5694
 2190SOL    HW2 7384   5.969   1.057   7.118  2.3471 -1.9916  1.1141
 2191SOL     OW 7385   7.330   5.901   1.145  0.6997  0.4317  0.5838
 2191SOL    HW1 7386   7.354   5.990   1.120 -3.2774  2.3052  2.8189
 2191SOL    HW2 7387   7.360   5.892   1.236  1.4271 -0.6526  0.2458
 2192SOL     OW 7388   6.822   5.551   6.436  0.0683  0.0934  0.4020
 2192SOL    HW1 7389   6.733   5.587   6.428 -0.4187 -0.7613  1.7622
 2192SOL    HW2 7390   6.854   5.586   6.519  0.2199 -1.2862  0.9242
 2193SOL     OW 7391   7.203   6.049   1.952 -0.1969 -0.1665 -0.3069
 2193SOL    HW1 7392   7.267   5.985   1.982  0.0998  0.1031 -0.3645
 2193SOL    HW2 7393   7.132   5.996   1.915 -1.7439 -0.5942  3.1682
 2194SOL     OW 7394   0.159   0.700   6.471  0.5417  0.2176  0.3001
 2194SOL    HW1 7395   0.237   0.646   6.486 -1.7031 -2.7043  2.0372
 2194SOL    HW2 7396   0.169   0.732   6.381  1.7111 -3.6309 -1.0276
 2195SOL     OW 7397   0.449   3.963   1.038  0.0624  0.5276 -0.1225
 2195SOL    HW1 7398   0.489   4.050   1.031 -0.4242  0.7534 -0.1250
 2195SOL    HW2 7399   0.475   3.918   0.958 -0.1906  0.8901 -0.4139
 2196SOL     OW 7400   3.917   2.970   6.313 -0.1825  0.4228  0.2603
 2196SOL    HW1 7401   3.940   2.890   6.359  0.9834  0.6966  0.1711
 2196SOL    HW2 7402   4.001   3.013   6.297 -0.6835  0.9552 -0.9642
 2197SOL     OW 7403   5.744   0.586   2.197  0.6344  0.0265  0.1382
 2197SOL    HW1 7404   5.780   0.546   2.118  0.5540  1.5739 -0.7161
 2197SOL    HW2 7405   5.702   0.666   2.166 -0.5501 -0.0061  1.5850
 2198SOL     OW 7406   6.245   3.120   4.772  0.3265  0.5416 -0.4623
 2198SOL    HW1 7407   6.273   3.075   4.692  1.0204  1.2970 -0.6609
 2198SOL    HW2 7408   6.315   3.184   4.789  0.4989 -0.0203  1.0864
 2199SOL     OW 7409   1.381   4.582   3.822  0.8251 -0.1064  1.1582
 2199SOL    HW1 7410   1.390   4.600   3.729  0.3433  0.3261  1.1929
 2199SOL    HW2 7411   1.348   4.492   3.826  1.7868 -0.4744  0.9426
 2200SOL     OW 7412   4.185   2.425   1.682  0.1934  0.8781 -0.0797
 2200SOL    HW1 7413   4.192   2.342   1.636  1.3203  0.8369  0.1459
 2200SOL    HW2 7414   4.100   2.461   1.655 -0.7511 -0.8021  0.6284
 2201SOL     OW 7415   2.008   0.353   4.980  0.5313 -0.5730  0.1832
 2201SOL    HW1 7416   2.062   0.283   5.016  1.8018 -0.7495 -1.9623
 2201SOL    HW2 7417   2.037   0.432   5.026  1.0572 -1.0301  0.6365
 2202SOL     OW 7418   3.491   5.421   4.029  0.2792 -0.4728 -0.1655
 2202SOL    HW1 7419   3.556   5.368   4.076  0.7368 -0.0915 -0.3548
 2202SOL    HW2 7420   3.543   5.492   3.989 -0.2610 -0.1500 -0.2973
 2203SOL     OW 7421   7.045   7.264   3.811 -0.1119  0.2123  0.0078
 2203SOL    HW1 7422   6.950   7.269   3.803 -0.0495  0.7410 -0.4260
 2203SOL    HW2 7423   7.069   7.189   3.756 -0.2389  0.3318 -0.2134
 2204SOL     OW 7424   6.603   0.131   5.942  0.2362 -0.2030 -0.1982
 2204SOL    HW1 7425   6.593   0.133   5.847  0.8957  0.5546 -0.2570
 2204SOL    HW2 7426   6.515   0.113   5.975  0.1992 -1.4907 -0.9788
 2205SOL     OW 7427   1.903   7.426   5.537  0.0452  0.3785 -0.3168
 2205SOL    HW1 7428   1.965   7.499   5.530  1.5032 -0.6661  1.3553
 2205SOL    HW2 7429   1.943   7.355   5.487 -1.0612  0.4706 -1.3843
 2206SOL     OW 7430   1.938   7.994   5.869  0.5604 -0.5173  0.8662
 2206SOL    HW1 7431   1.983   7.932   5.812 -0.5242 -0.3627 -0.1904
 2206SOL    HW2 7432   1.863   7.945   5.903  0.1679 -0.0536  0.6817
 2207SOL     OW 7433   4.020   3.740   3.063  0.0306  0.4261 -0.0003
 2207SOL    HW1 7434   3.936   3.786   3.056  0.0881  0.3378 -1.2467
 2207SOL    HW2 7435   4.059   3.747   2.976  0.5824 -0.9499  0.1358
 2208SOL     OW 7436   4.201   0.813   3.390 -0.2523 -0.0488  0.0383
 2208SOL    HW1 7437   4.218   0.813   3.485 -0.7482 -1.8052  0.1396
 2208SOL    HW2 7438   4.162   0.899   3.374  0.4479  0.5401  1.3035
 2209SOL     OW 7439   1.085   6.245   7.650  0.2818 -0.0349 -0.0775
 2209SOL    HW1 7440   1.137   6.191   7.710 -0.1026 -0.2465  0.0701
 2209SOL    HW2 7441   1.028   6.296   7.708 -0.2015 -0.3527 -0.2693
 2210SOL     OW 7442   4.643   1.880   6.435 -0.0632  0.2023 -0.0073
 2210SOL    HW1 7443   4.550   1.896   6.448 -0.3079 -1.8788  1.0204
 2210SOL    HW2 7444   4.653   1.867   6.341 -0.8501  0.2654 -0.0990
 2211SOL     OW 7445   2.758   4.936   1.476 -0.2019 -0.3387  0.0195
 2211SOL    HW1 7446   2.841   4.899   1.505 -0.4182 -0.0286  1.0509
 2211SOL    HW2 7447   2.783   5.014   1.426  0.1010  0.3444  1.2090
 2212SOL     OW 7448   0.389   1.466   1.275 -0.4632 -0.2226 -0.1495
 2212SOL    HW1 7449   0.359   1.504   1.192 -0.3980  1.9108  0.7589
 2212SOL    HW2 7450   0.484   1.469   1.270 -0.4575 -0.2954 -0.0864
 2213SOL     OW 7451   3.055   6.897   4.318 -0.3295  0.2294 -0.5977
 2213SOL    HW1 7452   3.112   6.971   4.297  1.0127 -0.9364 -1.2084
 2213SOL    HW2 7453   3.008   6.923   4.397  1.0450  1.2437 -0.1063
 2214SOL     OW 7454   6.487   5.341   2.820 -0.1374 -0.1552  0.1232
 2214SOL    HW1 7455   6.442   5.356   2.903 -2.4590  0.4047 -1.1742
 2214SOL    HW2 7456   6.451   5.258   2.788 -0.1728  0.2319 -0.8726
 2215SOL     OW 7457   3.589   4.226   1.465 -0.0065  0.2325 -0.1048
 2215SOL    HW1 7458   3.600   4.173   1.386 -0.4825 -0.7855  0.5049
 2215SOL    HW2 7459   3.545   4.306   1.435  2.5081  1.2037 -1.3706
 2216SOL     OW 7460   3.135   5.122   4.438 -0.3712  0.0535  0.0656
 2216SOL    HW1 7461   3.168   5.070   4.511 -1.8022 -0.6040  0.2636
 2216SOL    HW2 7462   3.095   5.199   4.480 -0.8167 -0.1160 -0.0448
 2217SOL     OW 7463   2.634   4.064   4.579 -0.1997  0.2491  0.3673
 2217SOL    HW1 7464   2.610   3.971   4.572  1.1037 -0.0504 -0.3614
 2217SOL    HW2 7465   2.706   4.075   4.517 -1.6349  2.2221 -1.0154
 2218SOL     OW 7466   7.407   5.310   6.887  0.1429 -0.7608  0.4048
 2218SOL    HW1 7467   7.430   5.354   6.805  1.2754 -0.2055  1.0140
 2218SOL    HW2 7468   7.330   5.358   6.918 -0.3338 -1.0154 -0.3497
 2219SOL     OW 7469   0.073   2.812   4.460  0.1708  0.1608  0.2594
 2219SOL    HW1 7470  -0.009   2.856   4.481 -0.8514 -1.6204  0.0760
 2219SOL    HW2 7471   0.074   2.734   4.516  1.9875  0.4440  0.6468
 2220SOL     OW 7472   6.324   2.071   1.652 -0.3347  0.2178 -0.3852
 2220SOL    HW1 7473   6.241   2.040   1.616 -0.0939 -1.3450  0.3332
 2220SOL    HW2 7474   6.315   2.057   1.747 -0.4095  2.8725  0.0285
 2221SOL     OW 7475   7.921   0.594   7.913  0.0421  0.0544 -0.3642
 2221SOL    HW1 7476   7.952   0.592   8.003  0.9382  3.1958 -0.5238
 2221SOL    HW2 7477   7.829   0.570   7.917 -0.7878  3.2992  1.8662
 2222SOL     OW 7478   0.864   6.758   7.690  0.0589 -0.2301 -0.1925
 2222SOL    HW1 7479   0.821   6.813   7.755  1.3810 -0.6704  1.0747
 2222SOL    HW2 7480   0.905   6.687   7.741  1.1398 -0.5578 -1.4794
 2223SOL     OW 7481   3.767   2.771   6.498  0.2964  0.0565  0.3533
 2223SOL    HW1 7482   3.859   2.763   6.473 -0.0513  0.3007 -1.0117
 2223SOL    HW2 7483   3.721   2.788   6.416 -1.2056 -1.9247  0.7472
 2224SOL     OW 7484   3.123   2.648   4.873 -0.1763 -0.3545  0.3162
 2224SOL    HW1 7485   3.133   2.742   4.890  1.4675 -0.6009  0.8428
 2224SOL    HW2 7486   3.116   2.609   4.960  0.6976 -0.8583  0.1709
 2225SOL     OW 7487   1.286   2.934   4.867 -0.2834 -0.6215  0.5485
 2225SOL    HW1 7488   1.267   2.978   4.785 -0.0562  0.4681  1.0800
 2225SOL    HW2 7489   1.300   3.004   4.930 -0.8719 -1.4432  1.6219
 2226SOL     OW 7490   1.876   0.916   4.900 -0.0705  0.0630 -0.0263
 2226SOL    HW1 7491   1.803   0.956   4.948  0.4336 -0.1793  0.9729
 2226SOL    HW2 7492   1.859   0.822   4.905 -0.2882  0.0610 -0.7797
 2227SOL     OW 7493   4.302   2.687   0.296 -0.0167  0.4072  0.4636
 2227SOL    HW1 7494   4.312   2.749   0.224 -1.1582  0.3919  0.2852
 2227SOL    HW2 7495   4.207   2.675   0.304  0.1408 -0.1672  1.4736
 2228SOL     OW 7496   6.303   2.297   7.789 -0.3346  0.5117 -0.6725
 2228SOL    HW1 7497   6.267   2.352   7.720 -0.3968 -0.3247 -1.3133
 2228SOL    HW2 7498   6.347   2.358   7.848 -3.7347  1.7165  0.7359
 2229SOL     OW 7499   0.132   0.026   0.036  0.6495 -0.0976 -0.5824
 2229SOL    HW1 7500   0.121  -0.066   0.008 -1.1918 -0.8055  2.2872
 2229SOL    HW2 7501   0.222   0.031   0.069  0.6958 -0.9235 -0.5750
 2230SOL     OW 7502   5.626   3.510   3.556  0.0564 -0.0581  0.2312
 2230SOL    HW1 7503   5.657   3.542   3.471 -0.4098  0.2787  0.1871
 2230SOL    HW2 7504   5.531   3.518   3.551  0.1145  1.4154  1.3810
 2231SOL     OW 7505   5.760   3.757   6.909  0.0166 -0.3204  0.0010
 2231SOL    HW1 7506   5.709   3.691   6.955 -1.6197  0.7856 -0.1956
 2231SOL    HW2 7507   5.851   3.732   6.925 -0.5417 -1.0693  2.1719
 2232SOL     OW 7508   6.930   6.181   6.972 -0.5379  0.2434  0.0870
 2232SOL    HW1 7509   6.949   6.120   7.044  1.9094  1.2656  0.3689
 2232SOL    HW2 7510   6.846   6.220   6.995 -0.2320 -0.1164  1.9297
 2233SOL     OW 7511   1.285   2.711   3.243  0.4459 -0.3080 -0.1121
 2233SOL    HW1 7512   1.338   2.736   3.318  1.4430 -2.3035 -0.1167
 2233SOL    HW2 7513   1.297   2.782   3.180  3.8492 -1.1147 -0.4614
 2234SOL     OW 7514   2.632   6.079   4.810  0.1186 -0.1447 -0.7232
 2234SOL    HW1 7515   2.545   6.110   4.835 -1.2956 -3.1269 -1.6101
 2234SOL    HW2 7516   2.663   6.030   4.886  1.4495  1.6873 -0.0665
 2235SOL     OW 7517   3.748   2.340   7.383  0.7066  0.0504 -0.4652
 2235SOL    HW1 7518   3.835   2.381   7.377  1.0133 -0.3996  0.6666
 2235SOL    HW2 7519   3.687   2.413   7.374  1.2137  0.4344 -0.8235
 2236SOL     OW 7520   5.012   3.891   3.160  0.7295 -0.6134 -0.1120
 2236SOL    HW1 7521   4.966   3.844   3.230 -1.7762 -1.3487 -2.1837
 2236SOL    HW2 7522   5.024   3.979   3.195 -0.9564 -0.8209  1.0685
 2237SOL     OW 7523   6.769   4.500   2.376 -0.0875 -0.2040 -0.2120
 2237SOL    HW1 7524   6.776   4.419   2.426  1.9320 -0.2001 -0.4331
 2237SOL    HW2 7525   6.750   4.567   2.442 -0.0069 -0.5911  0.2084
 2238SOL     OW 7526   7.783   7.436   7.643 -0.0899 -0.0113 -0.1957
 2238SOL    HW1 7527   7.774   7.531   7.632 -1.4952  0.1705  2.2456
 2238SOL    HW2 7528   7.698   7.401   7.616  0.9082 -0.7368 -2.4889
 2239SOL     OW 7529   7.167   3.837   6.810 -0.1402 -0.1748 -0.0302
 2239SOL    HW1 7530   7.256   3.803   6.818  0.3626  0.9668 -0.5496
 2239SOL    HW2 7531   7.157   3.855   6.717 -0.6921  0.2950  0.1174
 2240SOL     OW 7532   0.207   6.848   3.747 -0.4157  0.0689  0.2771
 2240SOL    HW1 7533   0.122   6.885   3.721 -0.3850  0.0803  0.1921
 2240SOL    HW2 7534   0.204   6.844   3.842 -0.8257 -0.6534  0.2450
 2241SOL     OW 7535   6.529   5.725   2.668  0.2225 -0.1957 -0.4284
 2241SOL    HW1 7536   6.582   5.797   2.633 -0.6091  1.0318  0.7548
 2241SOL    HW2 7537   6.590   5.653   2.679  1.1479  0.4332 -1.3352
 2242SOL     OW 7538   2.492   7.768   6.550  0.0910  0.2583  0.2252
 2242SOL    HW1 7539   2.518   7.786   6.460  0.0239 -2.0105 -0.2685
 2242SOL    HW2 7540   2.567   7.724   6.589 -1.0356 -1.6926  0.2925
 2243SOL     OW 7541   7.053   3.053   1.166 -0.0981 -0.0012  0.6230
 2243SOL    HW1 7542   7.047   3.009   1.251 -0.8684  1.1281  1.1630
 2243SOL    HW2 7543   7.043   3.146   1.186  1.2949  0.4150 -0.5384
 2244SOL     OW 7544   0.723   6.518   4.929 -0.1316 -0.0133  0.1005
 2244SOL    HW1 7545   0.780   6.473   4.866  0.2564 -0.4515  0.7543
 2244SOL    HW2 7546   0.759   6.607   4.935  1.1801 -0.5903  1.3170
 2245SOL     OW 7547   5.446   4.565   6.548 -0.1567 -0.4097  0.2756
 2245SOL    HW1 7548   5.372   4.621   6.573  0.0010  0.1004 -0.3993
 2245SOL    HW2 7549   5.406   4.489   6.507 -0.2672  0.5263 -1.4069
 2246SOL     OW 7550   6.295   4.235   2.583 -0.1824  0.2213  0.4187
 2246SOL    HW1 7551   6.384   4.263   2.563 -1.0317  2.7138 -0.1034
 2246SOL    HW2 7552   6.241   4.274   2.513 -1.7387 -0.7993  1.0138
 2247SOL     OW 7553   2.136   6.553   5.840  0.2044  0.1043 -0.0453
 2247SOL    HW1 7554   2.098   6.627   5.792 -0.7019 -0.8191 -0.7641
 2247SOL    HW2 7555   2.114   6.571   5.932 -1.1476  0.0707 -0.3482
 2248SOL     OW 7556   6.904   6.086   7.831  0.3300  0.2613 -0.2551
 2248SOL    HW1 7557   6.845   6.089   7.756 -1.2190  2.2972  0.9685
 2248SOL    HW2 7558   6.991   6.096   7.793 -0.4108  1.0080 -1.8238
 2249SOL     OW 7559   0.401   6.463   4.495 -0.4607 -0.1596 -0.1400
 2249SOL    HW1 7560   0.382   6.554   4.472  0.0644 -0.1674 -0.6070
 2249SOL    HW2 7561   0.490   6.465   4.530 -0.7669 -0.3584  0.6769
 2250SOL     OW 7562   7.121   7.247   6.154 -0.7190 -0.7144  0.3914
 2250SOL    HW1 7563   7.176   7.178   6.117 -1.1577 -0.0004 -1.6799
 2250SOL    HW2 7564   7.091   7.212   6.238  0.3932 -2.3565  0.1255
 2251SOL     OW 7565   3.444   4.183   2.610  0.1323 -0.1191  0.5867
 2251SOL    HW1 7566   3.468   4.220   2.525  0.4125 -1.2095  0.1790
 2251SOL    HW2 7567   3.411   4.258   2.660 -2.0272  0.1704 -1.1871
 2252SOL     OW 7568   7.640   4.907   4.084 -0.0639 -0.0005 -0.4667
 2252SOL    HW1 7569   7.694   4.964   4.029  0.3821 -0.9261 -0.9901
 2252SOL    HW2 7570   7.596   4.968   4.144  0.5278  0.8853 -0.9084
 2253SOL     OW 7571   7.040   5.956   3.344  0.6615 -0.2224  0.2228
 2253SOL    HW1 7572   7.086   5.991   3.268  0.6658  0.6706  0.6361
 2253SOL    HW2 7573   6.948   5.953   3.318  0.6418  0.2415  0.2423
 2254SOL     OW 7574   4.124   1.017   5.782 -0.0072  0.1784  0.1037
 2254SOL    HW1 7575   4.178   1.025   5.861 -1.5428  0.2038  1.1721
 2254SOL    HW2 7576   4.111   0.923   5.772 -0.2051  0.2022  0.1437
 2255SOL     OW 7577   2.388   2.981   7.538  0.2348 -0.0766 -0.6707
 2255SOL    HW1 7578   2.318   2.975   7.474 -0.1529  1.0833 -0.3607
 2255SOL    HW2 7579   2.452   3.041   7.499  1.3443 -1.5907 -1.2148
 2256SOL     OW 7580   3.775   5.877   0.735 -0.0527  0.2802 -0.0816
 2256SOL    HW1 7581   3.698   5.932   0.746 -0.9692 -0.7642 -1.0957
 2256SOL    HW2 7582   3.838   5.932   0.689 -0.8372  0.6041 -0.7851
 2257SOL     OW 7583   1.857   6.587   6.526 -0.8798  0.0478  0.0097
 2257SOL    HW1 7584   1.839   6.573   6.619 -1.1731  1.7177  0.2243
 2257SOL    HW2 7585   1.859   6.683   6.516  1.8448 -0.0703 -1.1735
 2258SOL     OW 7586   5.477   2.974   0.867  0.5833  0.2058  0.3287
 2258SOL    HW1 7587   5.565   2.946   0.842  0.1079 -0.7365 -0.3244
 2258SOL    HW2 7588   5.480   2.980   0.962  1.2064 -0.3310  0.3448
 2259SOL     OW 7589   4.877   5.618   0.963  0.5500  0.7204  0.0735
 2259SOL    HW1 7590   4.864   5.677   0.889  0.6247 -0.1216 -0.6274
 2259SOL    HW2 7591   4.792   5.574   0.972  1.2650 -0.9437 -1.0900
 2260SOL     OW 7592   6.052   0.960   5.745  0.1026  0.4733 -0.2571
 2260SOL    HW1 7593   6.056   0.868   5.772  0.7878  0.9660  1.4043
 2260SOL    HW2 7594   5.972   0.966   5.693 -0.2862 -0.9297  0.1500
 2261SOL     OW 7595   7.751   6.409   6.008  0.0830 -0.0784  0.0165
 2261SOL    HW1 7596   7.744   6.470   5.934  1.5256 -0.8827 -0.8147
 2261SOL    HW2 7597   7.844   6.385   6.010 -0.0327 -0.4416  1.8002
 2262SOL     OW 7598   4.073   0.929   6.385 -0.7645 -0.1113  0.2390
 2262SOL    HW1 7599   4.133   0.974   6.445 -0.2052  0.0491 -0.4389
 2262SOL    HW2 7600   3.986   0.957   6.413 -0.4466  0.9502  0.1865
 2263SOL     OW 7601   4.494   4.394   5.894 -0.0462 -0.2019 -0.3601
 2263SOL    HW1 7602   4.493   4.299   5.884  1.9930 -0.1818 -0.9613
 2263SOL    HW2 7603   4.484   4.408   5.988  2.7064 -1.1326  0.1004
 2264SOL     OW 7604   3.857   6.830   1.221  0.1621  0.1765 -0.2566
 2264SOL    HW1 7605   3.877   6.788   1.137 -1.7103 -1.6694  0.1783
 2264SOL    HW2 7606   3.762   6.824   1.228  0.4643 -1.8258  3.0590
 2265SOL     OW 7607   7.200   3.775   4.435 -0.4884  0.3179 -0.5138
 2265SOL    HW1 7608   7.130   3.752   4.374  0.7337 -1.4884 -1.2533
 2265SOL    HW2 7609   7.158   3.775   4.521 -1.6385  0.3318 -1.0689
 2266SOL     OW 7610   7.241   3.374   2.921 -0.4106 -0.1998  0.3039
 2266SOL    HW1 7611   7.282   3.448   2.966  0.2029 -0.8442  0.8081
 2266SOL    HW2 7612   7.310   3.308   2.915 -0.7722 -0.5075 -0.6914
 2267SOL     OW 7613   2.883   1.417   5.376  0.0248  0.2174  0.1048
 2267SOL    HW1 7614   2.895   1.414   5.281 -2.3461 -0.6107 -0.2142
 2267SOL    HW2 7615   2.803   1.467   5.388 -1.1221 -1.8801  1.4969
 2268SOL     OW 7616   2.790   4.990   4.158  0.4411  0.1813 -0.3025
 2268SOL    HW1 7617   2.884   4.969   4.163 -0.0778 -2.2601 -0.1228
 2268SOL    HW2 7618   2.749   4.929   4.220 -1.1583  1.9974  0.4429
 2269SOL     OW 7619   7.677   3.304   4.863 -0.0845  0.4159 -0.2270
 2269SOL    HW1 7620   7.666   3.329   4.955 -1.3853 -0.1618 -0.2078
 2269SOL    HW2 7621   7.587   3.287   4.833  0.4599 -0.7551 -1.2093
 2270SOL     OW 7622   7.097   5.425   1.532 -0.1357 -0.0688  0.4104
 2270SOL    HW1 7623   7.170   5.365   1.546 -0.7390 -0.7669  0.5491
 2270SOL    HW2 7624   7.050   5.389   1.457  1.7250  2.3649 -2.0305
 2271SOL     OW 7625   4.607   7.145   7.379 -0.4261  0.1145  0.0462
 2271SOL    HW1 7626   4.682   7.105   7.422 -0.5888 -0.8629 -0.5776
 2271SOL    HW2 7627   4.546   7.163   7.450  0.7492  1.7641  0.6918
 2272SOL     OW 7628   0.621   0.810   3.093  0.1909  0.0348 -0.2307
 2272SOL    HW1 7629   0.616   0.743   3.025 -1.5772 -0.9607  0.8680
 2272SOL    HW2 7630   0.580   0.887   3.054 -1.0263 -0.6036 -0.2057
 2273SOL     OW 7631   2.724   1.931   0.079  0.4869  0.4224 -0.3807
 2273SOL    HW1 7632   2.648   1.986   0.064  0.5198  0.2289 -1.2895
 2273SOL    HW2 7633   2.739   1.935   0.174 -0.9158  0.1051 -0.1447
 2274SOL     OW 7634   6.927   1.895   1.468 -0.1639  0.0790  0.0140
 2274SOL    HW1 7635   6.872   1.926   1.396 -1.0694  1.2133  1.1579
 2274SOL    HW2 7636   6.930   1.969   1.529  0.5471 -0.8752  1.1580
 2275SOL     OW 7637   7.989   6.947   7.021 -0.0191  0.1200 -0.0661
 2275SOL    HW1 7638   7.915   7.007   7.020  0.5291  0.7909 -1.6719
 2275SOL    HW2 7639   8.066   7.002   7.006  0.5781 -0.8744 -0.7491
 2276SOL     OW 7640   3.912   1.000   5.342  0.2324  0.7483 -0.2979
 2276SOL    HW1 7641   3.880   1.048   5.266 -1.9763 -0.6062 -0.2466
 2276SOL    HW2 7642   3.841   1.005   5.406  2.1053  1.9794  1.7703
 2277SOL     OW 7643   6.161   7.849   0.873  0.2117  0.4296  0.0251
 2277SOL    HW1 7644   6.225   7.802   0.927  0.4433 -0.5351 -1.0640
 2277SOL    HW2 7645   6.215   7.901   0.813 -0.0300  0.3045 -0.3009
 2278SOL     OW 7646   5.404   6.696   7.304  0.1908 -0.3384  0.3704
 2278SOL    HW1 7647   5.329   6.710   7.246 -0.1744  0.9907  1.1285
 2278SOL    HW2 7648   5.441   6.783   7.317  1.9433 -1.0074 -0.0732
 2279SOL     OW 7649   2.761   5.500   6.046  0.1597  0.2335 -0.5073
 2279SOL    HW1 7650   2.686   5.558   6.031 -0.1611 -0.7583 -2.9791
 2279SOL    HW2 7651   2.836   5.559   6.054 -0.7806  1.2161  1.5607
 2280SOL     OW 7652   1.941   0.840   3.887  0.3583  0.1229  0.0581
 2280SOL    HW1 7653   1.964   0.923   3.846 -0.0987 -0.4880 -1.4704
 2280SOL    HW2 7654   1.902   0.864   3.971 -0.6049  1.4944 -0.7744
 2281SOL     OW 7655   3.597   5.788   4.284  0.0352 -0.7216 -0.1493
 2281SOL    HW1 7656   3.669   5.802   4.346 -0.7376 -1.0223  0.8373
 2281SOL    HW2 7657   3.639   5.787   4.198  1.1267 -0.2863  0.3679
 2282SOL     OW 7658   4.890   0.661   2.769 -0.7625  0.7196 -0.5998
 2282SOL    HW1 7659   4.942   0.703   2.701 -0.1753 -0.8512 -1.1632
 2282SOL    HW2 7660   4.881   0.570   2.739 -1.7369  0.3623  0.7078
 2283SOL     OW 7661   2.631   5.303   7.102  0.2377  0.6747  0.3020
 2283SOL    HW1 7662   2.571   5.377   7.106 -3.0796 -1.6584 -2.9845
 2283SOL    HW2 7663   2.696   5.327   7.036  0.1494  1.3002  0.4427
 2284SOL     OW 7664   2.478   1.204   2.987 -0.4563  0.0207  0.1845
 2284SOL    HW1 7665   2.566   1.241   2.976 -0.4778 -0.8066 -3.3109
 2284SOL    HW2 7666   2.419   1.270   2.952 -1.0511 -0.4659  0.2535
 2285SOL     OW 7667   5.491   0.659   5.028  0.0692  0.1099 -0.0168
 2285SOL    HW1 7668   5.472   0.568   5.009 -0.0533 -0.2560  1.7331
 2285SOL    HW2 7669   5.449   0.675   5.113  0.0145  1.8158 -0.3317
 2286SOL     OW 7670   3.616   7.253   6.521  0.0655  0.0219 -0.4339
 2286SOL    HW1 7671   3.691   7.200   6.496 -0.0387  0.0288 -0.7741
 2286SOL    HW2 7672   3.625   7.265   6.615  0.0611 -0.6499 -0.3419
 2287SOL     OW 7673   2.244   0.160   6.946 -0.3040 -0.4094  0.0366
 2287SOL    HW1 7674   2.209   0.081   6.985 -0.6578 -1.4124 -2.2055
 2287SOL    HW2 7675   2.338   0.155   6.959 -0.3372 -1.1734 -0.0240
 2288SOL     OW 7676   4.145   0.177   2.596  0.3438  0.4505 -0.2399
 2288SOL    HW1 7677   4.206   0.149   2.528 -0.7630 -0.1735 -0.9955
 2288SOL    HW2 7678   4.064   0.131   2.576 -0.2743  0.9821  0.9671
 2289SOL     OW 7679   0.415   0.510   4.166 -0.1224  0.4837  0.0230
 2289SOL    HW1 7680   0.353   0.439   4.181  0.5049 -0.2452 -0.7758
 2289SOL    HW2 7681   0.471   0.478   4.096  0.2926  1.6921 -0.2108
 2290SOL     OW 7682   2.247   5.342   5.442 -0.3641 -0.1095  0.1507
 2290SOL    HW1 7683   2.297   5.369   5.519  0.8619  1.7590 -1.2641
 2290SOL    HW2 7684   2.227   5.249   5.458  2.1185 -0.4510  1.5285
 2291SOL     OW 7685   1.010   3.845   6.287  0.0947 -0.1549 -0.3444
 2291SOL    HW1 7686   0.935   3.862   6.230  0.1782  0.2733 -0.3271
 2291SOL    HW2 7687   1.065   3.784   6.237  0.6322  0.9587 -1.1127
 2292SOL     OW 7688   5.175   0.819   6.060  0.4849  0.1057  0.4090
 2292SOL    HW1 7689   5.177   0.737   6.109 -0.0388 -0.2127 -0.0990
 2292SOL    HW2 7690   5.190   0.793   5.969 -2.7460  0.1886 -0.2192
 2293SOL     OW 7691   0.888   0.202   5.300  0.1785 -0.0541 -0.2459
 2293SOL    HW1 7692   0.912   0.190   5.391 -0.4255 -0.3608 -0.1267
 2293SOL    HW2 7693   0.915   0.121   5.257 -0.5088 -0.3425 -0.1383
 2294SOL     OW 7694   5.877   3.273   2.138 -0.1038 -0.0588  0.5338
 2294SOL    HW1 7695   5.807   3.208   2.130  0.7633 -0.8065 -1.1719
 2294SOL    HW2 7696   5.957   3.225   2.118  0.7183  1.1778  0.8056
 2295SOL     OW 7697   1.773   2.721   7.408  0.0340 -0.2909  0.4049
 2295SOL    HW1 7698   1.842   2.693   7.349 -1.5020 -0.5149 -1.3412
 2295SOL    HW2 7699   1.742   2.804   7.371 -0.8734 -0.3709  0.9597
 2296SOL     OW 7700   0.933   6.694   4.435 -0.2562 -0.3876  0.5203
 2296SOL    HW1 7701   0.942   6.682   4.530  0.5898  0.8498  0.6052
 2296SOL    HW2 7702   1.007   6.647   4.398  1.5672  2.2416  0.7080
 2297SOL     OW 7703   6.732   0.179   2.803 -0.2877 -0.3174 -0.3607
 2297SOL    HW1 7704   6.696   0.256   2.760  0.3929  1.0235  1.4447
 2297SOL    HW2 7705   6.679   0.168   2.882  1.1261 -0.2674  0.6130
 2298SOL     OW 7706   1.159   7.262   5.615  0.2299 -0.4844 -0.0695
 2298SOL    HW1 7707   1.189   7.182   5.659  0.8258  0.3302  1.0375
 2298SOL    HW2 7708   1.074   7.280   5.654 -0.8290 -1.6796 -1.7685
 2299SOL     OW 7709   4.216   7.609   7.780  0.3269  0.8322 -0.3266
 2299SOL    HW1 7710   4.131   7.565   7.779  0.4760  0.4789  1.2222
 2299SOL    HW2 7711   4.209   7.673   7.852  2.1277 -0.7831  1.3543
 2300SOL     OW 7712   2.658   7.052   0.118 -0.1662  0.2034 -0.0554
 2300SOL    HW1 7713   2.644   6.995   0.042  2.1289  0.3978 -0.6438
 2300SOL    HW2 7714   2.698   6.995   0.183 -1.1122  0.3155  0.6407
 2301SOL     OW 7715   0.458   2.702   7.470 -0.3598  0.3920  0.2742
 2301SOL    HW1 7716   0.397   2.631   7.490 -2.0761  0.6514 -3.5584
 2301SOL    HW2 7717   0.435   2.772   7.531 -0.2685 -1.4039  2.4415
 2302SOL     OW 7718   7.376   5.865   7.195 -0.2595 -0.3888 -0.8989
 2302SOL    HW1 7719   7.398   5.799   7.260 -3.0065 -2.7495 -2.2436
 2302SOL    HW2 7720   7.401   5.826   7.111  1.8791  2.0067 -1.4486
 2303SOL     OW 7721   1.494   3.139   7.237 -0.2570 -0.4134 -0.4268
 2303SOL    HW1 7722   1.455   3.213   7.190  0.7546  0.9752  0.8419
 2303SOL    HW2 7723   1.438   3.126   7.313  0.9486  0.7357  0.6998
 2304SOL     OW 7724   4.765   7.071   1.602 -0.0304  0.5658  0.7384
 2304SOL    HW1 7725   4.786   7.158   1.569 -0.2483 -0.3211 -1.8195
 2304SOL    HW2 7726   4.837   7.015   1.572  0.2452 -0.1053  2.5774
 2305SOL     OW 7727   5.479   6.211   2.143 -0.3160 -0.2074 -0.5382
 2305SOL    HW1 7728   5.530   6.205   2.224 -1.6680 -0.2699  0.3277
 2305SOL    HW2 7729   5.479   6.123   2.108  0.2840 -0.1802 -0.6139
 2306SOL     OW 7730   3.846   0.457   6.310 -0.1248  0.0269 -0.5636
 2306SOL    HW1 7731   3.909   0.434   6.378  0.3316  1.9097 -0.3096
 2306SOL    HW2 7732   3.761   0.433   6.347  0.2463 -0.2638  0.1110
 2307SOL     OW 7733   4.698   2.835   7.315  0.0017 -0.0585  0.4085
 2307SOL    HW1 7734   4.629   2.877   7.263 -0.2339 -1.4943 -0.4619
 2307SOL    HW2 7735   4.775   2.892   7.303 -0.8500  1.2177  0.8989
 2308SOL     OW 7736   5.426   3.212   1.132 -0.5105 -0.0606  0.1612
 2308SOL    HW1 7737   5.499   3.151   1.123  1.5284  2.2629  0.4106
 2308SOL    HW2 7738   5.443   3.257   1.215 -1.0788  1.9561 -0.7931
 2309SOL     OW 7739   1.471   5.505   5.851  0.1121 -0.3836  0.1592
 2309SOL    HW1 7740   1.512   5.536   5.931  0.3653 -0.6510  0.1381
 2309SOL    HW2 7741   1.441   5.584   5.806 -1.5358 -0.3393  1.3124
 2310SOL     OW 7742   0.217   4.266   4.773 -0.1974 -0.3132  0.8946
 2310SOL    HW1 7743   0.280   4.212   4.820  0.5247 -1.3482 -1.1641
 2310SOL    HW2 7744   0.270   4.318   4.713 -1.2851 -1.3786 -1.0452
 2311SOL     OW 7745   6.037   1.142   3.194  0.2155 -0.2572  0.1201
 2311SOL    HW1 7746   5.991   1.062   3.217  1.4049 -0.6441  1.1717
 2311SOL    HW2 7747   5.993   1.211   3.244  0.5464 -0.5689  0.8360
 2312SOL     OW 7748   2.010   7.387   6.404 -0.7982  0.3399  0.2324
 2312SOL    HW1 7749   1.969   7.390   6.317  0.4846  2.3412 -0.3297
 2312SOL    HW2 7750   1.941   7.417   6.463 -0.6244  2.3246 -0.5366
 2313SOL     OW 7751   2.120   3.064   6.123 -0.5315  0.3816 -0.3049
 2313SOL    HW1 7752   2.157   3.026   6.203  0.4160  1.4754 -0.2148
 2313SOL    HW2 7753   2.027   3.041   6.127  0.0158 -1.9870 -0.2996
 2314SOL     OW 7754   7.741   7.626   1.787  0.1140  0.1277 -0.5486
 2314SOL    HW1 7755   7.742   7.558   1.720 -1.1771  0.1739 -0.6299
 2314SOL    HW2 7756   7.719   7.706   1.740  0.7314  0.4474 -0.3060
 2315SOL     OW 7757   3.793   4.542   6.358  0.9189 -0.8816  0.4418
 2315SOL    HW1 7758   3.718   4.601   6.346  1.4847 -0.3437 -0.5584
 2315SOL    HW2 7759   3.855   4.569   6.291  1.9353 -1.4547  1.1387
 2316SOL     OW 7760   6.386   5.104   2.708 -0.7894 -0.4810 -0.3276
 2316SOL    HW1 7761   6.455   5.102   2.642 -0.6162 -2.3069 -0.0919
 2316SOL    HW2 7762   6.329   5.031   2.686 -2.5417  0.8472 -0.3763
 2317SOL     OW 7763   4.663   6.363   3.036 -0.3031  0.1010  0.3019
 2317SOL    HW1 7764   4.656   6.459   3.032 -1.1539 -0.0312 -1.7026
 2317SOL    HW2 7765   4.758   6.347   3.039 -0.0998  0.9602 -1.0159
 2318SOL     OW 7766   6.136   6.752   0.619 -0.1547 -0.1844  0.1760
 2318SOL    HW1 7767   6.143   6.679   0.558  1.1001  1.4833 -1.7193
 2318SOL    HW2 7768   6.219   6.752   0.666 -0.2501 -0.0977  0.3445
 2319SOL     OW 7769   2.136   7.232   0.197 -0.0055 -0.4931  0.3306
 2319SOL    HW1 7770   2.178   7.295   0.255  1.6941 -1.0784 -0.2239
 2319SOL    HW2 7771   2.135   7.150   0.247 -0.2145 -0.5558  0.2264
 2320SOL     OW 7772   6.976   3.265   2.957 -0.2540 -0.3583  0.4252
 2320SOL    HW1 7773   7.066   3.278   2.926  0.3762 -0.8041  1.9867
 2320SOL    HW2 7774   6.922   3.271   2.879  0.8899  2.4682 -0.2268
 2321SOL     OW 7775   3.494   4.325   3.560  0.4382 -0.4848 -0.4274
 2321SOL    HW1 7776   3.473   4.368   3.643 -2.5553 -0.3053 -1.2155
 2321SOL    HW2 7777   3.563   4.379   3.522 -0.8034  1.6458  0.2162
 2322SOL     OW 7778   5.350   1.979   3.538 -0.2499 -0.1914 -0.5584
 2322SOL    HW1 7779   5.381   2.054   3.588  0.7826 -0.9814  0.0170
 2322SOL    HW2 7780   5.389   1.903   3.582 -0.4785 -0.9946 -1.7081
 2323SOL     OW 7781   7.306   2.318   7.807 -0.0557  0.2392 -0.3566
 2323SOL    HW1 7782   7.305   2.368   7.725  1.2700  2.2565  0.7888
 2323SOL    HW2 7783   7.375   2.253   7.794  1.1840  1.5150 -0.3322
 2324SOL     OW 7784   0.926   0.352   6.296  0.1828  0.0533 -0.4156
 2324SOL    HW1 7785   0.977   0.315   6.367 -2.3141 -0.2901  1.2475
 2324SOL    HW2 7786   0.861   0.285   6.275 -2.6214  2.2717  0.7674
 2325SOL     OW 7787   3.492   3.271   5.120  0.3275 -0.0926 -0.7239
 2325SOL    HW1 7788   3.477   3.323   5.040 -0.1376  0.2630 -0.4089
 2325SOL    HW2 7789   3.585   3.251   5.118  0.2785 -0.2819 -1.4789
 2326SOL     OW 7790   5.814   1.683   5.525 -0.3435 -0.0997  0.3654
 2326SOL    HW1 7791   5.831   1.610   5.466 -2.5393 -0.2449 -0.1527
 2326SOL    HW2 7792   5.811   1.644   5.612 -0.7945 -0.5251  0.1609
 2327SOL     OW 7793   4.441   2.555   1.291 -0.2533 -0.5508  0.3754
 2327SOL    HW1 7794   4.480   2.591   1.371  0.9745 -1.2877  0.1277
 2327SOL    HW2 7795   4.445   2.460   1.302 -2.5228 -0.6498  0.5729
 2328SOL     OW 7796   2.497   5.092   6.441 -0.2914 -0.3734 -0.2998
 2328SOL    HW1 7797   2.557   5.137   6.381  0.1292 -0.2925  0.1802
 2328SOL    HW2 7798   2.412   5.131   6.422 -0.0085  0.2994 -0.2143
 2329SOL     OW 7799   6.665   0.795   6.502  0.2742 -0.2162 -0.1729
 2329SOL    HW1 7800   6.697   0.885   6.498  0.1612 -0.2255 -1.5487
 2329SOL    HW2 7801   6.570   0.802   6.492  0.3426 -0.5447 -1.0437
 2330SOL     OW 7802   2.495   3.721   2.934  0.2423 -0.0401  0.6901
 2330SOL    HW1 7803   2.590   3.710   2.946  0.4077  1.6189  1.0321
 2330SOL    HW2 7804   2.470   3.782   3.004 -0.9594  0.0459  0.1829
 2331SOL     OW 7805   2.402   3.468   4.468 -0.5416 -0.3174  0.0104
 2331SOL    HW1 7806   2.379   3.530   4.536  0.8117  0.3556 -0.1299
 2331SOL    HW2 7807   2.408   3.520   4.388 -1.2433 -0.9477 -0.4631
 2332SOL     OW 7808   7.670   0.567   2.832 -0.1421 -0.2566  0.0730
 2332SOL    HW1 7809   7.581   0.597   2.814 -0.4446 -0.1114  1.6807
 2332SOL    HW2 7810   7.698   0.621   2.907  0.8033 -1.1962  0.4061
 2333SOL     OW 7811   7.289   6.369   1.387 -0.6002 -0.0703 -0.7649
 2333SOL    HW1 7812   7.242   6.446   1.419 -1.6704 -0.4385 -1.4166
 2333SOL    HW2 7813   7.307   6.317   1.466 -1.9470 -0.2795 -0.5784
 2334SOL     OW 7814   5.649   3.132   3.608 -0.0903  0.2771  0.4434
 2334SOL    HW1 7815   5.694   3.049   3.592 -0.1392  0.4108 -0.4241
 2334SOL    HW2 7816   5.716   3.198   3.592 -0.8137  0.5187 -1.7924
 2335SOL     OW 7817   2.308   2.623   7.632  0.7276  0.5841  0.0572
 2335SOL    HW1 7818   2.391   2.592   7.669  0.9270  2.4710  1.2796
 2335SOL    HW2 7819   2.329   2.646   7.542  1.4981  0.8675  0.3040
 2336SOL     OW 7820   2.478   0.791   2.975  0.6910 -0.0499 -0.1215
 2336SOL    HW1 7821   2.383   0.794   2.988  0.6063  0.3039 -0.7835
 2336SOL    HW2 7822   2.513   0.768   3.061 -0.0727 -1.3538 -0.1405
 2337SOL     OW 7823   3.882   3.486   2.255 -0.5134 -0.8710 -0.3690
 2337SOL    HW1 7824   3.952   3.543   2.223 -0.1994 -0.5088  0.9419
 2337SOL    HW2 7825   3.833   3.461   2.176 -0.2814  0.7099 -1.0233
 2338SOL     OW 7826   0.811   6.870   1.226  0.2437  0.0565 -0.3976
 2338SOL    HW1 7827   0.812   6.838   1.136 -0.4909  0.2455 -0.4804
 2338SOL    HW2 7828   0.740   6.820   1.268  0.7004 -0.1621  0.1248
 2339SOL     OW 7829   5.863   0.105   0.111  0.3366 -0.1513 -0.6978
 2339SOL    HW1 7830   5.793   0.056   0.155  1.1947 -1.1158 -0.3889
 2339SOL    HW2 7831   5.822   0.188   0.086 -1.0058 -0.8372 -0.8185
 2340SOL     OW 7832   7.709   0.100   3.797  0.2809  0.2812  0.0525
 2340SOL    HW1 7833   7.731   0.027   3.738 -1.8491 -0.9503  0.7289
 2340SOL    HW2 7834   7.782   0.102   3.860  1.7067  0.5055 -1.5564
 2341SOL     OW 7835   0.519   7.174   0.336 -0.6125  0.0275  0.3574
 2341SOL    HW1 7836   0.568   7.222   0.270 -1.6111  1.5917  0.7198
 2341SOL    HW2 7837   0.448   7.132   0.287 -0.7198  0.2949  0.2848
 2342SOL     OW 7838   1.009   2.482   4.678 -0.2764 -0.2786 -0.3288
 2342SOL    HW1 7839   1.046   2.410   4.729 -0.0939  0.3682  0.4575
 2342SOL    HW2 7840   1.071   2.494   4.606 -0.2309 -0.8100 -0.3808
 2343SOL     OW 7841   7.963   4.888   4.044  0.4676  0.3924  0.3739
 2343SOL    HW1 7842   8.050   4.847   4.039  0.7528  0.9645  0.5913
 2343SOL    HW2 7843   7.964   4.937   4.126  0.4378  1.5355 -0.2926
 2344SOL     OW 7844   3.913   7.474   7.284  0.4930  0.0208 -0.5317
 2344SOL    HW1 7845   3.976   7.442   7.219  1.9742 -0.0193  0.8854
 2344SOL    HW2 7846   3.929   7.420   7.362  0.1802  1.4323  0.5419
 2345SOL     OW 7847   5.716   3.697   0.969  0.8132  0.5687 -0.3266
 2345SOL    HW1 7848   5.655   3.633   0.932  0.5210  1.0978 -0.7703
 2345SOL    HW2 7849   5.801   3.653   0.967  0.7128  0.4057 -1.1575
 2346SOL     OW 7850   3.002   7.373   4.984 -0.2239  0.1778  0.2009
 2346SOL    HW1 7851   2.975   7.465   4.984  1.6172  0.7337  0.9421
 2346SOL    HW2 7852   2.920   7.325   4.978 -1.1195  1.8790 -2.7284
 2347SOL     OW 7853   6.054   1.603   1.978  0.2032 -0.4479 -0.2546
 2347SOL    HW1 7854   6.009   1.609   1.893  1.4456  1.3464 -0.8142
 2347SOL    HW2 7855   6.108   1.525   1.970  0.3203 -0.2906 -1.1313
 2348SOL     OW 7856   7.217   3.243   0.755 -0.0035 -0.1291  0.0084
 2348SOL    HW1 7857   7.158   3.246   0.830 -1.6345 -0.0619 -1.2508
 2348SOL    HW2 7858   7.205   3.156   0.717 -0.0043  0.2184 -0.8123
 2349SOL     OW 7859   3.506   1.200   3.019 -0.1806 -0.0993 -0.2299
 2349SOL    HW1 7860   3.580   1.204   3.080 -0.8542  0.7102  0.5432
 2349SOL    HW2 7861   3.520   1.275   2.960 -0.6231  0.3177  0.1939
 2350SOL     OW 7862   5.089   2.808   6.911 -0.2067 -0.1240 -0.1303
 2350SOL    HW1 7863   5.033   2.740   6.874 -2.4666  1.4694  0.2211
 2350SOL    HW2 7864   5.154   2.761   6.964  0.6477 -2.1915 -2.9116
 2351SOL     OW 7865   0.490   1.658   6.531 -0.0559 -0.3587 -0.0160
 2351SOL    HW1 7866   0.555   1.720   6.564 -0.4434 -0.3399  0.7194
 2351SOL    HW2 7867   0.490   1.671   6.436 -2.3214  2.9201  0.3845
 2352SOL     OW 7868   0.808   0.862   1.883  0.1810  0.0943  0.9027
 2352SOL    HW1 7869   0.791   0.935   1.822 -0.7047 -0.1613  0.8325
 2352SOL    HW2 7870   0.733   0.804   1.871  1.8378 -1.8263 -0.4679
 2353SOL     OW 7871   7.386   0.139   0.304  0.6166  0.1536 -0.3446
 2353SOL    HW1 7872   7.315   0.199   0.326  1.6487  0.7628  1.4991
 2353SOL    HW2 7873   7.444   0.189   0.247  0.2147  0.0753 -0.8223
 2354SOL     OW 7874   7.961   6.356   2.457 -0.2157  0.0144 -0.6219
 2354SOL    HW1 7875   7.997   6.277   2.498 -1.2133  0.3309  0.8991
 2354SOL    HW2 7876   7.992   6.352   2.367  0.7461 -1.4996 -0.2464
 2355SOL     OW 7877   0.635   3.865   5.474 -0.6060 -0.2129 -0.1781
 2355SOL    HW1 7878   0.656   3.898   5.562 -0.9202 -0.0838 -0.1490
 2355SOL    HW2 7879   0.720   3.841   5.436 -0.5879 -1.4556  0.6246
 2356SOL     OW 7880   0.733   4.135   0.308  0.2331 -0.6341 -0.1259
 2356SOL    HW1 7881   0.686   4.190   0.370 -0.2905 -1.0516 -0.1462
 2356SOL    HW2 7882   0.790   4.081   0.363 -0.3797 -1.1460  0.0085
 2357SOL     OW 7883   4.852   1.838   7.583 -0.1189  0.2613  0.0994
 2357SOL    HW1 7884   4.877   1.818   7.492  0.3076  0.9109  0.0753
 2357SOL    HW2 7885   4.824   1.754   7.619 -1.1509  0.1546 -0.9072
 2358SOL     OW 7886   1.262   4.478   4.927  0.1667  0.1041 -0.2705
 2358SOL    HW1 7887   1.173   4.453   4.901 -0.1192  1.7107 -0.9046
 2358SOL    HW2 7888   1.314   4.465   4.848  0.0132  1.4864 -0.6095
 2359SOL     OW 7889   2.474   1.289   5.659  0.7983  0.6411  1.0510
 2359SOL    HW1 7890   2.398   1.291   5.601  0.6844  1.8733  1.2143
 2359SOL    HW2 7891   2.493   1.196   5.672  0.4789  0.3498 -0.4967
 2360SOL     OW 7892   6.593   2.218   2.913  0.4100 -0.6097  0.0295
 2360SOL    HW1 7893   6.508   2.197   2.952  0.3697 -0.1873  0.1676
 2360SOL    HW2 7894   6.626   2.291   2.966 -0.0936  0.6330 -1.3517
 2361SOL     OW 7895   3.218   5.055   0.716  0.3784 -0.6369 -0.2959
 2361SOL    HW1 7896   3.142   5.037   0.771 -0.6778  1.3763 -1.0759
 2361SOL    HW2 7897   3.213   4.990   0.646  0.5143 -1.7970  0.7477
 2362SOL     OW 7898   5.217   0.461   3.475  0.0656  0.1810 -0.2000
 2362SOL    HW1 7899   5.201   0.503   3.390  1.1544  1.7528  0.3592
 2362SOL    HW2 7900   5.264   0.381   3.453  0.1951  0.4963 -1.1068
 2363SOL     OW 7901   1.269   7.771   0.106 -0.3089  0.3242  0.2348
 2363SOL    HW1 7902   1.343   7.809   0.154 -0.0116  0.5065 -0.3653
 2363SOL    HW2 7903   1.192   7.810   0.146 -0.0855  0.1187  0.8792
 2364SOL     OW 7904   2.056   6.137   1.881 -0.6308  0.0696 -0.1985
 2364SOL    HW1 7905   1.982   6.161   1.936 -1.0297 -0.9242 -0.2999
 2364SOL    HW2 7906   2.034   6.172   1.795 -0.3928  0.8882  0.0667
 2365SOL     OW 7907   7.523   7.987   3.971  0.0683 -0.0320  0.3767
 2365SOL    HW1 7908   7.490   7.911   3.923  0.6538 -1.1288  1.6700
 2365SOL    HW2 7909   7.549   8.049   3.903  0.0363 -1.1855 -0.7039
 2366SOL     OW 7910   5.921   3.172   4.164  0.5552 -0.0203  0.0648
 2366SOL    HW1 7911   5.862   3.160   4.090 -0.9947  2.0765  0.9413
 2366SOL    HW2 7912   5.907   3.094   4.218 -0.1065 -0.3690 -0.6004
 2367SOL     OW 7913   5.448   2.584   3.833  0.3917  0.0591 -0.1973
 2367SOL    HW1 7914   5.544   2.583   3.830  0.3564 -0.5268 -1.6680
 2367SOL    HW2 7915   5.427   2.672   3.866  1.4272  0.3178 -0.1832
 2368SOL     OW 7916   4.059   0.608   7.836 -0.0597  0.2792  0.3832
 2368SOL    HW1 7917   4.028   0.570   7.754 -0.7693 -1.5715  1.4868
 2368SOL    HW2 7918   4.149   0.578   7.844  0.0178  0.4810  0.2684
 2369SOL     OW 7919   5.754   6.159   4.264 -0.3512  0.1514  0.2031
 2369SOL    HW1 7920   5.670   6.189   4.299 -0.1266 -1.6753  2.4101
 2369SOL    HW2 7921   5.747   6.063   4.263  1.0248  0.0330 -1.3863
 2370SOL     OW 7922   5.737   4.691   2.123 -0.0975  0.4411  0.1532
 2370SOL    HW1 7923   5.689   4.774   2.121  1.4640  1.3432 -0.3958
 2370SOL    HW2 7924   5.813   4.705   2.066 -0.7335 -1.9485 -1.3808
 2371SOL     OW 7925   5.168   2.330   3.485  0.0843 -0.5635 -0.2475
 2371SOL    HW1 7926   5.258   2.322   3.516 -0.0705  0.7144  0.5551
 2371SOL    HW2 7927   5.171   2.397   3.417 -0.4081  0.1671  0.4358
 2372SOL     OW 7928   0.086   0.539   2.105 -0.0690 -0.0919 -0.4760
 2372SOL    HW1 7929   0.170   0.578   2.130  0.7838 -1.8875 -0.4543
 2372SOL    HW2 7930   0.056   0.593   2.031 -0.0936  2.0505  1.0563
 2373SOL     OW 7931   0.035   7.762   1.772  0.1766  0.1780  0.3389
 2373SOL    HW1 7932   0.068   7.851   1.784  0.4521 -0.0766  1.5307
 2373SOL    HW2 7933  -0.027   7.749   1.844 -3.3495  0.9898 -2.4114
 2374SOL     OW 7934   7.949   2.656   0.216  0.1167  0.1373  0.3296
 2374SOL    HW1 7935   7.859   2.622   0.215  0.2667 -0.4383  2.8599
 2374SOL    HW2 7936   7.943   2.740   0.171 -1.0252 -1.4145 -2.5348
 2375SOL     OW 7937   6.470   7.278   3.420 -0.2652 -0.2224  0.0652
 2375SOL    HW1 7938   6.556   7.280   3.378 -0.7016  1.9502 -0.7914
 2375SOL    HW2 7939   6.408   7.291   3.348 -1.1598  0.7818  1.0006
 2376SOL     OW 7940   7.064   0.145   5.914  0.1031  0.2879 -0.2112
 2376SOL    HW1 7941   6.979   0.170   5.953 -0.4839  1.1848 -1.9978
 2376SOL    HW2 7942   7.052   0.161   5.821  1.4607 -1.9123 -0.7771
 2377SOL     OW 7943   1.754   5.019   5.619 -0.2619 -0.3098  0.3150
 2377SOL    HW1 7944   1.790   4.976   5.541 -1.8907  1.0924 -1.2544
 2377SOL    HW2 7945   1.830   5.060   5.661  0.4079  0.4044 -1.5236
 2378SOL     OW 7946   1.598   1.348   3.420 -0.3838 -0.4861  0.1375
 2378SOL    HW1 7947   1.617   1.346   3.514 -0.9778  0.5727  0.2871
 2378SOL    HW2 7948   1.516   1.300   3.411 -0.7711  0.1343  0.2824
 2379SOL     OW 7949   5.966   7.206   1.981 -0.1485  0.2113 -0.3331
 2379SOL    HW1 7950   5.985   7.125   2.028  0.0785  0.8344  0.6542
 2379SOL    HW2 7951   5.881   7.234   2.014  0.1640  0.8273 -0.0495
 2380SOL     OW 7952   4.131   2.982   2.840  0.3029 -0.4496 -0.0167
 2380SOL    HW1 7953   4.068   3.006   2.907  2.4720 -0.6452  2.1497
 2380SOL    HW2 7954   4.173   3.064   2.816 -2.1232  0.0146 -2.9582
 2381SOL     OW 7955   7.517   3.570   5.566 -0.1017  0.1068 -0.4000
 2381SOL    HW1 7956   7.438   3.608   5.604  0.4203  1.4794 -0.6496
 2381SOL    HW2 7957   7.554   3.517   5.636 -1.7169 -1.2991 -0.5744
 2382SOL     OW 7958   2.269   4.922   3.255 -0.3034  0.0877  0.6890
 2382SOL    HW1 7959   2.279   4.941   3.161 -1.0229 -0.9124  0.4028
 2382SOL    HW2 7960   2.242   5.006   3.293 -0.1132  0.4728 -0.0144
 2383SOL     OW 7961   5.819   0.365   0.094 -0.5520  0.0392 -0.0814
 2383SOL    HW1 7962   5.803   0.449   0.051 -0.8915  0.0787  0.1200
 2383SOL    HW2 7963   5.912   0.366   0.115 -0.6562  0.5880  0.3798
 2384SOL     OW 7964   2.132   4.278   6.906  0.2303  0.1654 -0.4273
 2384SOL    HW1 7965   2.199   4.345   6.893  0.2368  0.3377  0.4303
 2384SOL    HW2 7966   2.101   4.257   6.818  1.9291 -0.4558 -0.8787
 2385SOL     OW 7967   1.631   5.661   1.441 -0.0428  0.4597  0.6342
 2385SOL    HW1 7968   1.693   5.595   1.412 -0.3440 -0.0680  1.1844
 2385SOL    HW2 7969   1.620   5.718   1.366 -1.7357 -1.5807 -0.7158
 2386SOL     OW 7970   5.109   4.657   7.280 -0.2239 -0.4942 -0.9365
 2386SOL    HW1 7971   5.077   4.584   7.228  0.2607 -1.5984  0.2677
 2386SOL    HW2 7972   5.159   4.615   7.351 -1.1323  0.9479  0.5751
 2387SOL     OW 7973   3.677   4.471   7.199  0.0879  0.1879 -0.2144
 2387SOL    HW1 7974   3.581   4.473   7.197  0.1071 -0.0838 -1.7232
 2387SOL    HW2 7975   3.698   4.417   7.275 -1.0035 -2.2296 -1.5883
 2388SOL     OW 7976   5.042   0.253   4.344 -0.0414 -0.4557  0.0298
 2388SOL    HW1 7977   5.047   0.346   4.319 -1.4820 -0.3736  0.0179
 2388SOL    HW2 7978   4.966   0.248   4.402  0.1118 -1.6142  0.1338
 2389SOL     OW 7979   6.360   7.936   4.270 -0.0104 -0.3809  0.1215
 2389SOL    HW1 7980   6.433   7.875   4.275  0.1080 -0.5884 -2.9050
 2389SOL    HW2 7981   6.400   8.020   4.248 -0.4869 -0.0374  0.5601
 2390SOL     OW 7982   2.681   0.626   2.054  0.0489 -0.0716  0.0187
 2390SOL    HW1 7983   2.640   0.713   2.054  1.6831  0.7137  0.0835
 2390SOL    HW2 7984   2.719   0.617   2.141  2.7573  0.5586 -1.0556
 2391SOL     OW 7985   2.530   4.328   4.390 -0.0185 -0.1318 -0.1327
 2391SOL    HW1 7986   2.559   4.413   4.421  2.5435 -0.5602 -1.2184
 2391SOL    HW2 7987   2.610   4.277   4.382 -1.2219 -1.7887 -2.0546
 2392SOL     OW 7988   7.292   7.333   3.853  0.3455  0.0667  0.0207
 2392SOL    HW1 7989   7.201   7.316   3.828 -0.3976  0.7803  2.1140
 2392SOL    HW2 7990   7.335   7.247   3.849 -0.6276 -0.4133 -0.1861
 2393SOL     OW 7991   2.522   7.735   0.684 -0.1956 -0.6432  0.2931
 2393SOL    HW1 7992   2.484   7.785   0.612  2.0787 -0.9737 -1.1769
 2393SOL    HW2 7993   2.492   7.780   0.763  1.1241  2.5625 -0.9764
 2394SOL     OW 7994   3.197   6.295   3.922  0.2470 -0.0748  0.0827
 2394SOL    HW1 7995   3.200   6.359   3.994  1.0885 -0.2902  0.2503
 2394SOL    HW2 7996   3.146   6.338   3.854  0.7255  0.7509  0.2359
 2395SOL     OW 7997   5.373   7.825   2.015  0.2786 -0.7006  0.1260
 2395SOL    HW1 7998   5.448   7.882   2.000 -1.0569  0.9688 -0.4804
 2395SOL    HW2 7999   5.361   7.778   1.932  0.5442 -0.8165  0.1549
 2396SOL     OW 8000   3.173   5.410   4.604 -0.0640  0.4182 -0.2129
 2396SOL    HW1 8001   3.115   5.416   4.528  0.8252  3.4551 -0.7044
 2396SOL    HW2 8002   3.117   5.434   4.678 -0.6848 -1.6226  0.0228
 2397SOL     OW 8003   2.484   3.156   3.473 -0.4884 -0.0703  0.1765
 2397SOL    HW1 8004   2.437   3.187   3.396  0.7566 -0.0921 -0.6075
 2397SOL    HW2 8005   2.471   3.061   3.473 -1.0490  0.0077  0.3715
 2398SOL     OW 8006   2.584   5.027   5.271  0.0939  0.4542 -0.3706
 2398SOL    HW1 8007   2.618   5.070   5.193 -0.4937 -0.2518 -1.0155
 2398SOL    HW2 8008   2.604   5.088   5.342  0.7981  1.0108 -1.0397
 2399SOL     OW 8009   2.947   0.961   3.293  0.0093 -0.0112 -0.2231
 2399SOL    HW1 8010   2.976   0.995   3.209  1.6206 -1.3921 -0.2618
 2399SOL    HW2 8011   3.025   0.968   3.349  0.0776 -2.5888  0.0527
 2400SOL     OW 8012   7.767   2.890   6.041 -0.4778 -0.7396  0.6005
 2400SOL    HW1 8013   7.847   2.838   6.040 -0.8327 -1.2935 -1.1441
 2400SOL    HW2 8014   7.795   2.978   6.068  0.7892 -0.8314 -0.3638
 2401SOL     OW 8015   6.082   6.216   0.048 -0.4129 -0.3345 -0.0703
 2401SOL    HW1 8016   6.019   6.191  -0.019 -1.0606  0.3008  0.3064
 2401SOL    HW2 8017   6.121   6.297   0.016  2.1699 -2.0813 -1.6155
 2402SOL     OW 8018   0.691   0.085   4.717  0.0122 -0.3472  0.1266
 2402SOL    HW1 8019   0.630   0.101   4.789 -0.6017  1.1096 -0.7011
 2402SOL    HW2 8020   0.773   0.059   4.759  0.0296  1.6840  1.3806
 2403SOL     OW 8021   0.525   5.061   5.416  0.4268  0.0177 -0.5011
 2403SOL    HW1 8022   0.553   5.034   5.329  2.6370 -0.5313  0.3537
 2403SOL    HW2 8023   0.562   4.995   5.475 -0.5426  0.7063  0.9166
 2404SOL     OW 8024   6.134   3.821   7.757 -0.2563  0.5323  0.0363
 2404SOL    HW1 8025   6.171   3.829   7.845  0.7092 -1.6786 -0.1464
 2404SOL    HW2 8026   6.209   3.826   7.699 -0.5414 -0.9382 -0.4897
 2405SOL     OW 8027   0.910   0.869   6.082 -0.1214  0.5503  0.4947
 2405SOL    HW1 8028   0.850   0.822   6.140 -0.7290  1.3542  0.5243
 2405SOL    HW2 8029   0.854   0.902   6.011  0.7316 -1.0984 -0.9805
 2406SOL     OW 8030   0.222   6.462   4.217  0.1654  0.7421  0.6778
 2406SOL    HW1 8031   0.177   6.440   4.135  1.0213  0.2711  0.3176
 2406SOL    HW2 8032   0.274   6.384   4.237  1.5854  1.6327  0.5353
 2407SOL     OW 8033   1.928   3.757   6.429  0.4351  0.1781  0.0227
 2407SOL    HW1 8034   1.929   3.663   6.410  0.1724 -0.0425  1.0544
 2407SOL    HW2 8035   1.835   3.781   6.430  0.4957  0.4216 -0.1152
 2408SOL     OW 8036   0.386   4.053   3.647 -0.6762 -0.1611 -0.0944
 2408SOL    HW1 8037   0.450   3.986   3.620 -0.3913  0.5091 -1.1163
 2408SOL    HW2 8038   0.430   4.100   3.718 -0.1231  0.1271 -0.6159
 2409SOL     OW 8039   1.681   6.323   5.472  0.1316 -0.1282  0.2884
 2409SOL    HW1 8040   1.709   6.401   5.519  0.0940  0.4541 -0.6560
 2409SOL    HW2 8041   1.736   6.320   5.394  0.6541 -1.4609  0.6835
 2410SOL     OW 8042   2.726   5.181   6.271  0.1142  0.3564 -0.0770
 2410SOL    HW1 8043   2.765   5.122   6.336 -1.8735 -0.7894  0.1208
 2410SOL    HW2 8044   2.727   5.267   6.314 -0.0737 -0.1697  1.0225
 2411SOL     OW 8045   1.549   7.133   7.139  0.4395  0.5727 -0.2002
 2411SOL    HW1 8046   1.633   7.158   7.100  0.0948  2.0539 -0.0287
 2411SOL    HW2 8047   1.567   7.122   7.232  0.8506 -1.0583 -0.4587
 2412SOL     OW 8048   7.299   0.406   2.313 -0.2197  0.5399 -0.4041
 2412SOL    HW1 8049   7.364   0.342   2.343 -0.4738  0.5633  0.2150
 2412SOL    HW2 8050   7.329   0.432   2.226  1.0515  1.1481  0.1915
 2413SOL     OW 8051   4.341   0.251   4.300 -0.3105  0.2222 -0.4051
 2413SOL    HW1 8052   4.348   0.158   4.322 -0.7266  0.5468  1.1674
 2413SOL    HW2 8053   4.381   0.296   4.374 -1.8594  1.3658 -0.2407
 2414SOL     OW 8054   7.058   1.808   3.888  0.0409  0.7345  0.3675
 2414SOL    HW1 8055   7.067   1.715   3.872  0.0528  0.4874  1.7477
 2414SOL    HW2 8056   6.973   1.817   3.931  0.7576  1.1517  1.7339
 2415SOL     OW 8057   4.407   5.285   1.636 -0.2226 -0.8649 -0.2066
 2415SOL    HW1 8058   4.414   5.196   1.672  1.4066 -1.1159 -1.1324
 2415SOL    HW2 8059   4.399   5.272   1.542  0.2531 -0.0163 -0.3613
 2416SOL     OW 8060   7.889   4.519   3.737 -0.2762 -0.2228 -0.1321
 2416SOL    HW1 8061   7.799   4.540   3.761 -0.0027  2.0925 -1.0022
 2416SOL    HW2 8062   7.889   4.424   3.724 -2.3651 -0.3658  0.7596
 2417SOL     OW 8063   6.670   1.150   0.905  0.1093 -0.0475 -0.2965
 2417SOL    HW1 8064   6.627   1.225   0.944  0.6775 -0.0992  0.4559
 2417SOL    HW2 8065   6.723   1.113   0.976 -1.0156 -1.8168 -0.3331
 2418SOL     OW 8066   7.250   5.051   2.842 -0.3923 -0.1332  0.3273
 2418SOL    HW1 8067   7.218   5.117   2.781  0.7969  0.2460  0.1071
 2418SOL    HW2 8068   7.239   5.090   2.929  0.5221  0.4647  0.1860
 2419SOL     OW 8069   1.982   5.071   7.608 -0.4026  0.2828 -0.4019
 2419SOL    HW1 8070   1.998   5.153   7.562  0.7839  0.3560  0.1100
 2419SOL    HW2 8071   2.061   5.019   7.592  0.4516  0.6678  2.2993
 2420SOL     OW 8072   2.265   0.825   1.622  0.1200 -0.5333  0.0125
 2420SOL    HW1 8073   2.207   0.828   1.546  0.5033  1.3408 -0.2348
 2420SOL    HW2 8074   2.278   0.917   1.646  0.7988 -1.0589  1.7420
 2421SOL     OW 8075   4.938   0.891   4.966 -0.4109  0.1997  0.1750
 2421SOL    HW1 8076   5.001   0.857   5.029  0.7790  1.3670 -0.3564
 2421SOL    HW2 8077   4.937   0.986   4.981 -0.2536  0.4729 -1.3845
 2422SOL     OW 8078   7.894   6.249   4.426 -0.1602  0.5924 -0.4715
 2422SOL    HW1 8079   7.854   6.298   4.354  1.0146  3.9729  1.0668
 2422SOL    HW2 8080   7.970   6.302   4.451  1.6514 -2.4749  0.7815
 2423SOL     OW 8081   0.912   7.537   3.876  0.7417  0.2188  0.4447
 2423SOL    HW1 8082   0.862   7.481   3.817  2.5108 -1.5292  0.5736
 2423SOL    HW2 8083   0.858   7.543   3.955 -0.0024 -0.3085 -0.0223
 2424SOL     OW 8084   6.427   0.504   6.805 -0.2640  0.1535 -0.0785
 2424SOL    HW1 8085   6.488   0.436   6.776  0.9330  2.5548 -3.5236
 2424SOL    HW2 8086   6.363   0.511   6.735 -2.8139 -0.2146  2.1325
 2425SOL     OW 8087   6.750   5.947   7.546  0.1948  0.3072  0.5878
 2425SOL    HW1 8088   6.655   5.954   7.554 -0.2413 -2.4137 -1.4994
 2425SOL    HW2 8089   6.775   5.882   7.612  0.1947 -1.1842 -0.8522
 2426SOL     OW 8090   2.157   4.689   6.069  0.4266  0.3387 -0.3262
 2426SOL    HW1 8091   2.135   4.615   6.013 -3.0322  0.2694  1.0074
 2426SOL    HW2 8092   2.099   4.760   6.040  0.5369  1.1374  1.3187
 2427SOL     OW 8093   0.404   1.748   1.940  0.1666 -0.3248  0.7157
 2427SOL    HW1 8094   0.400   1.827   1.888 -1.2609 -0.7029  0.2029
 2427SOL    HW2 8095   0.444   1.775   2.023  0.7111  0.6812  0.1255
 2428SOL     OW 8096   0.054   6.374   0.777  0.1870  0.4011  0.2945
 2428SOL    HW1 8097  -0.040   6.358   0.769  0.3984 -1.6665  1.4971
 2428SOL    HW2 8098   0.093   6.287   0.772  2.0348  1.2372 -0.1078
 2429SOL     OW 8099   5.063   0.967   1.834 -0.5314 -0.2500  0.5266
 2429SOL    HW1 8100   5.084   0.978   1.742 -1.1030 -1.4012  0.2580
 2429SOL    HW2 8101   5.085   0.876   1.854  2.7015  0.8354  2.3637
 2430SOL     OW 8102   0.820   5.611   0.638  0.6273  0.0318  0.3101
 2430SOL    HW1 8103   0.870   5.646   0.565  0.6012 -0.4782  0.0490
 2430SOL    HW2 8104   0.860   5.651   0.716  0.4973  0.7599  0.0071
 2431SOL     OW 8105   0.191   7.034   3.205  0.3539  0.3782  0.0151
 2431SOL    HW1 8106   0.255   7.102   3.185 -0.8537  1.4313 -0.4069
 2431SOL    HW2 8107   0.166   7.050   3.296  0.5777  0.0617  0.1333
 2432SOL     OW 8108   2.370   0.875   7.386  0.6133 -0.7603  0.5421
 2432SOL    HW1 8109   2.314   0.798   7.378 -0.8792  0.2504  1.0833
 2432SOL    HW2 8110   2.395   0.876   7.479 -0.9830  0.4801  0.9902
 2433SOL     OW 8111   4.349   1.601   0.107  0.2174 -0.0131  0.3159
 2433SOL    HW1 8112   4.321   1.652   0.183 -2.7656 -1.9497  0.5605
 2433SOL    HW2 8113   4.370   1.515   0.142  0.0311 -0.5504 -0.8740
 2434SOL     OW 8114   2.235   2.612   3.357  0.5704  0.1156  0.0521
 2434SOL    HW1 8115   2.282   2.661   3.424  1.5761 -0.2263 -0.4039
 2434SOL    HW2 8116   2.302   2.561   3.312 -0.3971 -1.2828  0.1718
 2435SOL     OW 8117   6.977   1.494   7.427 -0.3171  0.8264 -0.2716
 2435SOL    HW1 8118   6.936   1.497   7.513 -3.1183 -1.0930 -1.4561
 2435SOL    HW2 8119   6.976   1.402   7.402  0.4832  1.3356 -2.3363
 2436SOL     OW 8120   6.265   6.002   6.766 -0.7556 -0.5456 -0.7610
 2436SOL    HW1 8121   6.343   6.056   6.769 -1.5892  0.6388  0.4209
 2436SOL    HW2 8122   6.275   5.948   6.688  1.1846 -0.3399 -0.6596
 2437SOL     OW 8123   5.424   6.565   5.454  0.0793  0.1996 -0.3481
 2437SOL    HW1 8124   5.341   6.566   5.502  0.1261 -0.2269 -0.2605
 2437SOL    HW2 8125   5.413   6.498   5.387 -0.3284  1.4472 -1.5578
 2438SOL     OW 8126   7.980   5.338   0.381  0.5351  0.4097  0.2709
 2438SOL    HW1 8127   8.017   5.409   0.328  0.3414 -0.5844 -1.2387
 2438SOL    HW2 8128   7.969   5.266   0.319 -0.3761 -0.5498  1.5317
 2439SOL     OW 8129   6.033   0.931   4.520 -0.6092 -0.3167 -0.1937
 2439SOL    HW1 8130   6.070   0.946   4.433  0.5136  0.5794  0.4112
 2439SOL    HW2 8131   6.102   0.961   4.580 -0.7950 -2.1980  1.0249
 2440SOL     OW 8132   5.564   1.698   2.813  0.1171 -0.4551  0.1055
 2440SOL    HW1 8133   5.515   1.779   2.796 -1.0860 -0.9229  1.2655
 2440SOL    HW2 8134   5.585   1.664   2.726  0.9987  1.3173 -0.4049
 2441SOL     OW 8135   0.787   0.033   1.738  0.0367  0.3326  0.1258
 2441SOL    HW1 8136   0.816   0.111   1.690  0.6763  0.8591  1.3361
 2441SOL    HW2 8137   0.723  -0.008   1.680 -0.2840  1.7346 -0.5573
 2442SOL     OW 8138   4.039   5.640   3.236  0.1842 -0.2643 -0.3325
 2442SOL    HW1 8139   4.017   5.548   3.250 -1.4038  0.1855  0.2575
 2442SOL    HW2 8140   4.134   5.644   3.252  0.1520 -1.6569  0.3777
 2443SOL     OW 8141   3.123   7.305   6.512 -0.9038  0.1825  0.1246
 2443SOL    HW1 8142   3.118   7.210   6.499 -0.1564  0.2791 -0.9934
 2443SOL    HW2 8143   3.041   7.338   6.476 -0.2257  0.1469 -1.4862
 2444SOL     OW 8144   7.921   5.515   7.585  0.2218 -0.5663  0.1639
 2444SOL    HW1 8145   7.878   5.594   7.551  1.6906  0.1869  0.0388
 2444SOL    HW2 8146   7.971   5.546   7.660  1.9476 -1.1111 -0.7358
 2445SOL     OW 8147   4.973   7.048   1.075 -0.6317 -0.0559 -0.0527
 2445SOL    HW1 8148   5.046   7.073   1.019 -0.6493 -0.0986 -0.0950
 2445SOL    HW2 8149   5.006   6.972   1.124 -0.1262  0.8267  1.0153
 2446SOL     OW 8150   2.987   5.716   3.040 -0.4261 -0.4429  0.3630
 2446SOL    HW1 8151   2.922   5.763   2.987 -0.4688 -1.6813 -0.7155
 2446SOL    HW2 8152   2.951   5.627   3.048  1.9022 -1.6087 -1.6243
 2447SOL     OW 8153   7.952   4.943   3.784 -0.3637 -0.0526 -0.0352
 2447SOL    HW1 8154   7.961   4.927   3.878 -1.5787  0.0186  0.0987
 2447SOL    HW2 8155   7.858   4.950   3.770 -0.2558 -1.1782 -1.4366
 2448SOL     OW 8156   3.007   7.990   7.160 -0.8168  0.3175 -0.1124
 2448SOL    HW1 8157   2.941   7.991   7.229 -0.0626 -1.1545  0.6602
 2448SOL    HW2 8158   3.075   8.050   7.190 -0.8390  0.2556  0.0606
 2449SOL     OW 8159   1.596   2.556   4.660  0.1871 -0.7050  0.0007
 2449SOL    HW1 8160   1.621   2.495   4.729 -1.3752 -0.9764  0.3373
 2449SOL    HW2 8161   1.645   2.527   4.583  2.5090  0.0420  1.1617
 2450SOL     OW 8162   4.306   7.693   6.477 -0.4077 -0.0939  0.4997
 2450SOL    HW1 8163   4.282   7.776   6.520 -2.7962  0.0607 -1.0102
 2450SOL    HW2 8164   4.296   7.711   6.383  1.8745 -1.2770 -0.0111
 2451SOL     OW 8165   6.928   6.783   4.557 -0.3238 -0.3184 -0.4521
 2451SOL    HW1 8166   6.909   6.856   4.498  1.7127  1.8843  1.5231
 2451SOL    HW2 8167   6.947   6.709   4.499  1.8920  1.8457 -2.5854
 2452SOL     OW 8168   3.523   1.781   2.230 -0.2757  0.4370  0.0933
 2452SOL    HW1 8169   3.498   1.778   2.322 -0.5464 -1.7465 -0.0242
 2452SOL    HW2 8170   3.608   1.737   2.226  0.5310  1.9889 -0.4793
 2453SOL     OW 8171   7.863   1.332   5.614 -0.3205 -0.1404 -0.1962
 2453SOL    HW1 8172   7.913   1.351   5.693  0.7282  0.0560 -0.8984
 2453SOL    HW2 8173   7.785   1.386   5.622 -0.7522 -0.9447  1.2215
 2454SOL     OW 8174   2.620   5.238   1.996  0.2962  0.7293  0.0872
 2454SOL    HW1 8175   2.678   5.162   1.998  0.2458  0.5893 -2.3915
 2454SOL    HW2 8176   2.538   5.204   1.960 -0.4729  1.4863  1.1027
 2455SOL     OW 8177   3.474   7.759   2.690  0.6707 -0.4457  0.2017
 2455SOL    HW1 8178   3.433   7.805   2.763 -1.2902 -1.2108 -0.3807
 2455SOL    HW2 8179   3.565   7.748   2.716  0.2640  0.3232  2.0107
 2456SOL     OW 8180   6.574   3.473   4.794 -0.2432  0.2472  0.2222
 2456SOL    HW1 8181   6.587   3.565   4.770  0.6597 -0.1828 -1.0254
 2456SOL    HW2 8182   6.660   3.443   4.821 -0.5227 -0.2519  0.5545
 2457SOL     OW 8183   7.465   4.894   2.707  0.2765  0.4444 -0.1966
 2457SOL    HW1 8184   7.469   4.803   2.737 -0.0752  0.3878 -0.3153
 2457SOL    HW2 8185   7.397   4.934   2.761 -0.8663  0.1499 -1.3942
 2458SOL     OW 8186   7.787   4.047   0.838  0.1015 -0.4030 -0.2825
 2458SOL    HW1 8187   7.838   4.025   0.916  0.1517  0.5725 -0.0358
 2458SOL    HW2 8188   7.835   4.119   0.797 -1.7035  1.3277  0.5891
 2459SOL     OW 8189   2.919   3.199   6.237 -0.4609  0.2015  0.2224
 2459SOL    HW1 8190   2.983   3.249   6.287  1.2742 -1.7701  0.0712
 2459SOL    HW2 8191   2.858   3.166   6.302  1.0047 -1.2183  0.9096
 2460SOL     OW 8192   1.164   2.255   4.773  0.4152 -0.6213 -0.0668
 2460SOL    HW1 8193   1.175   2.173   4.821  0.8153 -0.5227  0.0113
 2460SOL    HW2 8194   1.248   2.268   4.729  0.4878 -0.0431  0.2439
 2461SOL     OW 8195   6.019   2.550   6.085 -0.7700 -0.3739  1.1501
 2461SOL    HW1 8196   5.991   2.604   6.159  0.8722  0.6662  1.0313
 2461SOL    HW2 8197   6.112   2.533   6.101 -0.9048 -1.9390  0.4238
 2462SOL     OW 8198   0.851   0.915   7.269 -0.5312  0.0851  0.0043
 2462SOL    HW1 8199   0.842   0.990   7.327  0.6457 -1.1940  1.9072
 2462SOL    HW2 8200   0.940   0.922   7.233 -0.1794 -0.7211  0.6923
 2463SOL     OW 8201   7.845   7.762   4.817 -0.2823 -0.4428  0.5763
 2463SOL    HW1 8202   7.766   7.781   4.767  0.0637  0.4314  0.3447
 2463SOL    HW2 8203   7.861   7.669   4.803 -0.5929 -0.3598 -0.3642
 2464SOL     OW 8204   6.649   0.464   4.917  0.1028 -0.2017  0.3249
 2464SOL    HW1 8205   6.629   0.502   5.002  0.5284  0.6725  0.0374
 2464SOL    HW2 8206   6.590   0.389   4.909  0.0190 -0.2474  1.3597
 2465SOL     OW 8207   7.654   7.522   0.638 -0.0693 -0.1770 -0.1948
 2465SOL    HW1 8208   7.642   7.613   0.663  2.4734  0.4838 -1.1519
 2465SOL    HW2 8209   7.687   7.479   0.717  1.5504  0.4283 -0.5088
 2466SOL     OW 8210   3.987   1.627   7.157  0.6963  0.0291 -0.4556
 2466SOL    HW1 8211   3.971   1.717   7.188 -1.5468 -0.0757 -1.1887
 2466SOL    HW2 8212   4.000   1.577   7.237 -0.7055  0.5538  0.1285
 2467SOL     OW 8213   4.426   7.557   5.025 -0.3965 -0.2531  0.8629
 2467SOL    HW1 8214   4.343   7.603   5.031 -0.3820 -0.1289  0.1636
 2467SOL    HW2 8215   4.485   7.620   4.982  0.0024 -0.4095  1.1777
 2468SOL     OW 8216   6.271   6.571   6.713 -0.0505 -0.1041  0.0440
 2468SOL    HW1 8217   6.339   6.504   6.708  2.1172  1.9845  1.0690
 2468SOL    HW2 8218   6.232   6.560   6.800  0.5152  0.1655  0.3318
 2469SOL     OW 8219   6.755   1.688   1.581  0.2602  0.2910  0.1310
 2469SOL    HW1 8220   6.815   1.751   1.540  0.4601 -0.4672 -0.7654
 2469SOL    HW2 8221   6.752   1.714   1.673 -0.3368  2.1332 -0.3985
 2470SOL     OW 8222   5.883   2.709   4.141 -0.1437  0.3289  0.5265
 2470SOL    HW1 8223   5.819   2.680   4.076  0.1901  0.1739  0.2655
 2470SOL    HW2 8224   5.939   2.771   4.094 -0.1931  0.5791  0.7943
 2471SOL     OW 8225   7.778   7.887   5.045  0.3451 -0.0761  0.1191
 2471SOL    HW1 8226   7.720   7.959   5.020 -2.4253 -2.8045 -1.8333
 2471SOL    HW2 8227   7.807   7.849   4.962  0.1760 -2.3463  1.0467
 2472SOL     OW 8228   2.889   5.078   0.660  0.2090  0.5142 -0.4333
 2472SOL    HW1 8229   2.854   5.003   0.708  0.1543  0.8276  0.0165
 2472SOL    HW2 8230   2.813   5.114   0.613  0.4670 -0.4306 -1.6187
 2473SOL     OW 8231   1.628   6.584   3.835 -0.5175  0.2496 -0.0893
 2473SOL    HW1 8232   1.676   6.636   3.899  0.0406 -0.3302 -0.0442
 2473SOL    HW2 8233   1.536   6.593   3.861 -0.4382  1.3284 -0.1641
 2474SOL     OW 8234   3.818   7.159   2.056  0.0667 -0.5357  0.2876
 2474SOL    HW1 8235   3.795   7.212   1.980 -2.3048 -2.7419 -0.6087
 2474SOL    HW2 8236   3.854   7.221   2.119  1.3148  1.4563 -2.3090
 2475SOL     OW 8237   2.841   0.492   0.977 -0.1836 -0.2754 -0.3079
 2475SOL    HW1 8238   2.931   0.461   0.988 -0.2365  0.2528  1.6265
 2475SOL    HW2 8239   2.823   0.479   0.883  1.5246 -1.3783 -0.5000
 2476SOL     OW 8240   4.204   3.679   6.756 -0.0267  0.1275  0.2151
 2476SOL    HW1 8241   4.203   3.774   6.756  1.2310  0.1741 -1.9325
 2476SOL    HW2 8242   4.148   3.655   6.681 -1.8070 -0.8806  1.8170
 2477SOL     OW 8243   4.349   1.850   1.645 -0.2214  1.1811  0.1603
 2477SOL    HW1 8244   4.268   1.811   1.676  0.0349 -0.0229 -0.6407
 2477SOL    HW2 8245   4.400   1.865   1.725  0.1211 -1.1685  0.4180
 2478SOL     OW 8246   3.751   4.297   3.846 -0.4950 -0.3364 -0.5838
 2478SOL    HW1 8247   3.699   4.289   3.926  2.9939 -1.4343  1.6422
 2478SOL    HW2 8248   3.772   4.390   3.840  0.5986 -0.4830  0.7098
 2479SOL     OW 8249   4.237   3.974   3.827  0.1622  0.2506  0.3912
 2479SOL    HW1 8250   4.301   3.905   3.813 -1.0247 -0.9202  0.6035
 2479SOL    HW2 8251   4.269   4.021   3.904 -0.6204 -2.0131  2.1475
 2480SOL     OW 8252   6.216   1.697   5.609 -0.0402 -0.3353  0.1310
 2480SOL    HW1 8253   6.153   1.758   5.571 -0.0288 -0.2311  0.2808
 2480SOL    HW2 8254   6.262   1.659   5.534  1.0206  0.9755  0.1157
 2481SOL     OW 8255   4.439   3.855   4.954  0.0140 -0.0049 -0.2959
 2481SOL    HW1 8256   4.417   3.938   4.996 -1.6018 -1.3533  1.6121
 2481SOL    HW2 8257   4.375   3.846   4.884  2.5128  2.0898 -3.0148
 2482SOL     OW 8258   5.735   0.233   4.979  0.3030 -0.2243 -0.0035
 2482SOL    HW1 8259   5.802   0.208   5.042 -0.3265  1.4231  1.3601
 2482SOL    HW2 8260   5.699   0.150   4.947  0.3742 -1.0781  2.0863
 2483SOL     OW 8261   4.887   1.182   0.092 -0.9151 -0.2737 -0.1762
 2483SOL    HW1 8262   4.865   1.121   0.022  0.9348  0.9603 -1.8923
 2483SOL    HW2 8263   4.930   1.129   0.158 -3.2770 -1.5754  0.3693
 2484SOL     OW 8264   3.288   3.431   3.110  0.8306 -0.4390 -0.2165
 2484SOL    HW1 8265   3.217   3.472   3.061 -0.5849 -2.2293  0.2471
 2484SOL    HW2 8266   3.367   3.477   3.083 -0.3594  0.7643 -1.6892
 2485SOL     OW 8267   6.066   6.656   4.017  0.2123  0.3040  0.0732
 2485SOL    HW1 8268   6.107   6.652   4.104 -2.3021 -2.4109  1.2253
 2485SOL    HW2 8269   5.990   6.713   4.029 -0.1022 -0.0201 -0.3433
 2486SOL     OW 8270   7.194   2.693   1.915  0.6208  0.4485 -0.4027
 2486SOL    HW1 8271   7.214   2.785   1.896 -1.6659  0.8225 -1.1350
 2486SOL    HW2 8272   7.156   2.695   2.003  1.1987  0.1009 -0.1413
 2487SOL     OW 8273   6.425   1.740   0.993 -0.4837 -0.2403  0.1474
 2487SOL    HW1 8274   6.395   1.682   1.063 -3.0330 -1.4951 -1.8621
 2487SOL    HW2 8275   6.409   1.828   1.026  1.6807 -0.6743  2.5079
 2488SOL     OW 8276   3.050   6.541   4.742  0.0140  0.6672 -0.6894
 2488SOL    HW1 8277   3.114   6.600   4.782  1.6613 -1.0524 -0.7350
 2488SOL    HW2 8278   3.100   6.462   4.720 -1.9801 -0.4482 -1.3489
 2489SOL     OW 8279   5.971   6.363   0.810 -0.1308 -0.3100  0.5185
 2489SOL    HW1 8280   6.065   6.354   0.798  0.0599  0.7394  1.1982
 2489SOL    HW2 8281   5.957   6.456   0.825 -1.4695 -0.2249 -1.1503
 2490SOL     OW 8282   2.659   6.746   0.599  0.4895  0.5547  0.2686
 2490SOL    HW1 8283   2.718   6.706   0.663 -0.7525  0.1611  1.1990
 2490SOL    HW2 8284   2.597   6.796   0.652  0.3286  1.4458 -0.7295
 2491SOL     OW 8285   3.582   0.813   1.232 -0.3873  0.1126 -0.1773
 2491SOL    HW1 8286   3.504   0.812   1.287 -1.4265  1.6163 -1.6141
 2491SOL    HW2 8287   3.558   0.764   1.154 -0.3866  1.8258 -1.2718
 2492SOL     OW 8288   3.072   3.542   6.633 -0.4693  0.5441 -0.0895
 2492SOL    HW1 8289   3.081   3.461   6.583  0.8361 -0.3173  1.4793
 2492SOL    HW2 8290   2.990   3.531   6.682 -0.6648  0.4872 -0.4274
 2493SOL     OW 8291   1.154   0.833   4.321 -0.2178  1.1410  0.0131
 2493SOL    HW1 8292   1.171   0.812   4.413  0.8524  2.7432  0.1833
 2493SOL    HW2 8293   1.103   0.758   4.289  1.6287 -0.6934  1.2112
 2494SOL     OW 8294   2.510   2.741   1.364 -0.4097  0.1320 -0.2719
 2494SOL    HW1 8295   2.521   2.801   1.290 -0.2824 -0.5057 -0.7799
 2494SOL    HW2 8296   2.522   2.795   1.441  1.4617  0.4138 -0.7529
 2495SOL     OW 8297   2.115   3.782   3.407 -0.0025 -0.0809 -0.2891
 2495SOL    HW1 8298   2.057   3.712   3.377  1.2873  0.1476 -3.4836
 2495SOL    HW2 8299   2.200   3.761   3.368  1.4113  1.1180  2.0142
 2496SOL     OW 8300   4.735   1.048   6.254  0.3784  0.5610  0.5342
 2496SOL    HW1 8301   4.826   1.018   6.264 -0.5395 -2.7730 -0.3698
 2496SOL    HW2 8302   4.690   1.011   6.329 -0.7006  0.1428 -0.3086
 2497SOL     OW 8303   3.889   4.181   1.672 -0.0398 -0.1431 -0.7365
 2497SOL    HW1 8304   3.886   4.097   1.718 -1.9916  0.5943  0.5782
 2497SOL    HW2 8305   3.972   4.220   1.697  0.6818 -1.4822 -1.0124
 2498SOL     OW 8306   2.573   5.725   1.374 -0.1697 -0.6317 -0.1224
 2498SOL    HW1 8307   2.526   5.653   1.418 -1.5295  0.1198 -0.3254
 2498SOL    HW2 8308   2.528   5.804   1.403  2.0750  0.2645  1.0571
 2499SOL     OW 8309   4.032   4.682   4.618 -0.2147  0.1600  0.4079
 2499SOL    HW1 8310   4.006   4.687   4.710 -0.6855  0.2918  0.2678
 2499SOL    HW2 8311   3.964   4.628   4.577  1.1573 -1.7528  0.5607
 2500SOL     OW 8312   4.608   6.338   6.529  0.2208 -0.4448  0.1576
 2500SOL    HW1 8313   4.677   6.297   6.580  0.7966 -1.3105 -1.2728
 2500SOL    HW2 8314   4.544   6.269   6.515  1.2948 -0.9949 -2.4399
 2501SOL     OW 8315   4.342   7.562   7.532  0.0093 -0.1099  0.2221
 2501SOL    HW1 8316   4.302   7.604   7.608  2.3654  1.1336  0.8409
 2501SOL    HW2 8317   4.436   7.575   7.544  0.4935 -0.8269 -2.3789
 2502SOL     OW 8318   7.816   2.792   4.063  0.4036  0.3925  0.3279
 2502SOL    HW1 8319   7.803   2.710   4.111 -1.3286  0.6190  0.2903
 2502SOL    HW2 8320   7.910   2.795   4.046  0.4291 -1.7951 -0.0535
 2503SOL     OW 8321   5.009   4.896   7.380 -1.0068  0.3325 -0.1050
 2503SOL    HW1 8322   4.927   4.932   7.346  0.2948  1.4953 -2.1311
 2503SOL    HW2 8323   5.025   4.818   7.327 -0.5839  0.3719 -0.0374
 2504SOL     OW 8324   2.476   1.036   3.853 -0.0496 -0.1652  0.2653
 2504SOL    HW1 8325   2.545   1.082   3.900  0.2080  0.1509 -0.4178
 2504SOL    HW2 8326   2.496   0.944   3.864  0.0422 -0.0875  0.7306
 2505SOL     OW 8327   5.131   3.472   3.393 -0.6547 -0.1760  0.7295
 2505SOL    HW1 8328   5.111   3.485   3.486 -0.5928  0.8383  0.6119
 2505SOL    HW2 8329   5.157   3.380   3.386 -1.0296 -0.3563  1.6461
 2506SOL     OW 8330   3.426   0.330   7.722  0.0292 -0.3007 -0.1652
 2506SOL    HW1 8331   3.502   0.371   7.762  0.2755 -3.0955  2.4724
 2506SOL    HW2 8332   3.351   0.370   7.765  0.1540 -0.3199  0.0674
 2507SOL     OW 8333   2.935   2.777   6.063 -0.1964 -0.2142 -0.0492
 2507SOL    HW1 8334   3.016   2.726   6.070 -0.3023 -0.3478  0.1973
 2507SOL    HW2 8335   2.965   2.865   6.037  0.0584 -0.1668  0.3993
 2508SOL     OW 8336   7.082   5.896   6.129  0.0611  0.6639  0.3295
 2508SOL    HW1 8337   7.005   5.849   6.160  0.0942 -0.8023 -1.7218
 2508SOL    HW2 8338   7.051   5.984   6.109 -1.2587 -0.1224 -1.1709
 2509SOL     OW 8339   5.327   5.234   4.023  0.3158 -0.1711 -0.0698
 2509SOL    HW1 8340   5.390   5.190   3.966 -0.4814 -0.9824 -0.3273
 2509SOL    HW2 8341   5.256   5.262   3.965  1.0339  1.9256 -0.0048
 2510SOL     OW 8342   0.887   0.214   6.580 -0.1372  0.0077  0.3735
 2510SOL    HW1 8343   0.852   0.266   6.652  0.7109 -1.3244  1.7854
 2510SOL    HW2 8344   0.968   0.176   6.615  1.1441  0.6213 -1.8179
 2511SOL     OW 8345   1.489   5.882   0.262 -0.4412 -0.1970 -0.1419
 2511SOL    HW1 8346   1.536   5.961   0.290 -1.2292 -0.2302  1.2742
 2511SOL    HW2 8347   1.551   5.838   0.203  1.4614 -0.4174  1.9565
 2512SOL     OW 8348   6.344   2.106   0.894 -0.0281 -0.1108 -0.2201
 2512SOL    HW1 8349   6.337   2.176   0.830  0.7939 -0.7389 -1.0210
 2512SOL    HW2 8350   6.285   2.038   0.862  1.0448 -0.7822 -0.7983
 2513SOL     OW 8351   0.511   0.192   6.844  0.1519  0.3350  0.3625
 2513SOL    HW1 8352   0.471   0.216   6.761 -0.9617  1.0595  1.0903
 2513SOL    HW2 8353   0.543   0.275   6.880  2.7103 -0.2611 -0.3750
 2514SOL     OW 8354   3.285   0.360   5.131 -0.0571 -0.2730  0.1208
 2514SOL    HW1 8355   3.283   0.379   5.225 -0.1441  0.9541 -0.1234
 2514SOL    HW2 8356   3.372   0.323   5.116 -0.2219 -0.9348  0.7674
 2515SOL     OW 8357   6.628   7.603   5.260 -0.1094 -0.4328 -0.3447
 2515SOL    HW1 8358   6.604   7.635   5.347  0.7333  1.8411 -0.9139
 2515SOL    HW2 8359   6.674   7.521   5.276  1.2117  0.6496  1.4488
 2516SOL     OW 8360   0.637   5.376   2.157  0.0297 -0.2685  0.1848
 2516SOL    HW1 8361   0.600   5.440   2.096  1.8515  0.7036  0.0718
 2516SOL    HW2 8362   0.635   5.420   2.242  2.3273  0.4405 -0.0758
 2517SOL     OW 8363   3.001   1.228   3.492 -0.5613 -0.0902 -0.7855
 2517SOL    HW1 8364   2.913   1.194   3.511  0.0116 -0.2367  1.7408
 2517SOL    HW2 8365   2.992   1.323   3.501 -0.0005 -0.2455  1.5142
 2518SOL     OW 8366   0.057   4.398   6.682  0.2913 -0.4622  0.2751
 2518SOL    HW1 8367  -0.014   4.378   6.743  0.0735 -1.7922 -0.4107
 2518SOL    HW2 8368   0.064   4.321   6.626  3.4885 -1.1217  1.4646
 2519SOL     OW 8369   3.199   6.782   1.091  0.3370  0.4098 -0.0186
 2519SOL    HW1 8370   3.251   6.703   1.106 -0.6805 -0.3450 -0.4013
 2519SOL    HW2 8371   3.144   6.790   1.169  0.2324  0.5617 -0.1067
 2520SOL     OW 8372   2.403   5.403   0.324 -0.1625  0.1463  0.0143
 2520SOL    HW1 8373   2.327   5.347   0.308 -1.4194  1.3428  1.6074
 2520SOL    HW2 8374   2.478   5.344   0.318 -1.3692 -1.4662  0.4520
 2521SOL     OW 8375   4.110   7.573   6.162  0.7615  0.3376 -0.3120
 2521SOL    HW1 8376   4.100   7.661   6.126 -2.3934  0.1441 -0.0766
 2521SOL    HW2 8377   4.125   7.588   6.255 -1.7876  0.6626  0.1021
 2522SOL     OW 8378   0.355   6.956   3.508 -0.0671  0.2122  0.0140
 2522SOL    HW1 8379   0.283   6.929   3.565 -1.0036 -1.7667 -2.0102
 2522SOL    HW2 8380   0.324   7.037   3.466 -1.3491 -0.8805 -1.1964
 2523SOL     OW 8381   5.728   2.351   2.355 -0.0180  0.2692 -0.1838
 2523SOL    HW1 8382   5.641   2.377   2.324  0.5392  0.9054 -1.2146
 2523SOL    HW2 8383   5.766   2.301   2.283  0.0356 -1.0142  0.7040
 2524SOL     OW 8384   7.382   6.896   0.990 -0.2527  0.6130 -0.0293
 2524SOL    HW1 8385   7.293   6.911   1.024  0.1121 -0.0135  1.2487
 2524SOL    HW2 8386   7.439   6.939   1.054  0.4212  0.0189 -0.2322
 2525SOL     OW 8387   0.496   3.132   7.068 -0.5524 -0.1936 -0.2836
 2525SOL    HW1 8388   0.515   3.039   7.055  2.8358  0.2646  0.8433
 2525SOL    HW2 8389   0.493   3.168   6.980  0.3574 -0.9611 -0.6376
 2526SOL     OW 8390   1.604   2.912   5.424  0.8194  0.3247 -0.3368
 2526SOL    HW1 8391   1.595   2.816   5.417  0.0564  0.5196 -2.4273
 2526SOL    HW2 8392   1.513   2.944   5.425  1.0893  1.1018 -0.9147
 2527SOL     OW 8393   5.835   4.096   5.313 -0.1563  0.2553 -1.0492
 2527SOL    HW1 8394   5.782   4.070   5.388 -0.2416  0.4226 -1.0513
 2527SOL    HW2 8395   5.781   4.075   5.237  0.3986 -0.9768 -1.1082
 2528SOL     OW 8396   2.815   0.297   7.300  0.2980  0.4565  0.4801
 2528SOL    HW1 8397   2.721   0.315   7.299  0.0401 -0.7961 -1.3747
 2528SOL    HW2 8398   2.821   0.205   7.327  0.9135  0.1538 -0.6790
 2529SOL     OW 8399   2.031   1.122   4.285 -0.4330  0.6517 -0.4214
 2529SOL    HW1 8400   2.056   1.055   4.348 -0.3702  2.0072  1.0212
 2529SOL    HW2 8401   1.943   1.150   4.314 -1.1408  0.0672 -1.9574
 2530SOL     OW 8402   2.525   1.538   7.031  0.0997 -0.7467  0.3618
 2530SOL    HW1 8403   2.530   1.618   7.084 -2.0657  0.4002 -1.1012
 2530SOL    HW2 8404   2.440   1.543   6.988  0.1464 -3.6033 -0.1821
 2531SOL     OW 8405   3.835   1.522   6.591  0.0801  0.2088 -0.3311
 2531SOL    HW1 8406   3.772   1.555   6.655 -1.4408 -1.6947 -0.7822
 2531SOL    HW2 8407   3.785   1.514   6.510  1.3732  0.3481 -1.1530
 2532SOL     OW 8408   3.424   1.236   5.055 -0.4722 -0.8937 -0.0047
 2532SOL    HW1 8409   3.351   1.258   5.112 -0.2193  2.1264 -0.7548
 2532SOL    HW2 8410   3.402   1.276   4.971  2.3625  0.7210 -0.0417
 2533SOL     OW 8411   4.328   2.729   7.915 -0.0087  0.4672 -0.7661
 2533SOL    HW1 8412   4.423   2.721   7.931 -0.0053  1.4628 -0.2305
 2533SOL    HW2 8413   4.306   2.815   7.951 -0.8419  0.8764 -2.2676
 2534SOL     OW 8414   2.827   0.624   7.693 -0.1056  0.1791  0.7891
 2534SOL    HW1 8415   2.793   0.547   7.740 -1.2911 -0.1419 -0.5670
 2534SOL    HW2 8416   2.901   0.591   7.643 -0.3949 -0.0059  0.4825
 2535SOL     OW 8417   7.227   5.867   4.226 -0.2846 -0.4160 -0.2447
 2535SOL    HW1 8418   7.312   5.824   4.216  0.0177  0.2268 -0.4221
 2535SOL    HW2 8419   7.210   5.908   4.141  0.5365  1.8446  0.6492
 2536SOL     OW 8420   1.564   4.678   3.969  0.2598  0.5238 -0.8820
 2536SOL    HW1 8421   1.560   4.766   3.931  0.7517  1.1555  0.5155
 2536SOL    HW2 8422   1.495   4.629   3.924 -1.3942  2.1965 -0.2057
 2537SOL     OW 8423   2.515   0.867   2.105  0.2577 -0.4765  0.2411
 2537SOL    HW1 8424   2.423   0.870   2.128  0.1377 -0.9648 -0.1483
 2537SOL    HW2 8425   2.554   0.942   2.148 -0.2816 -0.4036  0.5978
 2538SOL     OW 8426   7.494   3.898   6.265  0.5384 -0.9762 -0.4897
 2538SOL    HW1 8427   7.497   3.806   6.239  0.1370 -1.0316 -0.3296
 2538SOL    HW2 8428   7.454   3.898   6.351 -1.8034 -0.4257 -1.5421
 2539SOL     OW 8429   4.308   0.285   7.959 -0.2475  0.5359  0.5223
 2539SOL    HW1 8430   4.273   0.374   7.956 -0.1055  0.5361 -1.8638
 2539SOL    HW2 8431   4.402   0.297   7.972 -0.3421  0.7060  1.0608
 2540SOL     OW 8432   6.285   1.276   7.825 -0.3252 -0.1247  0.0197
 2540SOL    HW1 8433   6.233   1.250   7.901 -1.6043 -0.9741 -1.1097
 2540SOL    HW2 8434   6.361   1.219   7.828 -0.0712  0.2603  0.9965
 2541SOL     OW 8435   0.600   1.551   2.663  0.2491  0.6802  0.2796
 2541SOL    HW1 8436   0.506   1.553   2.645  0.5664 -1.1434 -1.7826
 2541SOL    HW2 8437   0.614   1.467   2.707  0.9541  0.9002  0.4871
 2542SOL     OW 8438   0.278   1.172   4.214 -0.1171  0.5508 -0.8893
 2542SOL    HW1 8439   0.323   1.089   4.232 -0.8656  0.0598 -1.2573
 2542SOL    HW2 8440   0.240   1.197   4.298 -1.6838 -0.5742 -1.2422
 2543SOL     OW 8441   4.325   3.008   3.867  0.1346  0.1688 -1.1246
 2543SOL    HW1 8442   4.348   3.004   3.774 -1.2839 -0.6905 -1.4554
 2543SOL    HW2 8443   4.239   2.967   3.872 -0.6489  1.9215  0.3050
 2544SOL     OW 8444   5.121   7.181   6.409  0.0358 -0.0770  0.1407
 2544SOL    HW1 8445   5.212   7.157   6.429  0.0391 -1.6890 -1.6319
 2544SOL    HW2 8446   5.069   7.110   6.446 -0.3393 -0.2837 -0.7767
 2545SOL     OW 8447   1.667   2.224   3.873 -0.0577  0.2518  0.0388
 2545SOL    HW1 8448   1.753   2.221   3.915 -0.3712  1.4768  0.7800
 2545SOL    HW2 8449   1.634   2.135   3.880 -0.0453  0.4075  2.2684
 2546SOL     OW 8450   2.611   3.485   5.974 -0.1715 -0.1756 -0.3578
 2546SOL    HW1 8451   2.584   3.434   5.897 -0.1771 -0.0325 -0.4515
 2546SOL    HW2 8452   2.617   3.575   5.942 -0.8237 -0.0147 -0.0295
 2547SOL     OW 8453   1.383   5.019   1.659 -0.1605  0.8470  0.0391
 2547SOL    HW1 8454   1.425   4.999   1.575 -1.0693  1.0840 -0.4737
 2547SOL    HW2 8455   1.427   5.099   1.688 -0.0816  0.9597 -0.3761
 2548SOL     OW 8456   5.892   6.801   3.221  0.4183 -0.1661 -0.4830
 2548SOL    HW1 8457   5.860   6.789   3.132 -1.4189 -2.2605  0.4032
 2548SOL    HW2 8458   5.816   6.835   3.269  0.7182 -1.1589  0.7360
 2549SOL     OW 8459   2.029   4.680   6.785  0.2684 -0.0111 -0.7161
 2549SOL    HW1 8460   2.084   4.607   6.755 -0.8289 -0.5278 -1.5079
 2549SOL    HW2 8461   2.047   4.751   6.722  2.2750  0.8582  0.7715
 2550SOL     OW 8462   5.782   5.859   6.356 -0.4756 -0.3764  0.3022
 2550SOL    HW1 8463   5.830   5.906   6.424  0.7115  0.6610 -1.2101
 2550SOL    HW2 8464   5.848   5.804   6.313 -1.2593 -1.2179  0.1523
 2551SOL     OW 8465   7.909   3.101   6.176  0.1778 -0.5947 -0.1659
 2551SOL    HW1 8466   7.848   3.175   6.183  0.1922 -0.5351 -0.6158
 2551SOL    HW2 8467   7.979   3.134   6.120 -0.3513 -1.2917 -1.2686
 2552SOL     OW 8468   2.033   7.418   7.658  0.1361 -0.0734  0.1085
 2552SOL    HW1 8469   1.939   7.417   7.640  0.0651  1.0294  0.3905
 2552SOL    HW2 8470   2.039   7.415   7.753  0.3421  1.1578  0.1476
 2553SOL     OW 8471   3.062   1.870   5.416  0.1775  1.0875 -0.4887
 2553SOL    HW1 8472   2.974   1.867   5.453  0.9730 -0.0483  1.3373
 2553SOL    HW2 8473   3.120   1.872   5.492  1.7604  1.2153 -1.6836
 2554SOL     OW 8474   6.425   6.933   1.339 -0.5458  0.1709 -0.7689
 2554SOL    HW1 8475   6.440   6.933   1.434  0.7481  0.9734 -0.9640
 2554SOL    HW2 8476   6.379   6.851   1.322 -0.7236 -0.0089  0.5496
 2555SOL     OW 8477   1.517   5.776   7.184 -0.1214  0.1155  0.3008
 2555SOL    HW1 8478   1.442   5.813   7.231 -0.2093  0.1831  0.1083
 2555SOL    HW2 8479   1.591   5.832   7.209 -0.1282  0.0307  0.5151
 2556SOL     OW 8480   2.721   6.747   2.352  0.3657 -0.8432 -0.4296
 2556SOL    HW1 8481   2.761   6.726   2.268 -0.2238 -0.6983 -0.7439
 2556SOL    HW2 8482   2.630   6.721   2.343  0.1647 -0.2971 -0.0337
 2557SOL     OW 8483   3.030   0.361   1.346 -0.4929 -0.2855 -0.0398
 2557SOL    HW1 8484   3.095   0.390   1.282  0.5846 -2.3716  0.0759
 2557SOL    HW2 8485   3.068   0.383   1.431  0.0667 -1.4676  0.0262
 2558SOL     OW 8486   3.948   4.832   6.264  0.0210  0.0845 -0.3116
 2558SOL    HW1 8487   4.027   4.786   6.291 -0.0071  0.1466 -0.1249
 2558SOL    HW2 8488   3.944   4.908   6.322  0.6236  0.8741 -1.2822
 2559SOL     OW 8489   4.836   4.139   4.611 -0.5005 -0.3663  0.4746
 2559SOL    HW1 8490   4.887   4.169   4.686 -0.8694 -0.7766  0.8914
 2559SOL    HW2 8491   4.808   4.051   4.635 -1.9793  0.1184  0.5317
 2560SOL     OW 8492   5.458   2.509   3.389  0.1388 -0.1405 -0.3337
 2560SOL    HW1 8493   5.365   2.525   3.372 -0.2158 -1.3972  0.3872
 2560SOL    HW2 8494   5.464   2.415   3.406  1.0947  0.3659  2.4367
 2561SOL     OW 8495   1.016   4.270   2.716  0.3703 -0.5446 -0.5858
 2561SOL    HW1 8496   0.993   4.261   2.624  0.1314  0.1008 -0.5901
 2561SOL    HW2 8497   0.957   4.208   2.761  0.3060 -0.6664 -0.8378
 2562SOL     OW 8498   2.186   3.222   2.183  0.0987  0.3351 -0.0267
 2562SOL    HW1 8499   2.215   3.225   2.274  0.0753  1.0440 -0.0398
 2562SOL    HW2 8500   2.248   3.164   2.140 -0.0472 -0.2143  0.4941
 2563SOL     OW 8501   0.591   1.772   3.381  0.0805 -0.0494 -0.2196
 2563SOL    HW1 8502   0.632   1.779   3.295 -0.9525 -1.0489 -0.8081
 2563SOL    HW2 8503   0.542   1.854   3.390  1.6098  0.8382  0.1920
 2564SOL     OW 8504   7.581   1.437   7.324  0.5047  0.6092  0.2504
 2564SOL    HW1 8505   7.627   1.520   7.326  0.0478  0.8652  0.2642
 2564SOL    HW2 8506   7.618   1.390   7.250  0.4464  1.0081 -0.0302
 2565SOL     OW 8507   1.840   3.674   7.372  0.0133  0.0966  0.1595
 2565SOL    HW1 8508   1.892   3.734   7.318 -0.5167  0.1518 -0.2881
 2565SOL    HW2 8509   1.866   3.695   7.462 -1.7677  2.5160  0.1549
 2566SOL     OW 8510   7.607   3.551   6.262 -0.5208  0.1312  0.3241
 2566SOL    HW1 8511   7.556   3.605   6.201 -0.3115  0.4741  0.4518
 2566SOL    HW2 8512   7.571   3.463   6.252  1.0362 -0.3146 -2.0176
 2567SOL     OW 8513   3.937   0.308   5.900 -0.0092  0.2843  0.1991
 2567SOL    HW1 8514   3.891   0.367   5.959 -0.6130  1.5517 -1.5090
 2567SOL    HW2 8515   3.876   0.235   5.886 -0.7156  1.0024 -0.4992
 2568SOL     OW 8516   5.303   7.718   1.755 -0.0528 -0.2636  0.0553
 2568SOL    HW1 8517   5.256   7.644   1.794 -0.9039  1.4158  2.3254
 2568SOL    HW2 8518   5.251   7.742   1.679 -0.9135 -0.6841  0.4995
 2569SOL     OW 8519   6.594   0.905   4.521 -0.0287 -1.0109 -0.5200
 2569SOL    HW1 8520   6.576   0.886   4.429 -0.8491  2.2401 -1.1018
 2569SOL    HW2 8521   6.685   0.934   4.522 -0.5211  0.5788 -0.6056
 2570SOL     OW 8522   6.182   6.892   6.421  0.2544 -0.2745  0.7590
 2570SOL    HW1 8523   6.236   6.897   6.499 -0.5186 -1.0077  1.3468
 2570SOL    HW2 8524   6.092   6.888   6.455 -0.0614 -0.9706 -0.1552
 2571SOL     OW 8525   6.199   1.835   6.629 -0.3698  0.1339  0.8412
 2571SOL    HW1 8526   6.151   1.753   6.636  0.9970 -0.5538  2.4608
 2571SOL    HW2 8527   6.252   1.826   6.550 -1.8414  0.3316 -0.1681
 2572SOL     OW 8528   3.862   6.195   1.880  0.1552  0.2500  0.5940
 2572SOL    HW1 8529   3.932   6.195   1.815  1.2245  0.9354  1.7123
 2572SOL    HW2 8530   3.806   6.269   1.855 -0.2574 -0.4084 -0.4045
 2573SOL     OW 8531   7.356   6.090   3.834 -0.1225 -0.0434  0.0102
 2573SOL    HW1 8532   7.435   6.048   3.800 -0.5086 -0.6669 -0.1187
 2573SOL    HW2 8533   7.388   6.151   3.901  0.4544 -0.3757  0.0335
 2574SOL     OW 8534   4.152   4.960   1.428  0.0849 -0.0851  0.1313
 2574SOL    HW1 8535   4.135   4.964   1.334 -1.0125 -2.4862  0.1793
 2574SOL    HW2 8536   4.229   4.903   1.436 -0.8910 -1.3407  0.7666
 2575SOL     OW 8537   3.856   2.382   1.931 -0.0317 -0.6772 -0.3727
 2575SOL    HW1 8538   3.928   2.412   1.875 -0.1307 -0.2287 -0.2601
 2575SOL    HW2 8539   3.777   2.398   1.880 -0.1541  0.0965  0.0402
 2576SOL     OW 8540   3.260   7.504   0.383  0.1923  1.2454  0.4815
 2576SOL    HW1 8541   3.236   7.597   0.381 -0.5015  1.0542 -0.1972
 2576SOL    HW2 8542   3.265   7.478   0.292 -2.1229 -0.0132  0.6877
 2577SOL     OW 8543   3.903   2.296   7.912  0.5557 -0.6242  0.3520
 2577SOL    HW1 8544   3.813   2.267   7.900  0.3020 -0.6385  2.2453
 2577SOL    HW2 8545   3.904   2.385   7.877 -0.0539 -0.8184 -0.1740
 2578SOL     OW 8546   3.862   7.481   1.689  0.1164 -0.0164 -0.0117
 2578SOL    HW1 8547   3.912   7.449   1.614  1.0893  0.8863  0.2361
 2578SOL    HW2 8548   3.928   7.517   1.748 -0.6919 -0.2048  1.0285
 2579SOL     OW 8549   2.165   1.538   3.895 -0.1466 -0.2198 -0.2285
 2579SOL    HW1 8550   2.104   1.465   3.895  0.6802 -0.9056 -0.8210
 2579SOL    HW2 8551   2.124   1.603   3.954 -0.8169 -1.1862  0.3820
 2580SOL     OW 8552   0.969   2.201   5.948 -0.1581  0.6243  0.0820
 2580SOL    HW1 8553   0.985   2.205   6.042 -1.3452  0.8780  0.2805
 2580SOL    HW2 8554   0.952   2.108   5.930  2.9508  0.0968 -0.3856
 2581SOL     OW 8555   7.997   6.224   7.381 -0.2078 -0.8540  0.0302
 2581SOL    HW1 8556   7.934   6.256   7.317 -0.1334  1.8632  1.2500
 2581SOL    HW2 8557   7.944   6.187   7.451 -0.5239  1.4923  1.0869
 2582SOL     OW 8558   1.383   1.018   0.203  0.0811 -0.4865  0.0947
 2582SOL    HW1 8559   1.437   0.939   0.200 -1.4498 -1.5258 -0.9450
 2582SOL    HW2 8560   1.379   1.041   0.295 -0.0197 -2.0246  0.4902
 2583SOL     OW 8561   3.595   7.738   5.852  0.3828  0.0252  0.0510
 2583SOL    HW1 8562   3.568   7.809   5.794 -1.0108 -0.3827  0.1997
 2583SOL    HW2 8563   3.567   7.658   5.808 -1.2722 -0.2525  1.5747
 2584SOL     OW 8564   1.910   0.147   2.913 -0.0642 -0.3034  0.2417
 2584SOL    HW1 8565   1.918   0.170   2.820  0.4633  0.8177  0.5583
 2584SOL    HW2 8566   1.990   0.099   2.933 -0.1074 -0.4100  0.1614
 2585SOL     OW 8567   7.729   2.525   6.216 -0.4702  0.3124 -0.0892
 2585SOL    HW1 8568   7.736   2.553   6.125  0.9886  0.8121  0.1609
 2585SOL    HW2 8569   7.716   2.607   6.265  0.7866  0.2664  0.3436
 2586SOL     OW 8570   2.676   5.507   0.603 -0.2289  0.4910 -0.4075
 2586SOL    HW1 8571   2.585   5.495   0.630 -0.0254 -1.3741 -0.4690
 2586SOL    HW2 8572   2.708   5.418   0.585  0.4399  1.3904 -4.1587
 2587SOL     OW 8573   6.076   0.347   0.182 -0.5952 -0.0563 -0.2222
 2587SOL    HW1 8574   6.137   0.273   0.179 -0.5790 -0.0287 -0.7192
 2587SOL    HW2 8575   6.074   0.373   0.274 -0.2393 -0.3763 -0.1213
 2588SOL     OW 8576   0.580   2.954   6.748 -0.3585  0.6790  0.1629
 2588SOL    HW1 8577   0.674   2.961   6.728 -0.1869 -1.3590  0.1522
 2588SOL    HW2 8578   0.577   2.920   6.837 -1.0878  0.5730  0.0996
 2589SOL     OW 8579   7.348   2.284   4.575  0.3670  0.0355 -0.2702
 2589SOL    HW1 8580   7.321   2.227   4.647  0.9896  0.0475 -0.0263
 2589SOL    HW2 8581   7.373   2.366   4.618  0.0396  0.2922 -0.5663
 2590SOL     OW 8582   3.898   7.638   7.903 -0.0479  0.1016 -0.2008
 2590SOL    HW1 8583   3.852   7.668   7.824 -0.6927 -1.0124 -0.2570
 2590SOL    HW2 8584   3.900   7.543   7.895  1.1721  0.0641  0.4217
 2591SOL     OW 8585   0.546   2.707   4.494  0.2106  0.0653  0.6780
 2591SOL    HW1 8586   0.604   2.754   4.435  0.7951 -1.1523  0.2760
 2591SOL    HW2 8587   0.602   2.679   4.566  0.1553 -1.2657  0.2029
 2592SOL     OW 8588   4.149   3.136   1.496  0.0481  0.0509 -0.0379
 2592SOL    HW1 8589   4.094   3.211   1.472  1.0496  0.5328 -0.8995
 2592SOL    HW2 8590   4.116   3.108   1.582 -0.6356  1.1905  0.0829
 2593SOL     OW 8591   3.978   2.659   2.236 -0.4851 -0.2054 -0.4383
 2593SOL    HW1 8592   4.029   2.719   2.290  1.2979 -0.5418 -1.7001
 2593SOL    HW2 8593   3.901   2.710   2.209 -0.6460  0.4316  1.1636
 2594SOL     OW 8594   6.122   7.156   3.359  0.2290  0.0570  0.1572
 2594SOL    HW1 8595   6.029   7.174   3.375  0.3337 -0.2468  1.1126
 2594SOL    HW2 8596   6.160   7.241   3.337 -0.7263 -0.1440 -2.5660
 2595SOL     OW 8597   4.814   5.888   6.193 -0.3833  0.3159 -0.3410
 2595SOL    HW1 8598   4.747   5.822   6.210  0.9223 -1.1729 -0.8795
 2595SOL    HW2 8599   4.790   5.962   6.250 -2.2303 -0.3414 -0.2345
 2596SOL     OW 8600   0.421   0.168   3.966 -0.0731 -0.4472  0.4013
 2596SOL    HW1 8601   0.472   0.174   4.047  1.0870  0.1991 -0.3531
 2596SOL    HW2 8602   0.336   0.205   3.989  1.0680  2.0981  0.6875
 2597SOL     OW 8603   4.194   4.905   4.565  0.3261 -0.3985  0.4486
 2597SOL    HW1 8604   4.278   4.885   4.606  0.1974  0.6577  1.2306
 2597SOL    HW2 8605   4.135   4.835   4.594  0.8192 -0.9031  0.2386
 2598SOL     OW 8606   4.860   3.181   4.465  0.0656  0.3534  0.4664
 2598SOL    HW1 8607   4.855   3.237   4.387  1.3359 -0.5637 -0.2857
 2598SOL    HW2 8608   4.897   3.238   4.533  1.0991  0.5194 -0.2264
 2599SOL     OW 8609   6.947   7.298   5.558 -0.2689 -0.5261 -0.4421
 2599SOL    HW1 8610   6.856   7.284   5.534 -0.5519 -1.0067  0.8405
 2599SOL    HW2 8611   6.974   7.376   5.509 -1.9444  0.7246  0.5676
 2600SOL     OW 8612   1.680   7.194   2.314  0.7215 -0.7281 -0.0453
 2600SOL    HW1 8613   1.599   7.150   2.290  0.0461  0.2390  0.3837
 2600SOL    HW2 8614   1.699   7.162   2.402  0.6097 -0.7033 -0.0109
 2601SOL     OW 8615   4.496   6.469   4.688 -0.0905 -0.0383  0.3967
 2601SOL    HW1 8616   4.574   6.447   4.739 -0.6852 -1.6960  0.6310
 2601SOL    HW2 8617   4.423   6.433   4.739 -0.9030  0.4077 -0.4328
 2602SOL     OW 8618   2.620   6.280   7.673 -0.3176  0.1332 -0.2652
 2602SOL    HW1 8619   2.625   6.319   7.760 -1.1935 -0.4768  0.0689
 2602SOL    HW2 8620   2.598   6.354   7.615 -1.3515  0.2546  0.2734
 2603SOL     OW 8621   2.136   3.371   4.179 -0.1648  0.6701 -0.1407
 2603SOL    HW1 8622   2.223   3.330   4.175 -0.0803  0.6028  2.0272
 2603SOL    HW2 8623   2.077   3.299   4.200 -0.0641  1.5125  3.3511
 2604SOL     OW 8624   2.162   4.480   7.321 -0.0237 -0.9278 -0.0774
 2604SOL    HW1 8625   2.133   4.458   7.410  0.2490  1.0721  0.5383
 2604SOL    HW2 8626   2.093   4.449   7.264 -2.8420  2.5178  1.2470
 2605SOL     OW 8627   3.434   6.615   1.730 -0.2568  0.1045  0.2059
 2605SOL    HW1 8628   3.434   6.711   1.726 -0.7119  0.1951  2.1373
 2605SOL    HW2 8629   3.480   6.588   1.650  0.8255  1.9430  0.1794
 2606SOL     OW 8630   4.272   5.536   3.810  0.0981 -0.3915 -0.2962
 2606SOL    HW1 8631   4.217   5.489   3.872 -0.2599  0.9275  0.4122
 2606SOL    HW2 8632   4.212   5.595   3.764  0.7753  0.4748 -0.0925
 2607SOL     OW 8633   1.971   4.926   2.855  0.3329  0.4539 -0.1523
 2607SOL    HW1 8634   2.043   4.970   2.811  0.8733  0.7580  1.0146
 2607SOL    HW2 8635   1.942   4.859   2.793  2.1468 -0.2092 -0.3353
 2608SOL     OW 8636   5.286   3.502   6.995 -0.3456 -0.0385 -0.6014
 2608SOL    HW1 8637   5.221   3.504   7.065  0.5143 -2.2955  0.2942
 2608SOL    HW2 8638   5.255   3.434   6.936  0.9969 -0.8713 -0.3633
 2609SOL     OW 8639   6.553   1.881   5.728  0.4917 -0.3032 -0.1296
 2609SOL    HW1 8640   6.486   1.934   5.771 -1.0209 -2.0074 -0.3226
 2609SOL    HW2 8641   6.627   1.881   5.790 -0.2541  0.3237  0.7812
 2610SOL     OW 8642   5.032   0.014   1.794  0.1481 -0.3820  0.6982
 2610SOL    HW1 8643   4.950  -0.030   1.812 -0.9072  0.9938 -0.6332
 2610SOL    HW2 8644   5.074  -0.039   1.726 -0.7132  0.1853 -0.2801
 2611SOL     OW 8645   4.766   4.080   0.942 -0.0268 -0.2300  0.1062
 2611SOL    HW1 8646   4.697   4.016   0.926 -0.0859 -0.0463 -0.3921
 2611SOL    HW2 8647   4.721   4.165   0.945 -0.2665 -0.4189  3.1007
 2612SOL     OW 8648   1.322   2.932   4.488 -0.5378 -0.7639  0.3553
 2612SOL    HW1 8649   1.246   2.960   4.539 -0.7659 -0.3465 -0.2201
 2612SOL    HW2 8650   1.380   2.891   4.553 -1.3506 -1.2976  0.7609
 2613SOL     OW 8651   4.363   7.719   2.808 -0.1272  0.2869 -0.1974
 2613SOL    HW1 8652   4.419   7.707   2.731  0.3064  1.2326 -0.0346
 2613SOL    HW2 8653   4.421   7.705   2.882 -0.4412 -0.1831 -0.0420
 2614SOL     OW 8654   2.462   1.922   2.303  0.1194 -0.0328 -0.0042
 2614SOL    HW1 8655   2.554   1.931   2.325 -0.3175  1.3269  1.3761
 2614SOL    HW2 8656   2.428   2.012   2.306 -0.6857 -0.1927 -3.0848
 2615SOL     OW 8657   7.767   6.322   0.791 -0.3696  0.1958 -0.0968
 2615SOL    HW1 8658   7.729   6.253   0.737  1.7880 -0.2411 -1.1328
 2615SOL    HW2 8659   7.760   6.289   0.881 -0.3993 -0.8577 -0.4821
 2616SOL     OW 8660   1.282   0.992   6.757  0.3297  0.5958  0.3466
 2616SOL    HW1 8661   1.267   0.974   6.664 -2.5444 -1.4782  1.1624
 2616SOL    HW2 8662   1.219   1.061   6.778  0.3672  0.4484  0.9502
 2617SOL     OW 8663   6.036   0.112   1.456 -0.3303  0.0397  0.0736
 2617SOL    HW1 8664   6.023   0.111   1.551 -0.0858  1.9111  0.1527
 2617SOL    HW2 8665   6.107   0.049   1.440  2.1352  2.3564  1.5562
 2618SOL     OW 8666   6.360   5.017   3.183 -0.3351 -0.1108  0.3096
 2618SOL    HW1 8667   6.400   4.949   3.128 -1.9312  0.2789 -1.4040
 2618SOL    HW2 8668   6.387   5.100   3.143 -0.4235  0.2189  0.9208
 2619SOL     OW 8669   6.999   5.444   1.777 -0.0122  0.0556 -0.1018
 2619SOL    HW1 8670   7.055   5.499   1.832 -0.8211  0.7395  0.0690
 2619SOL    HW2 8671   7.027   5.463   1.688 -1.1164  1.7360 -0.1230
 2620SOL     OW 8672   5.652   5.357   0.536  0.7491 -0.4558 -0.1276
 2620SOL    HW1 8673   5.728   5.322   0.490  2.0216 -1.1460  2.3687
 2620SOL    HW2 8674   5.625   5.286   0.595  0.1645  0.9374  1.3155
 2621SOL     OW 8675   7.827   2.957   1.341  0.3546 -0.5030  0.4156
 2621SOL    HW1 8676   7.748   2.919   1.379  0.8958 -0.6538  1.4123
 2621SOL    HW2 8677   7.796   3.030   1.288 -0.6216 -1.7478 -0.7538
 2622SOL     OW 8678   1.895   1.303   5.351  0.0427 -0.1131  0.2644
 2622SOL    HW1 8679   1.876   1.303   5.257 -0.1378  1.5050  0.2860
 2622SOL    HW2 8680   1.953   1.228   5.364 -0.9239 -1.0897 -0.9247
 2623SOL     OW 8681   3.804   2.179   6.721 -0.1496  0.0660 -0.2349
 2623SOL    HW1 8682   3.857   2.221   6.653 -1.7021  2.4195 -0.0232
 2623SOL    HW2 8683   3.783   2.248   6.783 -1.1855 -1.4235  1.1362
 2624SOL     OW 8684   1.870   1.463   3.362  0.8188 -0.4353 -0.6452
 2624SOL    HW1 8685   1.922   1.417   3.428  0.3569  0.1335  0.1221
 2624SOL    HW2 8686   1.935   1.496   3.300  1.3315 -0.1726  0.0272
 2625SOL     OW 8687   5.050   3.755   5.627  0.2523  0.5366 -0.0938
 2625SOL    HW1 8688   5.048   3.841   5.585 -0.9579  1.3152  1.5061
 2625SOL    HW2 8689   4.962   3.720   5.614  0.9621 -0.8142 -1.3975
 2626SOL     OW 8690   4.240   4.052   3.280  0.2827 -0.2889 -0.1129
 2626SOL    HW1 8691   4.276   4.001   3.207  1.0118  0.6857 -0.4519
 2626SOL    HW2 8692   4.156   4.083   3.247  0.0646 -0.8514 -0.0916
 2627SOL     OW 8693   7.573   2.205   2.383  0.4298  0.1613  0.5862
 2627SOL    HW1 8694   7.498   2.164   2.426 -0.1780  0.4195 -0.2140
 2627SOL    HW2 8695   7.537   2.243   2.303  1.2063  1.2757  0.7564
 2628SOL     OW 8696   3.600   1.582   6.988 -0.2377  0.2089 -0.7765
 2628SOL    HW1 8697   3.599   1.493   6.954 -1.3373 -0.1951  0.2945
 2628SOL    HW2 8698   3.508   1.601   7.010  0.0406  1.4577 -0.6246
 2629SOL     OW 8699   4.439   3.776   3.259 -0.6417 -0.0621  0.0744
 2629SOL    HW1 8700   4.418   3.804   3.170 -1.7964 -0.6362  0.1677
 2629SOL    HW2 8701   4.520   3.824   3.280 -0.4030  0.1353 -1.2433
 2630SOL     OW 8702   5.453   3.251   1.647 -0.1838  0.1845 -0.3733
 2630SOL    HW1 8703   5.514   3.188   1.684  1.1313  1.8745  0.4059
 2630SOL    HW2 8704   5.472   3.333   1.693 -3.7573  0.5339  0.6640
 2631SOL     OW 8705   5.046   1.705   2.535 -0.1246 -0.4753  0.6265
 2631SOL    HW1 8706   4.978   1.647   2.568  0.0064  0.4792  2.6044
 2631SOL    HW2 8707   5.018   1.793   2.558  0.0992  0.2289 -1.6099
 2632SOL     OW 8708   2.035   7.355   4.039  0.1374  0.0537 -0.6339
 2632SOL    HW1 8709   1.996   7.412   4.105 -0.6629  0.7573 -1.7072
 2632SOL    HW2 8710   1.966   7.291   4.020  0.0765  0.3514 -1.3984
 2633SOL     OW 8711   2.590   0.748   6.007  0.0416  0.2122  0.4702
 2633SOL    HW1 8712   2.577   0.841   6.024  2.0763  0.3836  1.1977
 2633SOL    HW2 8713   2.573   0.705   6.091  1.1332  0.1521  0.6711
 2634SOL     OW 8714   2.700   5.515   4.667 -0.1170  0.3330  0.2651
 2634SOL    HW1 8715   2.741   5.588   4.619  2.0517  0.3987  2.1023
 2634SOL    HW2 8716   2.718   5.438   4.613 -0.8764  0.8876 -0.8072
 2635SOL     OW 8717   3.606   7.787   3.761  0.2633 -0.4392  0.0185
 2635SOL    HW1 8718   3.568   7.719   3.705  0.7299 -1.8219  1.3393
 2635SOL    HW2 8719   3.661   7.839   3.702 -2.3896  0.6505 -1.6192
 2636SOL     OW 8720   7.350   0.166   6.012 -0.6828  0.2054 -0.1830
 2636SOL    HW1 8721   7.398   0.210   5.942 -0.3328  2.0224  1.1569
 2636SOL    HW2 8722   7.261   0.158   5.978 -0.5436  1.2056 -0.8114
 2637SOL     OW 8723   0.294   0.670   3.261  0.0190  0.3211 -0.7487
 2637SOL    HW1 8724   0.296   0.661   3.166  0.9451  0.0198 -0.7092
 2637SOL    HW2 8725   0.329   0.587   3.294  0.2722  0.6518 -0.1689
 2638SOL     OW 8726   7.586   3.140   2.974 -0.0675  0.7228  0.1230
 2638SOL    HW1 8727   7.600   3.233   2.992  0.3982  0.9956 -1.5280
 2638SOL    HW2 8728   7.667   3.098   3.004  0.9058  1.2310 -1.7373
 2639SOL     OW 8729   2.861   3.899   2.003  0.1856  0.4299 -0.2610
 2639SOL    HW1 8730   2.928   3.853   1.953 -2.0678 -1.9309 -1.2505
 2639SOL    HW2 8731   2.847   3.981   1.955  0.2450 -0.4293 -1.7849
 2640SOL     OW 8732   1.120   5.992   4.591 -0.4630 -0.0815  0.5051
 2640SOL    HW1 8733   1.080   5.908   4.566  0.1834  0.3158 -1.9845
 2640SOL    HW2 8734   1.098   6.051   4.519 -0.3491  1.7345  1.9302
 2641SOL     OW 8735   1.650   6.557   6.762  0.4093 -0.4586  0.0369
 2641SOL    HW1 8736   1.587   6.586   6.696  0.2095 -1.2625 -0.1358
 2641SOL    HW2 8737   1.624   6.467   6.782  1.0751 -0.5585  0.4789
 2642SOL     OW 8738   7.254   7.781   7.212 -0.0552  0.4117  0.1461
 2642SOL    HW1 8739   7.159   7.771   7.218 -0.2121 -0.1246 -2.8082
 2642SOL    HW2 8740   7.269   7.825   7.129  2.3649 -0.7378 -0.0682
 2643SOL     OW 8741   1.544   3.766   6.202  0.3067 -0.2634  0.3299
 2643SOL    HW1 8742   1.483   3.800   6.137  1.8133  1.0207 -0.4319
 2643SOL    HW2 8743   1.546   3.672   6.185  1.3463  0.1437 -2.0995
 2644SOL     OW 8744   0.006   7.687   6.063  0.2523  0.2007  0.2197
 2644SOL    HW1 8745  -0.040   7.613   6.103 -1.6360  1.2598  0.1033
 2644SOL    HW2 8746  -0.023   7.763   6.114  0.6384  1.1098 -0.8898
 2645SOL     OW 8747   2.405   2.894   4.768 -0.1715 -0.7074  0.2027
 2645SOL    HW1 8748   2.439   2.954   4.701 -2.5267 -0.6148 -0.9630
 2645SOL    HW2 8749   2.447   2.810   4.750  2.6414  0.3729  1.4272
 2646SOL     OW 8750   0.731   7.806   4.348 -0.1756  0.3017 -0.2800
 2646SOL    HW1 8751   0.667   7.845   4.408  0.3793  0.2780  0.3227
 2646SOL    HW2 8752   0.813   7.852   4.367  0.5707 -1.4165  0.6717
 2647SOL     OW 8753   3.366   4.941   1.209  0.2992  0.0121  0.3308
 2647SOL    HW1 8754   3.296   4.875   1.211 -0.6812  1.0148 -0.1950
 2647SOL    HW2 8755   3.344   4.996   1.134  2.1345 -0.1675 -0.3554
 2648SOL     OW 8756   7.711   2.746   3.405 -0.1528  0.4820  0.1055
 2648SOL    HW1 8757   7.631   2.720   3.451  0.9646  1.1945  2.5755
 2648SOL    HW2 8758   7.725   2.837   3.433 -0.3403  1.5565 -3.0481
 2649SOL     OW 8759   3.822   4.127   0.408  0.4337 -0.0323  0.1013
 2649SOL    HW1 8760   3.832   4.034   0.430  0.5089 -0.3270 -1.1670
 2649SOL    HW2 8761   3.898   4.169   0.448  1.0602 -0.7056 -0.3633
 2650SOL     OW 8762   1.175   6.972   2.335 -0.4728 -0.6458  0.3641
 2650SOL    HW1 8763   1.122   6.892   2.340  1.4624 -1.9615  0.1343
 2650SOL    HW2 8764   1.253   6.953   2.388  2.0206 -0.5102 -3.0993
 2651SOL     OW 8765   7.578   3.726   2.587 -0.4916  0.0207  0.0184
 2651SOL    HW1 8766   7.587   3.789   2.515  1.5160  1.0899  1.1534
 2651SOL    HW2 8767   7.527   3.773   2.653 -2.3794 -0.9780 -0.6867
 2652SOL     OW 8768   0.317   7.787   0.349 -0.4146 -0.4267 -0.2621
 2652SOL    HW1 8769   0.357   7.708   0.311  1.2051  0.4894 -0.5171
 2652SOL    HW2 8770   0.268   7.755   0.424  0.1686 -1.7047 -0.4010
 2653SOL     OW 8771   1.354   3.333   7.108 -0.7508  0.4603  0.2329
 2653SOL    HW1 8772   1.360   3.363   7.017 -0.8715  0.3592  0.1912
 2653SOL    HW2 8773   1.264   3.302   7.116 -0.2195 -1.2600 -0.1466
 2654SOL     OW 8774   1.342   1.848   6.424  0.3478 -0.6477  0.0094
 2654SOL    HW1 8775   1.402   1.779   6.395  1.2029  0.2577 -0.4189
 2654SOL    HW2 8776   1.346   1.914   6.354 -0.6962 -0.3047  0.2674
 2655SOL     OW 8777   0.288   5.118   2.532 -0.3015 -0.4440  0.7934
 2655SOL    HW1 8778   0.304   5.149   2.443  0.2066 -1.7898  0.4034
 2655SOL    HW2 8779   0.343   5.040   2.540  1.2288  0.7896  2.9648
 2656SOL     OW 8780   3.686   6.211   7.133  0.0806 -0.3674  0.0272
 2656SOL    HW1 8781   3.779   6.194   7.150 -0.2115 -2.6510 -0.5533
 2656SOL    HW2 8782   3.681   6.223   7.038 -0.2296 -0.3436  0.0454
 2657SOL     OW 8783   4.303   7.878   0.292  0.8220  0.0200  0.0777
 2657SOL    HW1 8784   4.330   7.927   0.370  0.1174  1.4394 -0.5442
 2657SOL    HW2 8785   4.225   7.925   0.260  0.6108 -1.0352 -1.0026
 2658SOL     OW 8786   5.753   2.152   0.747  0.3415 -0.4523 -0.4966
 2658SOL    HW1 8787   5.797   2.229   0.783  0.1813 -1.0166  0.9555
 2658SOL    HW2 8788   5.661   2.165   0.768  0.1163 -0.3263 -1.5714
 2659SOL     OW 8789   2.614   4.963   7.112 -0.3536  0.2409  0.1261
 2659SOL    HW1 8790   2.683   4.975   7.048 -0.4987 -0.7881 -0.2392
 2659SOL    HW2 8791   2.642   5.014   7.188  1.3753 -1.0623  0.4031
 2660SOL     OW 8792   3.231   4.179   7.742 -0.4524  0.5232 -0.3149
 2660SOL    HW1 8793   3.255   4.178   7.834  0.1162 -0.3662 -0.4662
 2660SOL    HW2 8794   3.314   4.180   7.695 -0.7054 -0.7858 -0.8224
 2661SOL     OW 8795   3.797   4.856   6.050  0.3099 -0.0235 -0.2402
 2661SOL    HW1 8796   3.838   4.835   6.134  1.1514  0.0920 -0.6101
 2661SOL    HW2 8797   3.710   4.818   6.055  0.8490 -1.2428  0.1491
 2662SOL     OW 8798   6.689   6.715   7.550 -0.1939 -0.1037 -0.2711
 2662SOL    HW1 8799   6.608   6.714   7.600 -0.5622 -0.4805 -0.8679
 2662SOL    HW2 8800   6.701   6.807   7.527 -1.4152 -0.2837 -1.7098
 2663SOL     OW 8801   4.947   3.911   4.268  0.0992 -0.2735  0.5564
 2663SOL    HW1 8802   4.920   3.828   4.306 -1.6688 -0.8923 -1.9017
 2663SOL    HW2 8803   5.025   3.890   4.216  0.4019 -0.1434  0.9582
 2664SOL     OW 8804   6.012   6.729   1.898 -0.6635  0.2850 -0.3914
 2664SOL    HW1 8805   6.034   6.701   1.809  1.6765 -1.8464  0.7921
 2664SOL    HW2 8806   6.093   6.767   1.932 -1.0198 -0.5063  1.4179
 2665SOL     OW 8807   3.366   2.445   1.160 -0.4965 -0.1241  0.5043
 2665SOL    HW1 8808   3.285   2.402   1.132  0.6371 -2.2582  0.3975
 2665SOL    HW2 8809   3.382   2.411   1.248  0.4869  0.0129  0.3752
 2666SOL     OW 8810   6.740   2.254   5.029 -0.3999 -0.0258  0.0710
 2666SOL    HW1 8811   6.763   2.340   5.064 -0.6737  0.2148 -0.3432
 2666SOL    HW2 8812   6.660   2.230   5.076 -0.8632  0.3731 -0.5117
 2667SOL     OW 8813   4.617   6.351   2.353  0.0153  0.1693 -0.3388
 2667SOL    HW1 8814   4.528   6.345   2.317  0.2391 -0.7648 -0.7568
 2667SOL    HW2 8815   4.673   6.350   2.276  0.3891  0.8418 -0.0770
 2668SOL     OW 8816   0.574   4.728   1.347 -0.1858 -0.5838 -0.2106
 2668SOL    HW1 8817   0.492   4.685   1.324  0.4842  0.0760 -4.2170
 2668SOL    HW2 8818   0.548   4.814   1.378 -1.0874 -0.7188 -0.5759
 2669SOL     OW 8819   5.409   2.314   7.239 -0.2073  0.6639  0.0466
 2669SOL    HW1 8820   5.324   2.272   7.253 -0.6082  1.6214  0.4976
 2669SOL    HW2 8821   5.434   2.348   7.325  0.7632  0.1535 -0.0267
 2670SOL     OW 8822   4.806   2.668   5.220  0.2064 -0.3714 -0.1509
 2670SOL    HW1 8823   4.855   2.664   5.302  1.1076 -0.5419 -0.6910
 2670SOL    HW2 8824   4.873   2.686   5.154 -0.6375  0.6580 -0.7286
 2671SOL     OW 8825   4.410   4.129   1.653  0.0437 -0.3772 -0.6049
 2671SOL    HW1 8826   4.369   4.211   1.681  1.7764  0.7748 -1.3538
 2671SOL    HW2 8827   4.385   4.121   1.561 -0.8430 -1.1540 -0.3043
 2672SOL     OW 8828   4.131   1.983   3.732 -0.0895  0.0770  0.0776
 2672SOL    HW1 8829   4.117   1.929   3.655  0.4508 -1.2107  0.8538
 2672SOL    HW2 8830   4.046   2.025   3.748 -0.2889  0.1080 -1.0209
 2673SOL     OW 8831   3.766   2.774   1.258  0.1259 -0.3237  0.3482
 2673SOL    HW1 8832   3.833   2.713   1.228 -0.1253 -1.1266  1.4188
 2673SOL    HW2 8833   3.683   2.731   1.239 -0.0957  0.6219 -0.8725
 2674SOL     OW 8834   5.387   6.559   1.765 -0.4664 -0.8481  0.5385
 2674SOL    HW1 8835   5.454   6.521   1.821 -0.3887 -1.2866  0.1456
 2674SOL    HW2 8836   5.362   6.640   1.810 -0.2421 -1.0822  1.0882
 2675SOL     OW 8837   0.948   5.775   3.321  0.4042  0.0810 -0.0639
 2675SOL    HW1 8838   1.027   5.735   3.358  0.7229  0.9535  0.2079
 2675SOL    HW2 8839   0.877   5.743   3.377  1.0483  2.4914  2.2005
 2676SOL     OW 8840   4.176   5.397   7.445  0.1763  0.3674  0.1074
 2676SOL    HW1 8841   4.237   5.426   7.512 -0.2023  1.8607 -0.1757
 2676SOL    HW2 8842   4.199   5.448   7.367 -0.7646  0.2005 -0.2944
 2677SOL     OW 8843   1.751   6.011   2.674 -0.3626 -0.1933 -0.2725
 2677SOL    HW1 8844   1.738   5.977   2.763 -0.3429  0.2090 -0.1152
 2677SOL    HW2 8845   1.663   6.038   2.647  0.1428  2.8237  0.9061
 2678SOL     OW 8846   5.667   6.598   3.531 -0.0388 -0.2259 -0.2578
 2678SOL    HW1 8847   5.637   6.670   3.587 -1.2180 -2.5286  2.1459
 2678SOL    HW2 8848   5.762   6.611   3.526 -0.1513  1.1429  0.6593
 2679SOL     OW 8849   5.339   6.029   1.355  0.7489 -0.0716 -0.2838
 2679SOL    HW1 8850   5.277   5.985   1.413  0.1817 -0.2071 -0.9783
 2679SOL    HW2 8851   5.362   6.110   1.401 -0.9688  0.6216 -0.6005
 2680SOL     OW 8852   2.284   0.294   6.707  0.2008 -0.2666  0.3801
 2680SOL    HW1 8853   2.278   0.256   6.795 -1.2528  1.2801  0.9915
 2680SOL    HW2 8854   2.312   0.384   6.722  1.0062 -0.3155 -0.8295
 2681SOL     OW 8855   1.322   7.417   5.451  0.0611  0.1745 -0.1427
 2681SOL    HW1 8856   1.263   7.353   5.491 -0.1646 -1.6126 -3.1486
 2681SOL    HW2 8857   1.397   7.421   5.510 -0.9886 -1.0974  1.3084
 2682SOL     OW 8858   5.322   3.520   2.898 -0.0832  0.0996  0.3882
 2682SOL    HW1 8859   5.366   3.565   2.826  1.4494  2.0112  2.4447
 2682SOL    HW2 8860   5.345   3.428   2.886  0.4000  0.4241 -1.3618
 2683SOL     OW 8861   5.271   0.893   7.679 -0.0799 -0.3024 -0.3310
 2683SOL    HW1 8862   5.354   0.871   7.722 -0.8996  0.2459  1.5394
 2683SOL    HW2 8863   5.293   0.892   7.585  1.9833 -0.3835  0.1194
 2684SOL     OW 8864   5.090   6.281   0.638  0.0844  0.1347 -0.0564
 2684SOL    HW1 8865   4.998   6.256   0.646  0.1296  0.0658  0.2414
 2684SOL    HW2 8866   5.104   6.343   0.710  0.2687  0.1513 -0.1074
 2685SOL     OW 8867   0.345   3.729   1.966 -0.2434  0.0083 -0.4033
 2685SOL    HW1 8868   0.434   3.705   1.988 -0.6230 -1.4056 -0.3495
 2685SOL    HW2 8869   0.330   3.811   2.011  1.1572  0.4602 -0.7354
 2686SOL     OW 8870   2.480   3.626   7.474  0.1278  0.1880 -0.1186
 2686SOL    HW1 8871   2.464   3.544   7.519  1.5730  0.5651  1.1123
 2686SOL    HW2 8872   2.470   3.605   7.381 -3.1176 -0.5315  0.3081
 2687SOL     OW 8873   1.686   6.319   0.418  0.7285 -0.5215  0.1510
 2687SOL    HW1 8874   1.760   6.292   0.364  0.3250 -1.3152 -0.0114
 2687SOL    HW2 8875   1.668   6.243   0.474 -0.3457 -0.5538 -0.2282
 2688SOL     OW 8876   5.847   0.232   0.399 -0.0621  1.0278 -0.6767
 2688SOL    HW1 8877   5.907   0.274   0.460  1.3848 -3.2964  1.0387
 2688SOL    HW2 8878   5.895   0.229   0.316  1.0211  0.1049 -0.0273
 2689SOL     OW 8879   5.079   4.826   4.516 -0.2565 -0.4123 -0.1730
 2689SOL    HW1 8880   4.999   4.864   4.552  0.6221  0.6150  0.7655
 2689SOL    HW2 8881   5.102   4.757   4.578  0.9334  0.9654  0.9709
 2690SOL     OW 8882   5.491   3.196   7.679 -0.1239  0.0139 -0.1500
 2690SOL    HW1 8883   5.531   3.202   7.592  1.0946  0.5574  0.4383
 2690SOL    HW2 8884   5.538   3.125   7.722  0.6856  1.0695  0.7675
 2691SOL     OW 8885   4.139   0.632   3.196 -0.1029 -0.5499 -0.1333
 2691SOL    HW1 8886   4.099   0.706   3.151  1.6611  0.0797 -0.7143
 2691SOL    HW2 8887   4.173   0.670   3.278  1.2500 -0.5905 -0.6648
 2692SOL     OW 8888   2.132   1.474   3.300 -0.0509 -0.4755 -0.6833
 2692SOL    HW1 8889   2.217   1.490   3.341 -0.9874  0.0677  1.0862
 2692SOL    HW2 8890   2.144   1.393   3.251  1.3795 -0.5844 -0.1763
 2693SOL     OW 8891   7.408   0.662   2.788  0.0112 -0.6982  0.1616
 2693SOL    HW1 8892   7.321   0.623   2.798  0.0239 -0.4228  1.4711
 2693SOL    HW2 8893   7.413   0.686   2.695 -2.4671  1.9050  0.6142
 2694SOL     OW 8894   7.530   4.035   0.213 -0.0406 -0.2062 -0.1930
 2694SOL    HW1 8895   7.575   4.081   0.284  0.2412  1.1928 -1.2544
 2694SOL    HW2 8896   7.492   4.105   0.160  0.9699 -1.1569 -2.2183
 2695SOL     OW 8897   6.589   2.951   1.918  0.1216  0.1557  0.1658
 2695SOL    HW1 8898   6.658   2.952   1.852  0.5600 -1.6140  0.5653
 2695SOL    HW2 8899   6.550   2.865   1.910 -1.1610  0.6631  0.8642
 2696SOL     OW 8900   6.925   1.319   7.155  0.5544 -0.2992 -0.2247
 2696SOL    HW1 8901   6.912   1.397   7.099 -1.8718 -0.9811 -0.6696
 2696SOL    HW2 8902   6.852   1.322   7.217  1.7583 -0.9981  1.2471
 2697SOL     OW 8903   6.073   6.865   5.676 -0.7626 -0.2173 -0.3323
 2697SOL    HW1 8904   6.132   6.837   5.746  1.2383 -0.1432 -1.9414
 2697SOL    HW2 8905   6.022   6.936   5.715  1.8294  1.2992  0.4250
 2698SOL     OW 8906   6.844   6.455   0.652  0.0811  0.0093 -0.1229
 2698SOL    HW1 8907   6.768   6.440   0.597  0.5282  1.4838 -1.1827
 2698SOL    HW2 8908   6.869   6.368   0.684 -0.3194 -0.8262 -2.0627
 2699SOL     OW 8909   3.103   7.471   2.568 -0.0973  0.2365 -0.5215
 2699SOL    HW1 8910   3.073   7.521   2.644  1.6315 -2.8472  2.3591
 2699SOL    HW2 8911   3.164   7.529   2.523 -1.3557  2.2217  0.2853
 2700SOL     OW 8912   4.883   6.380   5.840 -0.0539  0.1467  0.0498
 2700SOL    HW1 8913   4.958   6.438   5.852 -0.7932  1.2423 -0.5993
 2700SOL    HW2 8914   4.922   6.292   5.833  1.0925  0.6011  0.6127
 2701SOL     OW 8915   3.918   5.355   1.291  0.1415  0.0817  0.2219
 2701SOL    HW1 8916   3.876   5.430   1.332 -0.6732 -0.8980  1.2294
 2701SOL    HW2 8917   3.981   5.324   1.357 -0.2918 -0.7628  0.2415
 2702SOL     OW 8918   4.134   0.056   7.125  0.4796  0.1427 -0.7009
 2702SOL    HW1 8919   4.104   0.003   7.052 -1.1919 -0.1702  0.2022
 2702SOL    HW2 8920   4.061   0.057   7.187  2.3259 -0.7007  1.5872
 2703SOL     OW 8921   5.664   4.118   7.655 -0.1229 -0.0943  0.0824
 2703SOL    HW1 8922   5.732   4.095   7.719  1.1214 -0.7815 -1.4592
 2703SOL    HW2 8923   5.712   4.149   7.579 -1.6587  2.4757  0.1292
 2704SOL     OW 8924   2.521   0.202   3.684 -0.2451  0.1633  0.1573
 2704SOL    HW1 8925   2.450   0.262   3.706 -1.9030 -1.9946  0.8985
 2704SOL    HW2 8926   2.524   0.141   3.757  1.7942 -0.3048 -0.2949
 2705SOL     OW 8927   2.143   0.886   7.077  0.0728  0.1914  0.5314
 2705SOL    HW1 8928   2.160   0.888   7.171  0.4326  0.6967  0.4594
 2705SOL    HW2 8929   2.058   0.844   7.068  0.3497 -0.4904  1.0424
 2706SOL     OW 8930   0.577   2.610   7.238 -0.3500 -0.3783 -0.9238
 2706SOL    HW1 8931   0.556   2.616   7.331  0.7166 -2.8986 -0.4774
 2706SOL    HW2 8932   0.666   2.645   7.230 -0.2775 -0.5590 -0.9173
 2707SOL     OW 8933   5.396   2.768   0.186 -0.0501  0.0146 -0.2534
 2707SOL    HW1 8934   5.343   2.727   0.118  1.1284  1.4758 -2.0907
 2707SOL    HW2 8935   5.477   2.718   0.188  0.9958  1.5925 -1.8249
 2708SOL     OW 8936   4.420   0.098   4.737 -0.4282  0.1438 -0.0976
 2708SOL    HW1 8937   4.421   0.194   4.734  1.3090  0.1268 -0.3699
 2708SOL    HW2 8938   4.328   0.075   4.748 -1.1116  1.7881 -2.1696
 2709SOL     OW 8939   6.402   4.363   1.648  0.3899  0.0217  0.8490
 2709SOL    HW1 8940   6.498   4.363   1.652  0.4273 -0.3926  0.1120
 2709SOL    HW2 8941   6.374   4.358   1.739  1.0618  1.4627  1.1512
 2710SOL     OW 8942   5.550   6.722   4.108 -0.2904  0.4629  0.1609
 2710SOL    HW1 8943   5.485   6.732   4.038  0.8443  0.6523 -0.8888
 2710SOL    HW2 8944   5.596   6.806   4.111  0.5886 -0.0121  0.1927
 2711SOL     OW 8945   0.030   4.535   0.485 -0.4012 -0.1062  0.0600
 2711SOL    HW1 8946   0.070   4.505   0.403  0.2402 -0.2306  0.4158
 2711SOL    HW2 8947   0.037   4.630   0.481  0.7270 -0.1645  0.5160
 2712SOL     OW 8948   6.960   1.885   6.146 -0.6931  0.1934 -0.2717
 2712SOL    HW1 8949   6.967   1.790   6.139 -0.6443  0.2417 -0.8664
 2712SOL    HW2 8950   7.011   1.907   6.224 -1.3524 -0.3446  0.3254
 2713SOL     OW 8951   4.143   4.702   3.527  0.0527 -0.6441 -0.3048
 2713SOL    HW1 8952   4.067   4.731   3.577 -0.6080  0.3580 -1.8471
 2713SOL    HW2 8953   4.201   4.777   3.524  0.2057 -0.7809 -0.8190
 2714SOL     OW 8954   0.833   5.134   3.586  0.4511 -0.4276  0.0680
 2714SOL    HW1 8955   0.862   5.203   3.526 -0.2380  1.6049  2.0032
 2714SOL    HW2 8956   0.903   5.126   3.650 -0.5650  0.3016  1.3086
 2715SOL     OW 8957   1.124   0.583   6.779 -0.5435  0.2576  0.1821
 2715SOL    HW1 8958   1.128   0.674   6.809 -1.3437  0.0496  0.9462
 2715SOL    HW2 8959   1.168   0.584   6.694 -0.8375  1.4277  0.0276
 2716SOL     OW 8960   0.610   5.499   4.994 -0.6760 -0.4541 -0.0153
 2716SOL    HW1 8961   0.532   5.444   4.989 -1.0566  0.1148 -0.4959
 2716SOL    HW2 8962   0.600   5.549   5.075  0.0570 -1.6489  0.8346
 2717SOL     OW 8963   2.546   0.850   4.355 -0.2307 -0.1710  0.1322
 2717SOL    HW1 8964   2.633   0.891   4.352 -1.2914  2.2492  1.0487
 2717SOL    HW2 8965   2.537   0.820   4.445 -0.1420 -0.8926 -0.0981
 2718SOL     OW 8966   1.467   0.912   1.988 -0.4672  0.3339 -0.1347
 2718SOL    HW1 8967   1.440   0.845   2.052  1.6494  0.5117  0.9844
 2718SOL    HW2 8968   1.557   0.890   1.967 -0.5737  1.3567 -1.7030
 2719SOL     OW 8969   7.900   2.848   7.482 -0.6357  0.2485  0.0969
 2719SOL    HW1 8970   7.987   2.853   7.522 -0.4657  0.6118 -0.3086
 2719SOL    HW2 8971   7.908   2.779   7.415 -1.3000 -1.3209  1.6030
 2720SOL     OW 8972   1.918   7.907   0.423  0.1152 -0.7959  0.1215
 2720SOL    HW1 8973   2.002   7.873   0.455 -0.7644 -3.4079 -0.2019
 2720SOL    HW2 8974   1.937   7.939   0.335  1.5548  2.1660  1.4555
 2721SOL     OW 8975   0.857   3.976   3.340 -0.1991  0.1976 -0.1072
 2721SOL    HW1 8976   0.787   4.025   3.296 -0.8654 -0.2970  0.3997
 2721SOL    HW2 8977   0.819   3.890   3.358 -0.3322  0.7360  2.4112
 2722SOL     OW 8978   7.111   7.013   4.962  0.2067 -0.1426 -0.1305
 2722SOL    HW1 8979   7.076   7.089   4.915  1.3881  1.3739  1.3861
 2722SOL    HW2 8980   7.101   6.941   4.900 -1.4970  1.1081 -1.3917
 2723SOL     OW 8981   3.026   6.927   0.567 -0.4336  0.3052 -0.2232
 2723SOL    HW1 8982   2.989   6.919   0.655 -1.1161 -0.1985 -0.5533
 2723SOL    HW2 8983   2.969   6.991   0.523  0.2341  0.9710 -0.1260
 2724SOL     OW 8984   1.098   6.657   4.075 -0.0131 -0.3032  0.0895
 2724SOL    HW1 8985   1.118   6.749   4.096 -3.6522  0.2211  1.6630
 2724SOL    HW2 8986   1.139   6.607   4.145  2.5209  0.0470 -1.1126
 2725SOL     OW 8987   4.370   1.181   2.730  0.0255 -0.1795  0.4958
 2725SOL    HW1 8988   4.316   1.260   2.726  3.0902  1.9524 -0.0529
 2725SOL    HW2 8989   4.412   1.185   2.816  2.2042  0.1819 -0.5695
 2726SOL     OW 8990   0.485   0.785   3.757  0.1356  0.1928 -0.5432
 2726SOL    HW1 8991   0.490   0.833   3.839  0.6318 -0.8204  0.0327
 2726SOL    HW2 8992   0.576   0.773   3.730 -0.0176  0.3718 -1.1497
 2727SOL     OW 8993   1.492   6.944   6.783  0.5230 -0.0803 -0.4067
 2727SOL    HW1 8994   1.562   6.922   6.844 -0.1001 -0.1806  0.2854
 2727SOL    HW2 8995   1.533   6.942   6.697  1.7562  1.5134  0.1296
 2728SOL     OW 8996   4.013   6.456   2.594 -0.0672  0.0506  0.6010
 2728SOL    HW1 8997   3.995   6.499   2.511 -0.7332 -0.2073  0.6151
 2728SOL    HW2 8998   4.102   6.422   2.584 -0.3715 -0.4937 -0.2152
 2729SOL     OW 8999   6.448   5.825   6.947 -0.4105 -0.3651  0.2860
 2729SOL    HW1 9000   6.501   5.832   6.868 -1.1310  1.1623 -0.0885
 2729SOL    HW2 9001   6.372   5.773   6.921 -0.0020 -0.9890  0.3331
 2730SOL     OW 9002   6.648   4.297   6.493  0.1991 -0.1610 -0.6802
 2730SOL    HW1 9003   6.635   4.208   6.461 -2.5161  0.5715 -1.6957
 2730SOL    HW2 9004   6.616   4.295   6.583 -1.1721  0.1295 -1.1599
 2731SOL     OW 9005   3.811   0.463   1.247  0.2957  0.1790 -0.0487
 2731SOL    HW1 9006   3.757   0.473   1.169 -1.9119  2.8759  1.7117
 2731SOL    HW2 9007   3.753   0.425   1.313  1.8638 -1.2218  0.5614
 2732SOL     OW 9008   1.475   7.922   6.188 -0.3327  0.2165  0.1950
 2732SOL    HW1 9009   1.516   7.912   6.102 -1.1534  0.5597 -0.2375
 2732SOL    HW2 9010   1.409   7.854   6.192  1.0227 -1.0735  1.3543
 2733SOL     OW 9011   7.358   5.797   2.490 -0.2174  0.3631 -0.0402
 2733SOL    HW1 9012   7.361   5.760   2.402  0.4233 -0.8547  0.4790
 2733SOL    HW2 9013   7.337   5.889   2.477  1.3052  0.5210 -1.5698
 2734SOL     OW 9014   0.590   6.346   6.200 -0.3380 -0.2565  0.3749
 2734SOL    HW1 9015   0.549   6.279   6.146 -0.6705  0.4566 -0.2692
 2734SOL    HW2 9016   0.551   6.429   6.170  1.0759  0.3642  0.1817
 2735SOL     OW 9017   7.243   1.044   1.231  0.0368 -0.0065 -0.4061
 2735SOL    HW1 9018   7.316   0.983   1.223 -1.1072 -1.4256 -0.2435
 2735SOL    HW2 9019   7.268   1.102   1.303  0.4705 -1.2639  0.4718
 2736SOL     OW 9020   3.638   2.468   5.360 -0.0549  0.6106  0.2837
 2736SOL    HW1 9021   3.577   2.541   5.348 -2.1858 -0.7539  2.4327
 2736SOL    HW2 9022   3.706   2.503   5.418  0.1562  1.5257 -0.4947
 2737SOL     OW 9023   3.427   5.716   4.913 -0.0937 -0.0415 -0.4580
 2737SOL    HW1 9024   3.430   5.750   5.002 -1.9334  0.0521 -0.4156
 2737SOL    HW2 9025   3.469   5.630   4.919 -0.3756 -0.1192  0.5406
 2738SOL     OW 9026   7.939   0.518   2.355 -0.2300  0.0535  0.3755
 2738SOL    HW1 9027   7.991   0.498   2.277  1.3452 -0.8284  1.6246
 2738SOL    HW2 9028   7.970   0.604   2.383 -1.0165  0.5115 -0.1222
 2739SOL     OW 9029   4.527   7.560   4.656  0.2646 -0.5285  0.1064
 2739SOL    HW1 9030   4.536   7.620   4.730 -2.4344  0.3194 -0.1743
 2739SOL    HW2 9031   4.589   7.594   4.591  1.9858 -0.7340  1.5875
 2740SOL     OW 9032   5.340   6.371   7.297 -0.4695 -0.2380 -0.5037
 2740SOL    HW1 9033   5.260   6.424   7.289 -0.0257  0.4591 -0.3113
 2740SOL    HW2 9034   5.391   6.414   7.365  0.2975 -0.4010 -0.9790
 2741SOL     OW 9035   4.562   6.674   1.809  0.2668 -0.1640 -0.0739
 2741SOL    HW1 9036   4.502   6.747   1.828  0.2643  0.5701 -2.8025
 2741SOL    HW2 9037   4.647   6.715   1.797  0.1076 -0.5112 -2.4551
 2742SOL     OW 9038   3.347   2.082   1.388  0.4904  0.1831 -0.5166
 2742SOL    HW1 9039   3.397   2.109   1.465 -1.0900  1.7980 -0.0145
 2742SOL    HW2 9040   3.325   1.990   1.405  0.8766  0.2817  0.5594
 2743SOL     OW 9041   2.304   3.109   7.779  0.0316  0.5152 -0.4531
 2743SOL    HW1 9042   2.281   3.038   7.840  1.9049 -1.1717 -1.6182
 2743SOL    HW2 9043   2.319   3.064   7.696  1.4918  2.2737 -1.1600
 2744SOL     OW 9044   7.287   2.403   7.545 -0.2483  0.6056  0.3910
 2744SOL    HW1 9045   7.354   2.349   7.503  0.3989  0.9325  1.0045
 2744SOL    HW2 9046   7.243   2.446   7.471 -0.7423 -0.7004 -0.1000
 2745SOL     OW 9047   6.957   0.245   6.266 -0.1292  0.7021 -0.1080
 2745SOL    HW1 9048   6.910   0.246   6.182 -0.3562  1.3811  0.0146
 2745SOL    HW2 9049   7.022   0.176   6.257 -0.5369  0.3794 -0.6322
 2746SOL     OW 9050   6.982   5.425   0.704 -0.1935 -1.2606 -0.1478
 2746SOL    HW1 9051   6.908   5.435   0.644 -0.9147 -0.3226  0.8784
 2746SOL    HW2 9052   6.947   5.373   0.777  0.3896 -1.5325 -0.0619
 2747SOL     OW 9053   6.456   1.676   4.182  0.9670  0.1344  0.3210
 2747SOL    HW1 9054   6.399   1.602   4.205 -0.7659  0.8770 -1.3991
 2747SOL    HW2 9055   6.476   1.663   4.089  2.7827  0.4538  0.6542
 2748SOL     OW 9056   3.707   5.178   5.656 -0.5784  0.3119 -0.9666
 2748SOL    HW1 9057   3.632   5.186   5.598 -1.1504 -0.7911 -0.4027
 2748SOL    HW2 9058   3.712   5.261   5.702 -1.9297  0.1101 -0.4420
 2749SOL     OW 9059   1.543   5.556   1.039  0.0550 -0.2932 -0.0481
 2749SOL    HW1 9060   1.583   5.623   1.094  1.6565  0.1459 -1.6932
 2749SOL    HW2 9061   1.455   5.590   1.019 -0.4327 -0.3289  1.9419
 2750SOL     OW 9062   1.399   7.106   2.976  0.1921  0.4049 -0.4641
 2750SOL    HW1 9063   1.386   7.012   2.965  0.1077  0.2507  0.8116
 2750SOL    HW2 9064   1.326   7.146   2.929 -1.7713 -0.2833  1.8682
 2751SOL     OW 9065   6.453   4.769   1.903  0.1172 -0.2216 -0.6838
 2751SOL    HW1 9066   6.505   4.795   1.979 -0.4802  0.9203 -0.6468
 2751SOL    HW2 9067   6.508   4.789   1.828 -0.1276  0.6652 -0.6314
 2752SOL     OW 9068   4.448   4.313   7.147  0.1416  0.4259 -0.1153
 2752SOL    HW1 9069   4.454   4.297   7.053  1.8656 -0.9806  0.2071
 2752SOL    HW2 9070   4.420   4.230   7.184 -0.6015  0.9924  0.6103
 2753SOL     OW 9071   7.698   5.279   7.581  0.7102 -0.1204  0.0914
 2753SOL    HW1 9072   7.684   5.311   7.492  1.9145 -0.8157 -0.3594
 2753SOL    HW2 9073   7.614   5.241   7.607 -0.1344  1.5754 -0.1116
 2754SOL     OW 9074   2.680   0.741   6.831  0.3573  0.5279 -0.2467
 2754SOL    HW1 9075   2.642   0.806   6.890 -0.2928 -0.7433  0.7547
 2754SOL    HW2 9076   2.718   0.675   6.888  3.3058  1.2717 -1.2320
 2755SOL     OW 9077   2.480   3.925   1.884 -0.2859  0.3035  0.5585
 2755SOL    HW1 9078   2.497   4.006   1.836 -0.1051  0.1321  0.3265
 2755SOL    HW2 9079   2.385   3.922   1.893 -0.3772  0.0071 -0.3843
 2756SOL     OW 9080   5.119   2.592   1.043  1.0070 -0.7194  0.2381
 2756SOL    HW1 9081   5.029   2.617   1.021  0.6814 -0.7376  1.4678
 2756SOL    HW2 9082   5.110   2.502   1.077  1.5981 -1.0137 -0.3863
 2757SOL     OW 9083   4.794   6.385   0.823  0.1558 -0.3900  0.8710
 2757SOL    HW1 9084   4.791   6.316   0.757 -1.3141  1.0349 -0.6175
 2757SOL    HW2 9085   4.842   6.456   0.781 -2.2300  1.1576  0.6547
 2758SOL     OW 9086   6.819   6.280   1.410 -0.5501 -0.1849 -0.1553
 2758SOL    HW1 9087   6.793   6.193   1.442 -0.7303  0.3895  1.3221
 2758SOL    HW2 9088   6.912   6.271   1.389  0.1374 -0.0572  2.5964
 2759SOL     OW 9089   1.369   3.101   6.787  0.6650 -0.3804  0.3162
 2759SOL    HW1 9090   1.292   3.075   6.836  0.2032 -0.4848 -0.4708
 2759SOL    HW2 9091   1.441   3.053   6.828  0.1502 -1.1638  0.3061
 2760SOL     OW 9092   0.102   4.252   1.257  0.6622 -0.1761 -0.4371
 2760SOL    HW1 9093   0.038   4.183   1.273 -0.1752  1.0688  1.6346
 2760SOL    HW2 9094   0.187   4.207   1.263  0.0846 -1.3038 -0.5864
 2761SOL     OW 9095   3.824   7.816   6.147 -0.0001 -0.2157 -0.3494
 2761SOL    HW1 9096   3.866   7.895   6.114 -0.1292 -0.2448 -0.5853
 2761SOL    HW2 9097   3.733   7.841   6.163  0.2310 -0.0141  0.6622
 2762SOL     OW 9098   5.132   6.071   5.950  0.2945 -0.1413  0.6007
 2762SOL    HW1 9099   5.086   6.143   5.994 -1.0735 -1.0469  0.6846
 2762SOL    HW2 9100   5.209   6.055   6.004  0.0078  0.5127  1.2093
 2763SOL     OW 9101   6.777   2.564   4.288 -0.2892  0.5265 -0.0322
 2763SOL    HW1 9102   6.687   2.595   4.277 -1.1249 -1.5306  0.7835
 2763SOL    HW2 9103   6.830   2.627   4.240 -2.2326  1.4028 -1.0732
 2764SOL     OW 9104   0.930   7.764   7.407 -0.5194 -0.4475 -0.5713
 2764SOL    HW1 9105   0.839   7.759   7.381 -1.5561 -0.4773  2.7655
 2764SOL    HW2 9106   0.950   7.858   7.409 -0.5880 -0.4268 -0.9923
 2765SOL     OW 9107   7.303   1.609   6.839 -0.0987 -0.0381 -0.4680
 2765SOL    HW1 9108   7.337   1.527   6.804  0.2127  0.3338 -1.0452
 2765SOL    HW2 9109   7.341   1.676   6.783 -0.7648  0.4662 -0.3171
 2766SOL     OW 9110   4.245   5.888   0.326 -0.6927 -0.2144  0.1275
 2766SOL    HW1 9111   4.214   5.907   0.237  0.6293  1.1669 -0.0413
 2766SOL    HW2 9112   4.339   5.873   0.316 -0.5700 -0.2382  1.2801
 2767SOL     OW 9113   3.879   1.608   1.517  0.4179  0.0754 -0.4820
 2767SOL    HW1 9114   3.871   1.702   1.502  0.5057  0.2195  0.3911
 2767SOL    HW2 9115   3.849   1.569   1.434 -1.6364  0.8167 -0.1315
 2768SOL     OW 9116   4.485   5.408   3.736 -0.5903  0.5759 -0.0876
 2768SOL    HW1 9117   4.394   5.435   3.738  0.0199  2.8017 -0.4957
 2768SOL    HW2 9118   4.504   5.381   3.826 -1.5070  0.5561  0.1016
 2769SOL     OW 9119   2.728   7.348   2.481 -0.0314  0.6442 -0.4577
 2769SOL    HW1 9120   2.683   7.285   2.538  1.6617 -0.5370 -0.3776
 2769SOL    HW2 9121   2.727   7.430   2.530  2.3393 -0.6142  1.7938
 2770SOL     OW 9122   6.129   7.751   4.899 -0.1124 -0.1901  0.0201
 2770SOL    HW1 9123   6.184   7.676   4.877 -1.4352 -1.0982 -0.2623
 2770SOL    HW2 9124   6.133   7.756   4.995  1.2514  0.3750 -0.0537
 2771SOL     OW 9125   3.039   1.366   2.335 -0.1374 -0.0738 -0.6047
 2771SOL    HW1 9126   3.096   1.303   2.292  0.4906  1.6691 -2.4160
 2771SOL    HW2 9127   2.994   1.411   2.263 -0.0158  2.0418  0.5868
 2772SOL     OW 9128   3.964   7.401   1.129 -0.3035 -0.0135 -0.4062
 2772SOL    HW1 9129   3.946   7.313   1.161 -0.3841  0.5090  0.9889
 2772SOL    HW2 9130   4.007   7.387   1.044  1.6139 -1.4340  0.7725
 2773SOL     OW 9131   6.748   2.218   6.260  0.1655 -0.2699 -0.5525
 2773SOL    HW1 9132   6.713   2.295   6.304  1.1927  0.2308 -0.6145
 2773SOL    HW2 9133   6.730   2.233   6.167  1.6036  0.5524 -0.7131
 2774SOL     OW 9134   3.912   7.336   6.245  0.3339  0.1640 -0.4674
 2774SOL    HW1 9135   3.860   7.373   6.317 -1.8203  1.0296 -2.4062
 2774SOL    HW2 9136   4.001   7.368   6.260 -0.5511  2.2056  0.5545
 2775SOL     OW 9137   3.732   3.191   3.212  0.5848  0.0484  0.1443
 2775SOL    HW1 9138   3.697   3.111   3.249  1.5529 -0.3625  0.1739
 2775SOL    HW2 9139   3.656   3.251   3.208  0.1980 -0.3377  1.5240
 2776SOL     OW 9140   7.449   0.775   0.062 -0.1822  0.0985  0.1417
 2776SOL    HW1 9141   7.386   0.732   0.005 -0.9317  0.5186  0.6312
 2776SOL    HW2 9142   7.485   0.846   0.009  0.7635 -0.8708 -0.5316
 2777SOL     OW 9143   7.310   1.927   3.905  1.0036 -0.4040  0.8543
 2777SOL    HW1 9144   7.225   1.894   3.936  0.9108 -0.5188  0.4803
 2777SOL    HW2 9145   7.288   2.005   3.854  1.1123 -0.5134  0.6406
 2778SOL     OW 9146   2.532   2.279   1.909 -0.0594  0.1905 -0.3911
 2778SOL    HW1 9147   2.517   2.347   1.843  0.8667 -0.4082 -1.2489
 2778SOL    HW2 9148   2.447   2.266   1.951 -0.6240  0.7100 -1.3651
 2779SOL     OW 9149   2.188   5.998   0.006  0.2047 -0.0148 -0.2324
 2779SOL    HW1 9150   2.158   5.966  -0.079  1.0758 -0.6945 -0.2905
 2779SOL    HW2 9151   2.128   5.958   0.069  1.0856 -1.5107 -0.3316
 2780SOL     OW 9152   0.901   3.800   7.154 -0.7351  0.2380  0.5038
 2780SOL    HW1 9153   0.853   3.765   7.229  0.8315  0.5227  1.6684
 2780SOL    HW2 9154   0.835   3.847   7.103 -1.4082  2.0494  2.9478
 2781SOL     OW 9155   0.501   2.731   2.950 -0.4846  0.4451  0.0474
 2781SOL    HW1 9156   0.458   2.817   2.952  1.2258  1.3238 -0.0036
 2781SOL    HW2 9157   0.492   2.701   2.860  0.7496  1.5294 -0.4407
 2782SOL     OW 9158   6.314   5.955   7.347 -0.1968 -0.0121 -0.3956
 2782SOL    HW1 9159   6.224   5.978   7.325 -0.6064 -1.1875  0.0384
 2782SOL    HW2 9160   6.312   5.861   7.365  1.1585 -0.1034 -0.6087
 2783SOL     OW 9161   7.689   2.694   3.039  0.0566  0.7319 -0.1237
 2783SOL    HW1 9162   7.756   2.667   3.101  1.3146 -0.1114 -1.8056
 2783SOL    HW2 9163   7.668   2.784   3.064  0.3764  0.3320  1.6278
 2784SOL     OW 9164   3.255   3.967   2.693  0.7425 -0.0482 -0.1629
 2784SOL    HW1 9165   3.184   4.024   2.664  0.2936  0.5741  2.0646
 2784SOL    HW2 9166   3.335   4.010   2.662  0.2861  0.5409 -0.5328
 2785SOL     OW 9167   5.039   5.994   0.988 -0.6178 -0.1223 -0.2900
 2785SOL    HW1 9168   4.983   6.014   1.064  1.0178 -0.2131  0.9652
 2785SOL    HW2 9169   5.101   6.067   0.985 -0.8561  0.0265 -1.7373
 2786SOL     OW 9170   7.141   1.405   7.659  0.7150  0.3038 -0.0917
 2786SOL    HW1 9171   7.116   1.361   7.577  1.3806 -0.7188  0.2320
 2786SOL    HW2 9172   7.197   1.341   7.703 -0.3205  0.5246  1.5535
 2787SOL     OW 9173   3.995   0.449   0.467  0.1020 -0.5102 -0.0143
 2787SOL    HW1 9174   4.033   0.364   0.447  1.7985  0.6689 -1.9964
 2787SOL    HW2 9175   3.933   0.466   0.397 -0.3528 -0.1850  0.4589
 2788SOL     OW 9176   6.343   5.811   0.368 -0.2873  0.6402 -0.3885
 2788SOL    HW1 9177   6.357   5.848   0.281 -0.6099  0.1282 -0.6538
 2788SOL    HW2 9178   6.251   5.828   0.387 -0.9498 -1.7650 -1.3247
 2789SOL     OW 9179   5.956   0.234   2.597 -0.5782  0.1797 -0.5530
 2789SOL    HW1 9180   5.947   0.329   2.596 -0.5184  0.2142  0.7269
 2789SOL    HW2 9181   5.893   0.205   2.663  0.7639 -0.5020  0.4514
 2790SOL     OW 9182   5.611   2.989   4.433  0.7417 -0.4532 -0.3839
 2790SOL    HW1 9183   5.576   3.058   4.377 -3.3765  0.9414  3.6509
 2790SOL    HW2 9184   5.701   3.017   4.452 -0.1450  2.6431 -0.5998
 2791SOL     OW 9185   4.972   7.903   4.866 -0.2614 -0.1506  0.3606
 2791SOL    HW1 9186   4.946   7.923   4.956  0.0251  1.0540  0.1863
 2791SOL    HW2 9187   4.969   7.988   4.820 -1.5283 -0.9371 -1.0549
 2792SOL     OW 9188   3.448   7.724   3.289  0.4243  0.0728 -0.3372
 2792SOL    HW1 9189   3.383   7.701   3.223  1.0180 -0.3996 -0.7608
 2792SOL    HW2 9190   3.433   7.817   3.308  0.0793  0.1340 -0.9332
 2793SOL     OW 9191   3.174   1.656   7.842 -0.5573 -0.4967 -0.1969
 2793SOL    HW1 9192   3.231   1.652   7.919 -0.0714  0.7736 -0.4806
 2793SOL    HW2 9193   3.088   1.629   7.875 -0.1791 -0.7233  0.6243
 2794SOL     OW 9194   5.337   1.828   6.724 -0.6099  0.6303  0.1875
 2794SOL    HW1 9195   5.325   1.854   6.816 -2.2013  1.3699 -0.2104
 2794SOL    HW2 9196   5.320   1.734   6.724 -0.4145  0.5906  0.6820
 2795SOL     OW 9197   5.448   5.452   5.520 -0.8316  0.2961  0.0542
 2795SOL    HW1 9198   5.430   5.464   5.427 -1.6557 -0.1981  0.1475
 2795SOL    HW2 9199   5.376   5.495   5.565 -3.6714 -4.3787  0.3872
 2796SOL     OW 9200   6.345   4.639   7.354  0.4177 -0.2475  0.4364
 2796SOL    HW1 9201   6.258   4.678   7.364  0.0449 -0.7584 -0.8616
 2796SOL    HW2 9202   6.329   4.545   7.348  1.0941 -0.3759  0.6065
 2797SOL     OW 9203   2.231   5.090   0.988 -0.1303 -0.0369 -0.3749
 2797SOL    HW1 9204   2.145   5.050   1.004  0.4862 -1.4917 -0.5758
 2797SOL    HW2 9205   2.212   5.182   0.969 -1.6610 -0.4023 -0.6665
 2798SOL     OW 9206   6.617   6.783   4.543  0.0901 -0.2794 -0.2245
 2798SOL    HW1 9207   6.648   6.864   4.582 -1.1302 -0.1051  0.4210
 2798SOL    HW2 9208   6.656   6.781   4.455  2.0647 -0.1996  0.6370
 2799SOL     OW 9209   4.650   0.520   5.663 -0.0028 -0.0932  0.0930
 2799SOL    HW1 9210   4.650   0.585   5.592  1.0175  1.3734  1.3860
 2799SOL    HW2 9211   4.559   0.493   5.671 -0.2676  0.4072 -1.1800
 2800SOL     OW 9212   3.617   6.116   2.701 -0.2476 -0.4757  0.4519
 2800SOL    HW1 9213   3.704   6.133   2.736 -0.7784  0.1450  1.4965
 2800SOL    HW2 9214   3.590   6.034   2.743  0.3830 -1.4062 -0.9299
 2801SOL     OW 9215   6.851   2.519   0.054 -0.1174 -0.1511 -0.4008
 2801SOL    HW1 9216   6.839   2.424   0.050 -0.0359 -0.1255 -1.2489
 2801SOL    HW2 9217   6.944   2.531   0.069 -0.2819 -0.2242  0.7160
 2802SOL     OW 9218   3.120   3.238   2.019  0.1874  0.2981  0.6791
 2802SOL    HW1 9219   3.205   3.203   2.047  0.5023  0.1165 -0.4939
 2802SOL    HW2 9220   3.126   3.244   1.924 -1.3138 -0.1991  0.5419
 2803SOL     OW 9221   7.283   4.759   0.153 -0.3710 -0.2325  0.4131
 2803SOL    HW1 9222   7.198   4.790   0.185 -0.4822 -0.0239 -0.0746
 2803SOL    HW2 9223   7.335   4.838   0.140  0.2597 -0.4358  1.7072
 2804SOL     OW 9224   6.064   2.434   0.423  0.0907 -0.5850 -0.0214
 2804SOL    HW1 9225   6.028   2.437   0.512  1.0830 -2.8658  0.5062
 2804SOL    HW2 9226   6.128   2.363   0.426  1.8363  0.8555 -1.9577
 2805SOL     OW 9227   5.888   0.986   7.656  0.3702 -0.3579 -0.9882
 2805SOL    HW1 9228   5.871   1.079   7.644 -0.5670 -0.3476  0.2937
 2805SOL    HW2 9229   5.958   0.966   7.593  1.6259  1.5372 -0.2607
 2806SOL     OW 9230   2.006   0.317   5.664 -0.0643 -0.1700 -0.5459
 2806SOL    HW1 9231   1.949   0.316   5.741  0.5049 -0.2981 -0.1279
 2806SOL    HW2 9232   2.063   0.240   5.676  1.5314  1.0804  0.0256
 2807SOL     OW 9233   2.549   7.971   3.841 -0.3031 -0.1444  0.2866
 2807SOL    HW1 9234   2.478   7.921   3.801 -0.3070 -1.2470  1.6435
 2807SOL    HW2 9235   2.629   7.924   3.818  0.0763  1.3595 -1.6448
 2808SOL     OW 9236   0.519   0.259   7.447 -0.3254  0.1806  0.1104
 2808SOL    HW1 9237   0.477   0.176   7.470  0.1720  0.0802  0.6662
 2808SOL    HW2 9238   0.583   0.274   7.517 -0.3798  1.0097 -0.0077
 2809SOL     OW 9239   5.362   5.728   6.817  0.3296  0.1213 -0.2947
 2809SOL    HW1 9240   5.331   5.637   6.816 -1.5092  0.6934  0.7987
 2809SOL    HW2 9241   5.407   5.736   6.901  1.5038 -0.0891 -0.9003
 2810SOL     OW 9242   4.140   4.529   2.412 -0.8028 -0.0543  0.3858
 2810SOL    HW1 9243   4.108   4.591   2.478 -0.2694  0.4498  0.1727
 2810SOL    HW2 9244   4.118   4.570   2.328 -0.9514 -0.4208  0.2417
 2811SOL     OW 9245   4.128   4.372   7.355 -0.0747  0.4099  0.5038
 2811SOL    HW1 9246   4.118   4.283   7.390  1.0807  1.0267  2.4689
 2811SOL    HW2 9247   4.074   4.426   7.413  1.3045  1.3451  0.9239
 2812SOL     OW 9248   2.813   1.882   5.075  0.0019  0.5026 -1.0813
 2812SOL    HW1 9249   2.824   1.845   4.987 -0.2484  0.2557 -1.0072
 2812SOL    HW2 9250   2.860   1.821   5.132  0.1908  0.6799 -1.0439
 2813SOL     OW 9251   4.626   3.692   3.895 -0.0664  0.2555 -0.2390
 2813SOL    HW1 9252   4.549   3.719   3.844  0.1029 -1.2878 -1.3648
 2813SOL    HW2 9253   4.667   3.774   3.922 -1.2370  1.1021 -0.9697
 2814SOL     OW 9254   1.790   2.598   5.292  0.4617  0.3331 -0.0822
 2814SOL    HW1 9255   1.774   2.536   5.221 -0.6529 -0.4089  0.8176
 2814SOL    HW2 9256   1.882   2.624   5.280  0.2133  0.3875 -1.9226
 2815SOL     OW 9257   4.368   4.929   1.089 -0.7189  0.1763  0.6414
 2815SOL    HW1 9258   4.456   4.897   1.109 -1.0848 -0.9357  0.5197
 2815SOL    HW2 9259   4.381   4.996   1.022 -0.0235 -0.4594  0.1406
 2816SOL     OW 9260   7.367   5.845   1.418  0.2332  0.5404  0.1118
 2816SOL    HW1 9261   7.388   5.752   1.430  0.5959  0.5641 -0.3353
 2816SOL    HW2 9262   7.287   5.858   1.470 -1.7269 -0.7946 -2.4455
 2817SOL     OW 9263   5.660   6.114   7.152  0.3768 -0.1302  0.2348
 2817SOL    HW1 9264   5.693   6.202   7.174 -1.5707 -0.3004  4.2768
 2817SOL    HW2 9265   5.584   6.130   7.096  0.9341  0.6983 -0.2907
 2818SOL     OW 9266   5.616   3.264   0.914  0.0770  0.4202  0.4581
 2818SOL    HW1 9267   5.550   3.309   0.967  0.0884  1.1623 -0.1470
 2818SOL    HW2 9268   5.697   3.312   0.930 -0.2277  1.5954 -1.3864
 2819SOL     OW 9269   5.204   7.931   4.270  0.6670 -0.0584 -0.3115
 2819SOL    HW1 9270   5.232   7.840   4.284  1.6072 -0.0173 -1.8625
 2819SOL    HW2 9271   5.245   7.957   4.188  1.2527  2.1286  0.6405
 2820SOL     OW 9272   4.707   4.834   2.853 -0.1299  0.0324  0.0057
 2820SOL    HW1 9273   4.626   4.807   2.896  0.4628 -0.8668  0.5428
 2820SOL    HW2 9274   4.719   4.770   2.783  0.5941 -0.3453  0.4800
 2821SOL     OW 9275   5.297   4.503   7.439 -0.0424 -0.3336  0.4875
 2821SOL    HW1 9276   5.310   4.443   7.512  1.6101 -0.6865 -0.0816
 2821SOL    HW2 9277   5.326   4.454   7.362  2.5224  1.6098  0.1674
 2822SOL     OW 9278   6.411   0.850   6.581  0.3743  0.2082 -0.3211
 2822SOL    HW1 9279   6.352   0.841   6.656  1.2129 -0.8226  0.2269
 2822SOL    HW2 9280   6.355   0.884   6.511 -1.2513 -2.1449 -0.2374
 2823SOL     OW 9281   0.391   2.418   5.748  0.0333  0.1853 -0.0129
 2823SOL    HW1 9282   0.436   2.358   5.688  2.6324  1.5627  0.4807
 2823SOL    HW2 9283   0.458   2.482   5.773 -2.1417  2.1331  1.0420
 2824SOL     OW 9284   6.973   2.255   0.964  0.5331 -0.3503  0.0933
 2824SOL    HW1 9285   6.932   2.335   0.932  0.9696 -0.2912 -0.3341
 2824SOL    HW2 9286   6.995   2.205   0.885  1.4785 -0.2759  0.2950
 2825SOL     OW 9287   3.696   2.859   5.143 -0.1212 -0.3543  0.3633
 2825SOL    HW1 9288   3.670   2.795   5.078  0.4820 -1.0960  0.8342
 2825SOL    HW2 9289   3.671   2.820   5.227 -1.1856  0.7338  0.5595
 2826SOL     OW 9290   4.797   4.585   7.036  0.1838  0.7268  0.1375
 2826SOL    HW1 9291   4.836   4.657   6.987 -0.2999  1.8346  1.3628
 2826SOL    HW2 9292   4.703   4.599   7.030  0.1108  0.6780  1.0854
 2827SOL     OW 9293   0.829   3.205   3.396 -0.0332 -0.3062 -0.0970
 2827SOL    HW1 9294   0.924   3.219   3.399  0.0830 -0.9680 -0.5728
 2827SOL    HW2 9295   0.813   3.138   3.462 -0.2309  0.1003  0.2728
 2828SOL     OW 9296   2.560   7.606   6.945  0.0459  0.1798  0.2041
 2828SOL    HW1 9297   2.528   7.526   6.987  1.3845  0.1601  1.1985
 2828SOL    HW2 9298   2.622   7.643   7.007 -0.3996  1.9003 -0.3416
 2829SOL     OW 9299   3.963   5.559   0.159  0.0091  0.1211 -0.0154
 2829SOL    HW1 9300   4.037   5.518   0.204 -1.4516  0.0580  2.4563
 2829SOL    HW2 9301   3.994   5.647   0.138  1.1449 -0.2500  0.0498
 2830SOL     OW 9302   6.794   4.645   5.269 -0.0504 -0.5792  0.5812
 2830SOL    HW1 9303   6.708   4.654   5.228  0.3331 -1.8686 -0.5606
 2830SOL    HW2 9304   6.821   4.555   5.249  1.6731 -0.1235  0.7021
 2831SOL     OW 9305   7.838   1.659   0.216 -0.6034  0.0312  0.5580
 2831SOL    HW1 9306   7.800   1.675   0.303  0.0538  0.5486  0.7513
 2831SOL    HW2 9307   7.931   1.674   0.227 -0.5327  0.2290 -0.2701
 2832SOL     OW 9308   6.677   2.551   6.017  0.4590  0.3552 -0.2600
 2832SOL    HW1 9309   6.711   2.545   5.928  0.8934  0.4109 -0.0982
 2832SOL    HW2 9310   6.614   2.623   6.014  1.7471  1.5079 -0.1133
 2833SOL     OW 9311   6.827   7.569   6.145  0.0703 -0.6596 -0.1561
 2833SOL    HW1 9312   6.820   7.495   6.084 -1.3375 -2.3300  1.9421
 2833SOL    HW2 9313   6.744   7.616   6.135  0.7588  0.3716 -1.1249
 2834SOL     OW 9314   7.419   0.989   3.233 -0.0042 -0.2458 -0.4357
 2834SOL    HW1 9315   7.454   1.078   3.229 -2.0150  0.5187 -1.4227
 2834SOL    HW2 9316   7.409   0.962   3.142  1.3200 -1.8016 -0.1477
 2835SOL     OW 9317   3.457   0.819   1.924 -0.2618  0.0325 -0.4269
 2835SOL    HW1 9318   3.530   0.762   1.902  0.1753  0.2868  0.3637
 2835SOL    HW2 9319   3.406   0.825   1.843  1.5718  1.3126 -1.5287
 2836SOL     OW 9320   5.299   2.785   1.084  0.2158  0.4808  0.3102
 2836SOL    HW1 9321   5.226   2.726   1.099  1.2830 -0.7965  0.5465
 2836SOL    HW2 9322   5.259   2.865   1.048 -0.9638 -1.4825 -2.9186
 2837SOL     OW 9323   4.307   1.759   5.981  0.1322 -0.3254 -0.1266
 2837SOL    HW1 9324   4.226   1.770   5.932  0.3497  1.4481 -0.1478
 2837SOL    HW2 9325   4.376   1.754   5.914  0.0156 -2.1828 -0.1208
 2838SOL     OW 9326   2.032   6.860   1.898 -0.1838 -0.2003  0.1246
 2838SOL    HW1 9327   2.093   6.802   1.943 -0.5159 -0.3205  0.4257
 2838SOL    HW2 9328   2.049   6.947   1.936  0.6797  0.0010 -0.7050
 2839SOL     OW 9329   7.085   4.423   4.482  0.0614 -0.0198  0.0971
 2839SOL    HW1 9330   7.076   4.517   4.496  0.1775 -0.1599  1.1531
 2839SOL    HW2 9331   7.077   4.385   4.570  2.5455 -0.8032  0.0098
 2840SOL     OW 9332   5.373   6.287   3.110  0.2412  0.3355 -0.3720
 2840SOL    HW1 9333   5.369   6.249   3.022  1.3614 -1.3647  0.2776
 2840SOL    HW2 9334   5.350   6.214   3.168 -1.3571  1.6634  0.7152
 2841SOL     OW 9335   4.285   7.432   0.498  0.5192 -0.0900 -0.2015
 2841SOL    HW1 9336   4.271   7.483   0.578 -1.9125 -0.4358 -0.3709
 2841SOL    HW2 9337   4.377   7.406   0.502  0.2828 -0.6414  2.8028
 2842SOL     OW 9338   1.769   3.879   4.239 -0.1127  0.1127 -0.3783
 2842SOL    HW1 9339   1.815   3.809   4.285 -0.1533  0.9290  0.9245
 2842SOL    HW2 9340   1.836   3.943   4.219 -0.4832  0.7871  0.5255
 2843SOL     OW 9341   3.359   1.899   4.115  0.2063  0.2411 -0.2186
 2843SOL    HW1 9342   3.384   1.806   4.114 -0.3577  0.0887 -0.4176
 2843SOL    HW2 9343   3.348   1.920   4.208  0.3957  0.1308 -0.1689
 2844SOL     OW 9344   6.715   3.320   1.969 -0.6969 -0.1064  0.6106
 2844SOL    HW1 9345   6.660   3.277   2.035 -0.6923 -1.0148  0.0280
 2844SOL    HW2 9346   6.686   3.411   1.969  0.6970  0.3773  3.3302
 2845SOL     OW 9347   6.780   7.460   4.439  0.4176 -0.1667 -0.6368
 2845SOL    HW1 9348   6.737   7.375   4.449 -0.4702  0.1807 -1.4498
 2845SOL    HW2 9349   6.790   7.493   4.528  0.3708 -0.9241 -0.3485
 2846SOL     OW 9350   3.990   1.114   3.917 -0.1842  1.0584 -0.7229
 2846SOL    HW1 9351   3.907   1.075   3.942 -0.5244  0.4320 -2.7162
 2846SOL    HW2 9352   3.984   1.205   3.943 -0.4670  0.4182  1.4996
 2847SOL     OW 9353   5.886   7.280   7.869  0.3469 -0.9649 -0.1843
 2847SOL    HW1 9354   5.885   7.187   7.845  0.2476 -0.4187 -2.4422
 2847SOL    HW2 9355   5.959   7.288   7.930 -0.0672 -2.6543  0.5655
 2848SOL     OW 9356   2.787   0.573   3.944 -0.6940  0.0447  0.3940
 2848SOL    HW1 9357   2.774   0.595   4.036 -1.6896  0.1469  0.2257
 2848SOL    HW2 9358   2.870   0.615   3.921 -0.1681 -0.4249  1.3859
 2849SOL     OW 9359   4.662   0.900   1.377 -0.1840 -0.7453 -0.7457
 2849SOL    HW1 9360   4.567   0.902   1.387 -0.0901  1.1373 -0.0217
 2849SOL    HW2 9361   4.677   0.837   1.306 -1.7534 -3.3139  1.1222
 2850SOL     OW 9362   1.681   5.643   0.357 -0.7138 -0.1634 -0.0259
 2850SOL    HW1 9363   1.589   5.626   0.339 -0.2646 -0.2768 -2.3624
 2850SOL    HW2 9364   1.708   5.704   0.288  0.9537 -0.0942  0.6627
 2851SOL     OW 9365   5.592   1.985   3.904 -0.7073 -0.0863 -0.4309
 2851SOL    HW1 9366   5.556   1.904   3.941 -0.1127 -0.1901 -0.0803
 2851SOL    HW2 9367   5.659   2.012   3.966 -1.8471  1.4334  0.1878
 2852SOL     OW 9368   4.637   0.479   2.254 -0.0341  0.4123 -0.1698
 2852SOL    HW1 9369   4.561   0.519   2.297 -0.4243 -1.4345  0.9547
 2852SOL    HW2 9370   4.600   0.408   2.202  0.8400  0.0021 -0.2417
 2853SOL     OW 9371   3.863   0.839   1.353  0.4223  1.0416 -0.2189
 2853SOL    HW1 9372   3.896   0.815   1.266  0.0030 -0.0005 -0.0995
 2853SOL    HW2 9373   3.773   0.807   1.354  0.2948  1.4056  0.4648
 2854SOL     OW 9374   1.266   4.996   7.456  0.1170 -0.7127 -0.2588
 2854SOL    HW1 9375   1.248   5.028   7.367  0.8778 -0.6337 -0.3818
 2854SOL    HW2 9376   1.285   5.075   7.507 -2.1249 -0.5727  0.4131
 2855SOL     OW 9377   5.755   0.815   2.474 -0.0720 -0.3246 -0.9007
 2855SOL    HW1 9378   5.842   0.834   2.510 -0.4682 -1.1247  0.5124
 2855SOL    HW2 9379   5.700   0.887   2.506 -0.3387 -0.8321 -0.1974
 2856SOL     OW 9380   7.207   7.067   0.603 -0.1125 -0.2612 -0.0988
 2856SOL    HW1 9381   7.287   7.033   0.641  0.7222 -0.0323 -1.6044
 2856SOL    HW2 9382   7.189   7.147   0.652  0.0116 -0.8512  0.9167
 2857SOL     OW 9383   2.716   2.075   3.069 -0.2623  0.4470 -0.2006
 2857SOL    HW1 9384   2.785   2.125   3.114 -1.4976  0.8038  1.3603
 2857SOL    HW2 9385   2.726   2.097   2.977  1.0110  1.3654  0.1461
 2858SOL     OW 9386   0.325   0.575   7.647  0.1499 -0.1072 -0.0830
 2858SOL    HW1 9387   0.235   0.548   7.664  0.2947 -2.0976 -2.2043
 2858SOL    HW2 9388   0.325   0.669   7.662 -2.8744  0.3114 -2.2111
 2859SOL     OW 9389   6.951   6.694   5.738  0.5052 -0.0926 -0.5195
 2859SOL    HW1 9390   6.922   6.739   5.817  1.4546  2.3839 -1.5258
 2859SOL    HW2 9391   6.873   6.647   5.707 -0.5629  0.9762  0.4927
 2860SOL     OW 9392   6.985   3.129   6.965 -0.2115 -0.0660 -0.3875
 2860SOL    HW1 9393   7.014   3.038   6.957  2.4419  0.9065 -2.5602
 2860SOL    HW2 9394   7.058   3.173   7.008 -1.4233  1.0863  0.5132
 2861SOL     OW 9395   7.286   7.704   4.927 -0.3152  0.3519 -0.0668
 2861SOL    HW1 9396   7.191   7.703   4.935 -0.2137 -0.8504  1.1168
 2861SOL    HW2 9397   7.309   7.616   4.898  0.3598  0.9802 -1.5448
 2862SOL     OW 9398   5.532   7.477   0.434  0.2651 -0.3742  0.6553
 2862SOL    HW1 9399   5.459   7.521   0.478  1.2288  0.4365  1.4819
 2862SOL    HW2 9400   5.554   7.404   0.491 -0.6295 -1.3108 -0.1738
 2863SOL     OW 9401   1.370   0.104   6.896 -0.3083 -0.0106  0.6746
 2863SOL    HW1 9402   1.342   0.158   6.970  2.6396 -0.2745  2.0898
 2863SOL    HW2 9403   1.366   0.014   6.929  1.7778 -0.0757  0.8520
 2864SOL     OW 9404   6.492   2.426   5.471 -0.1059  0.0169  0.1228
 2864SOL    HW1 9405   6.407   2.439   5.430  0.5651 -1.6227 -1.8930
 2864SOL    HW2 9406   6.498   2.494   5.538 -2.3461  1.0933 -0.7443
 2865SOL     OW 9407   4.899   5.396   3.909 -0.2620 -0.0788  0.3128
 2865SOL    HW1 9408   4.855   5.434   3.985 -2.6857 -1.9592 -0.1065
 2865SOL    HW2 9409   4.900   5.466   3.844  0.1790  0.9494  1.4072
 2866SOL     OW 9410   5.133   4.614   0.949  0.4122 -0.1490  0.3646
 2866SOL    HW1 9411   5.227   4.594   0.952  0.2692 -0.8744  0.2743
 2866SOL    HW2 9412   5.103   4.573   0.868  0.3982  1.8382 -0.6645
 2867SOL     OW 9413   5.957   0.253   4.369  0.5654 -0.8044 -0.3765
 2867SOL    HW1 9414   5.949   0.168   4.413 -0.7435  0.4489  1.9785
 2867SOL    HW2 9415   6.007   0.306   4.430 -0.3618  0.6871 -0.8943
 2868SOL     OW 9416   7.243   0.637   5.627 -0.4123 -0.4033  0.3725
 2868SOL    HW1 9417   7.162   0.597   5.658 -0.2807 -1.1325 -0.2032
 2868SOL    HW2 9418   7.271   0.581   5.554  0.4478  0.0135  0.3770
 2869SOL     OW 9419   5.144   1.838   7.405 -0.3159  0.9630 -0.1283
 2869SOL    HW1 9420   5.143   1.887   7.324 -0.7169  0.1960 -0.5900
 2869SOL    HW2 9421   5.233   1.850   7.440  0.0975  0.6503 -1.0696
 2870SOL     OW 9422   6.152   7.295   1.576 -0.3832 -0.3676 -0.2739
 2870SOL    HW1 9423   6.079   7.294   1.514  0.6281 -0.8105 -1.4718
 2870SOL    HW2 9424   6.200   7.375   1.555  0.5671 -1.0689 -0.7804
 2871SOL     OW 9425   7.750   7.332   4.313 -0.4201  0.6033  0.4110
 2871SOL    HW1 9426   7.814   7.390   4.355  0.8828  0.9041 -1.9183
 2871SOL    HW2 9427   7.676   7.390   4.291  0.2192  1.0832 -0.5005
 2872SOL     OW 9428   6.040   7.551   0.940 -0.1607  0.0176  0.0558
 2872SOL    HW1 9429   6.050   7.644   0.919  1.5606  0.6514  3.4134
 2872SOL    HW2 9430   6.124   7.512   0.916 -0.4349 -0.4440 -0.1559
 2873SOL     OW 9431   3.711   0.105   4.619  0.2872 -0.5001  0.2042
 2873SOL    HW1 9432   3.740   0.188   4.582 -3.2983  0.4483 -0.6792
 2873SOL    HW2 9433   3.706   0.046   4.543 -1.5660 -0.1850  0.0615
 2874SOL     OW 9434   7.365   2.662   6.177  0.1588  0.6155  0.2572
 2874SOL    HW1 9435   7.432   2.608   6.218 -2.5713 -3.1359  0.1057
 2874SOL    HW2 9436   7.288   2.649   6.232 -1.4120  1.8818 -1.5821
 2875SOL     OW 9437   4.249   6.606   3.253  0.0669  0.2769  0.0942
 2875SOL    HW1 9438   4.335   6.590   3.293 -0.6599 -0.5326  1.3723
 2875SOL    HW2 9439   4.234   6.699   3.266 -0.2749 -0.0189  1.9892
 2876SOL     OW 9440   0.093   3.597   1.566  0.1095 -0.4219 -0.3482
 2876SOL    HW1 9441   0.151   3.653   1.616  0.9623 -0.2924 -1.4631
 2876SOL    HW2 9442   0.064   3.530   1.628  1.7354 -0.6969  0.1292
 2877SOL     OW 9443   4.297   3.180   4.906  0.1063  0.2567 -0.2182
 2877SOL    HW1 9444   4.233   3.127   4.859  0.3956  0.3817 -0.7607
 2877SOL    HW2 9445   4.376   3.126   4.908  0.0377  0.1718  0.2981
 2878SOL     OW 9446   7.512   7.228   7.128 -0.4437 -0.4348 -0.3157
 2878SOL    HW1 9447   7.537   7.282   7.054  1.2531 -0.5697  0.1430
 2878SOL    HW2 9448   7.495   7.142   7.091 -1.8215  0.0586 -0.8548
 2879SOL     OW 9449   4.803   2.678   7.108  0.5433  0.1163  0.3212
 2879SOL    HW1 9450   4.839   2.755   7.153  0.2889 -0.1418  0.9721
 2879SOL    HW2 9451   4.709   2.698   7.098  0.8863  0.9118 -1.6209
 2880SOL     OW 9452   7.548   0.431   7.395 -0.4845 -0.1805 -0.1143
 2880SOL    HW1 9453   7.571   0.453   7.305 -0.6501  0.7603  0.0719
 2880SOL    HW2 9454   7.511   0.511   7.431  0.1185 -0.3733  0.9721
 2881SOL     OW 9455   6.472   2.444   7.921 -0.4374 -0.2656  0.2126
 2881SOL    HW1 9456   6.460   2.532   7.956  3.1676 -0.0588  1.1366
 2881SOL    HW2 9457   6.526   2.456   7.843 -2.4090 -1.4266 -1.3907
 2882SOL     OW 9458   7.017   0.949   0.963 -0.1731 -0.3772  0.0824
 2882SOL    HW1 9459   6.975   0.864   0.952 -1.9995  0.6175 -0.8888
 2882SOL    HW2 9460   7.041   0.953   1.056 -1.0916 -1.4826  0.3725
 2883SOL     OW 9461   1.025   1.055   7.986  0.3917 -0.0884  0.7134
 2883SOL    HW1 9462   1.104   1.051   7.932  0.1564 -2.2126  0.4849
 2883SOL    HW2 9463   0.956   1.081   7.925  0.7485  0.9395  0.7373
 2884SOL     OW 9464   3.112   7.314   1.131 -0.2081  0.1441  0.2076
 2884SOL    HW1 9465   3.049   7.361   1.186 -1.0344  0.0380 -0.6249
 2884SOL    HW2 9466   3.179   7.283   1.192 -0.2673  1.3824  0.9315
 2885SOL     OW 9467   5.221   3.840   2.988 -0.3549  0.0603 -0.4055
 2885SOL    HW1 9468   5.289   3.788   3.032 -0.9822 -1.2946 -0.9929
 2885SOL    HW2 9469   5.143   3.828   3.042 -0.4414  0.6039 -0.4088
 2886SOL     OW 9470   2.580   4.884   2.790 -0.0640 -0.1022  0.1815
 2886SOL    HW1 9471   2.672   4.903   2.803 -0.2999  0.7600  0.5824
 2886SOL    HW2 9472   2.553   4.840   2.871  0.3569 -1.7147 -0.5393
 2887SOL     OW 9473   0.635   6.371   0.479  0.0839  0.0981  0.2930
 2887SOL    HW1 9474   0.652   6.328   0.563  0.9926 -0.4848 -0.1850
 2887SOL    HW2 9475   0.717   6.363   0.431 -0.6319 -0.1515 -0.9090
 2888SOL     OW 9476   4.631   3.325   0.379  0.3111  0.4399 -0.1934
 2888SOL    HW1 9477   4.549   3.278   0.363  0.1545  1.0614 -1.2224
 2888SOL    HW2 9478   4.699   3.258   0.371 -0.1931 -0.4959  2.5286
 2889SOL     OW 9479   1.190   4.512   7.492  0.1920  0.4965  0.1846
 2889SOL    HW1 9480   1.205   4.599   7.456 -0.8878  1.2053  1.4131
 2889SOL    HW2 9481   1.183   4.526   7.587  2.8283 -1.3024  0.6872
 2890SOL     OW 9482   1.086   0.287   5.934 -0.2494 -0.2941  0.0322
 2890SOL    HW1 9483   1.103   0.232   5.858 -0.9255 -2.0649  1.1219
 2890SOL    HW2 9484   1.121   0.238   6.008  1.6864  2.0517  0.7264
 2891SOL     OW 9485   0.760   1.375   5.144  0.0215  0.3395 -0.2060
 2891SOL    HW1 9486   0.810   1.452   5.172 -1.3582  0.8594  0.8832
 2891SOL    HW2 9487   0.813   1.301   5.170 -0.1339  0.8672  1.7321
 2892SOL     OW 9488   1.947   1.666   0.563  0.2190  0.3141  0.4146
 2892SOL    HW1 9489   1.872   1.684   0.621  0.0122  1.2975 -0.1479
 2892SOL    HW2 9490   1.909   1.617   0.490  0.3460 -0.2642  0.7342
 2893SOL     OW 9491   2.141   0.068   4.232  0.2147 -0.0283  0.0858
 2893SOL    HW1 9492   2.193   0.122   4.172 -0.8675  0.7714 -0.1508
 2893SOL    HW2 9493   2.135   0.120   4.312 -1.1072  0.3627 -0.2541
 2894SOL     OW 9494   5.223   1.040   0.847 -0.2137 -0.1064  0.4165
 2894SOL    HW1 9495   5.263   1.108   0.793 -0.2339 -0.0786  0.4364
 2894SOL    HW2 9496   5.284   0.967   0.844 -0.0438  0.0268  0.6492
 2895SOL     OW 9497   1.110   4.589   4.576  0.6863  0.1445 -1.1988
 2895SOL    HW1 9498   1.118   4.494   4.568  0.8732 -0.0638  0.9975
 2895SOL    HW2 9499   1.015   4.605   4.575  0.5866 -0.2627 -0.0227
 2896SOL     OW 9500   1.540   4.421   3.049 -0.3747 -0.4016 -0.1031
 2896SOL    HW1 9501   1.534   4.500   3.102 -0.6365 -0.2004 -0.4331
 2896SOL    HW2 9502   1.510   4.448   2.962  2.5075 -0.0808 -1.0454
 2897SOL     OW 9503   5.927   3.029   0.864  0.4343 -0.0569 -0.0724
 2897SOL    HW1 9504   5.946   3.070   0.949 -3.5884 -1.0635  1.4173
 2897SOL    HW2 9505   5.988   2.954   0.860 -0.4076 -0.9554  2.7025
 2898SOL     OW 9506   0.850   7.535   2.105 -0.2951  0.0113 -0.4667
 2898SOL    HW1 9507   0.900   7.593   2.162 -0.7531  0.8536 -0.9012
 2898SOL    HW2 9508   0.789   7.594   2.060 -1.1046 -0.8825 -0.5469
 2899SOL     OW 9509   2.437   1.245   2.626  0.1270 -0.4091 -0.2537
 2899SOL    HW1 9510   2.454   1.160   2.665 -1.5768 -1.5134 -1.8642
 2899SOL    HW2 9511   2.518   1.295   2.640  0.7256 -1.8835  1.6888
 2900SOL     OW 9512   0.746   6.258   0.711  0.2493  0.7440 -0.2167
 2900SOL    HW1 9513   0.765   6.178   0.760 -0.2998  1.0784  0.5582
 2900SOL    HW2 9514   0.701   6.314   0.774 -1.7981  0.6222 -1.5263
 2901SOL     OW 9515   6.629   7.117   2.504  0.2989  0.2012  0.1191
 2901SOL    HW1 9516   6.608   7.209   2.519  2.1676  0.6258  0.2490
 2901SOL    HW2 9517   6.558   7.085   2.448 -1.6178  1.0796  2.0230
 2902SOL     OW 9518   6.188   3.002   6.902  0.6318  0.3330  0.4368
 2902SOL    HW1 9519   6.113   2.951   6.872 -1.9984  1.7597  4.2560
 2902SOL    HW2 9520   6.245   2.938   6.946  1.9673 -0.8165 -2.7970
 2903SOL     OW 9521   0.067   5.564   2.307  0.6790  0.0397  0.3614
 2903SOL    HW1 9522   0.114   5.481   2.304 -0.1499 -0.3990 -0.9741
 2903SOL    HW2 9523   0.057   5.583   2.401  2.4339 -0.4584  0.6618
 2904SOL     OW 9524   1.203   0.383   1.839 -0.1133  0.4148 -0.0689
 2904SOL    HW1 9525   1.234   0.443   1.771 -1.9967 -0.7963 -2.0474
 2904SOL    HW2 9526   1.157   0.439   1.902  0.6528  1.3821 -0.3485
 2905SOL     OW 9527   7.513   1.319   2.085 -0.1509  0.5682 -0.5447
 2905SOL    HW1 9528   7.481   1.272   2.008  2.4131  0.8304 -1.8339
 2905SOL    HW2 9529   7.505   1.411   2.062 -1.5340  0.7084  0.4423
 2906SOL     OW 9530   0.316   0.836   6.677 -0.4533 -0.6039 -0.2509
 2906SOL    HW1 9531   0.251   0.791   6.624 -0.6636 -0.4583 -0.1143
 2906SOL    HW2 9532   0.355   0.767   6.731  0.5163 -0.9400 -1.3628
 2907SOL     OW 9533   4.455   6.829   3.746  0.0176  0.0934 -0.2248
 2907SOL    HW1 9534   4.460   6.924   3.757 -0.0640  0.0439  0.2526
 2907SOL    HW2 9535   4.361   6.811   3.737  0.0982  0.1634 -1.3128
 2908SOL     OW 9536   4.032   6.755   6.893 -0.0965 -0.1164 -0.2325
 2908SOL    HW1 9537   4.008   6.846   6.913 -2.1390 -0.3204 -1.6916
 2908SOL    HW2 9538   4.072   6.759   6.807  0.1074 -0.5669 -0.1620
 2909SOL     OW 9539   7.176   5.148   2.027 -0.4057 -0.2073 -0.1308
 2909SOL    HW1 9540   7.081   5.146   2.022 -0.5169  0.4002  1.3473
 2909SOL    HW2 9541   7.197   5.241   2.034  0.2150 -0.4083  0.7407
 2910SOL     OW 9542   5.335   5.872   5.769 -0.0721 -0.6105  0.0407
 2910SOL    HW1 9543   5.388   5.792   5.768 -0.5085 -0.9005 -0.3911
 2910SOL    HW2 9544   5.393   5.939   5.803  0.0008 -1.3276  1.3636
 2911SOL     OW 9545   0.906   3.270   3.802  0.1376 -0.2115  0.1389
 2911SOL    HW1 9546   0.852   3.348   3.796 -1.2081 -1.2079 -1.3099
 2911SOL    HW2 9547   0.983   3.289   3.749 -0.2178  0.1173 -0.2598
 2912SOL     OW 9548   0.976   3.941   0.136 -0.1845  0.5088 -0.1900
 2912SOL    HW1 9549   0.908   3.997   0.099 -0.5526 -0.6989 -1.3556
 2912SOL    HW2 9550   0.946   3.852   0.120  0.4480 -0.0444  1.5659
 2913SOL     OW 9551   7.868   2.623   3.232 -0.6883 -0.0482  0.3276
 2913SOL    HW1 9552   7.812   2.672   3.293 -0.2710  1.0271 -0.1390
 2913SOL    HW2 9553   7.952   2.617   3.277 -0.3418  0.8563 -0.1775
 2914SOL     OW 9554   4.304   1.556   4.639  0.0310 -0.6184 -0.4945
 2914SOL    HW1 9555   4.362   1.621   4.678  0.1206 -1.5466  0.9714
 2914SOL    HW2 9556   4.289   1.587   4.550 -1.2903  2.2947  0.6948
 2915SOL     OW 9557   1.596   3.329   5.238  0.2809  0.3610  0.2505
 2915SOL    HW1 9558   1.653   3.284   5.300  0.2593 -0.8542 -0.6042
 2915SOL    HW2 9559   1.642   3.411   5.218  1.2235 -0.1406  0.3591
 2916SOL     OW 9560   2.859   5.848   5.895  0.3132 -0.4985  0.9858
 2916SOL    HW1 9561   2.891   5.840   5.985 -0.8352  1.3811  1.5901
 2916SOL    HW2 9562   2.781   5.793   5.892  0.6799 -1.0158  0.9827
 2917SOL     OW 9563   6.516   7.466   5.015 -0.7448  0.6524  0.6622
 2917SOL    HW1 9564   6.560   7.423   5.087  1.4476 -0.2127 -1.1287
 2917SOL    HW2 9565   6.543   7.558   5.021  1.8897  0.0243 -0.7641
 2918SOL     OW 9566   6.287   4.880   0.696  0.3526 -0.4970  0.2472
 2918SOL    HW1 9567   6.266   4.968   0.729  0.6752 -0.9728  1.7440
 2918SOL    HW2 9568   6.203   4.835   0.690  0.0543  0.2572 -1.5837
 2919SOL     OW 9569   7.206   7.019   7.851 -0.0216 -0.5384  0.2260
 2919SOL    HW1 9570   7.188   7.111   7.834 -0.1396 -0.2790  1.6856
 2919SOL    HW2 9571   7.298   7.017   7.878 -0.6752 -0.5005  2.5552
 2920SOL     OW 9572   2.448   6.061   7.808  0.0131 -0.2336 -0.4633
 2920SOL    HW1 9573   2.499   6.130   7.765 -0.8232  0.7502  0.1036
 2920SOL    HW2 9574   2.384   6.034   7.743  0.1539 -0.2760 -0.5846
 2921SOL     OW 9575   7.373   7.464   0.577 -0.1305 -0.1654 -0.3324
 2921SOL    HW1 9576   7.356   7.551   0.540 -0.0296  0.2071  0.4820
 2921SOL    HW2 9577   7.457   7.473   0.622 -1.2965  0.0063  1.8561
 2922SOL     OW 9578   0.472   6.274   3.805 -0.0405 -0.1291 -0.1601
 2922SOL    HW1 9579   0.389   6.317   3.786 -0.5773 -0.3918  1.5393
 2922SOL    HW2 9580   0.470   6.257   3.899  2.0983  0.1842 -0.0271
 2923SOL     OW 9581   0.644   7.438   4.800  0.1296  0.2640  0.5958
 2923SOL    HW1 9582   0.615   7.352   4.829  0.5884 -0.3262 -0.6625
 2923SOL    HW2 9583   0.702   7.421   4.726  1.1676  1.5899  1.0611
 2924SOL     OW 9584   5.101   5.825   6.272  0.0085  0.3445  0.3894
 2924SOL    HW1 9585   5.191   5.811   6.245  0.1692  0.1277  1.0101
 2924SOL    HW2 9586   5.086   5.919   6.261  0.1432  0.2937 -0.2126
 2925SOL     OW 9587   1.599   4.361   7.524  0.0612  0.1441  0.2571
 2925SOL    HW1 9588   1.543   4.298   7.479  1.5471 -1.1052  0.0942
 2925SOL    HW2 9589   1.615   4.321   7.610  0.5826  0.5380  0.3478
 2926SOL     OW 9590   4.754   7.011   0.869 -0.0747  0.5249  1.1406
 2926SOL    HW1 9591   4.822   7.015   0.936  0.8917 -0.9728  0.2784
 2926SOL    HW2 9592   4.726   6.919   0.868 -1.5808  0.9696  0.9577
 2927SOL     OW 9593   3.250   2.979   3.042  0.6596  0.5123  0.6537
 2927SOL    HW1 9594   3.165   3.023   3.041  0.7855  0.8519  2.6229
 2927SOL    HW2 9595   3.298   3.022   3.113  2.4831  0.3268 -0.4512
 2928SOL     OW 9596   6.889   5.137   3.065 -0.0936  0.5459  0.4118
 2928SOL    HW1 9597   6.838   5.075   3.014  0.4632  0.0244  0.4911
 2928SOL    HW2 9598   6.833   5.157   3.141 -0.3929  0.3691  0.2385
 2929SOL     OW 9599   2.497   4.534   5.008 -0.0540 -0.4635  0.5553
 2929SOL    HW1 9600   2.550   4.511   4.931 -0.3427  2.2039 -0.4862
 2929SOL    HW2 9601   2.556   4.585   5.063 -1.1161  1.5069 -0.0601
 2930SOL     OW 9602   3.857   6.300   5.858 -0.1318 -0.2099  0.4645
 2930SOL    HW1 9603   3.777   6.254   5.883 -0.4755 -0.8333 -1.6500
 2930SOL    HW2 9604   3.831   6.352   5.782  1.2274  0.3540  0.3831
 2931SOL     OW 9605   6.010   4.005   6.835 -0.4732  0.2540  0.2183
 2931SOL    HW1 9606   6.085   3.974   6.885 -0.3863 -1.2750 -0.8231
 2931SOL    HW2 9607   5.950   4.042   6.901  1.0557  1.2645  1.0742
 2932SOL     OW 9608   1.202   0.317   3.856  0.4818 -1.3522  0.1050
 2932SOL    HW1 9609   1.147   0.374   3.803  1.7057  0.6299  0.9364
 2932SOL    HW2 9610   1.142   0.275   3.917 -0.2966 -0.2019  0.1342
 2933SOL     OW 9611   6.429   2.191   7.029 -0.1254 -0.4903  0.2174
 2933SOL    HW1 9612   6.499   2.239   6.985 -1.0360  1.3813  0.7403
 2933SOL    HW2 9613   6.475   2.138   7.095  0.8028  0.6900  0.5379
 2934SOL     OW 9614   7.022   5.342   5.722 -0.2739  0.0753  0.9657
 2934SOL    HW1 9615   7.029   5.268   5.783  0.1787 -2.2020 -1.7638
 2934SOL    HW2 9616   7.113   5.359   5.696 -0.6569 -0.3693 -0.6755
 2935SOL     OW 9617   0.937   5.461   2.260 -0.6067 -0.1187 -0.2123
 2935SOL    HW1 9618   0.932   5.546   2.216  1.5042 -0.6851 -1.6361
 2935SOL    HW2 9619   1.022   5.463   2.304 -0.0297 -1.9163 -1.1887
 2936SOL     OW 9620   7.126   2.949   2.904  0.0307  0.5301 -0.0965
 2936SOL    HW1 9621   7.063   3.008   2.946  1.2698  1.0745  1.0299
 2936SOL    HW2 9622   7.072   2.889   2.854 -1.3868  1.1436  0.6560
 2937SOL     OW 9623   5.390   0.840   7.417  0.1129  0.4798 -0.1806
 2937SOL    HW1 9624   5.459   0.883   7.367  0.5157 -0.5217 -0.4848
 2937SOL    HW2 9625   5.329   0.807   7.352  0.0055  0.2554  0.0305
 2938SOL     OW 9626   3.317   7.715   2.488  0.0932  0.1344  0.1673
 2938SOL    HW1 9627   3.320   7.791   2.431 -1.0343  2.1914  2.7382
 2938SOL    HW2 9628   3.378   7.735   2.559 -1.5113 -0.5371  1.7963
 2939SOL     OW 9629   1.887   7.473   7.100  0.2574  0.8505 -0.2577
 2939SOL    HW1 9630   1.914   7.510   7.016  0.0012  2.7474  0.4864
 2939SOL    HW2 9631   1.921   7.533   7.166 -2.4830  1.2623  0.8589
 2940SOL     OW 9632   3.952   2.887   3.875  1.0800 -0.2636  0.2224
 2940SOL    HW1 9633   3.945   2.980   3.855  2.0167  0.0872  1.4804
 2940SOL    HW2 9634   3.925   2.881   3.967 -1.4543 -1.5911 -0.5628
 2941SOL     OW 9635   7.442   2.198   0.617 -0.2482  0.0310 -0.0437
 2941SOL    HW1 9636   7.397   2.146   0.550 -2.1298  0.9216  0.5005
 2941SOL    HW2 9637   7.428   2.150   0.698 -0.3808  0.4227  0.1642
 2942SOL     OW 9638   6.091   5.008   1.175  0.3447  0.1824  0.2644
 2942SOL    HW1 9639   6.042   5.025   1.095 -2.4575 -0.6765  1.7702
 2942SOL    HW2 9640   6.080   5.087   1.228  0.0817 -0.2419  0.8536
 2943SOL     OW 9641   6.999   7.777   3.108  0.9724 -0.0547 -0.2744
 2943SOL    HW1 9642   7.084   7.801   3.146  1.1854  0.3273 -0.9716
 2943SOL    HW2 9643   6.960   7.717   3.172  1.2784  0.6402  0.5732
 2944SOL     OW 9644   4.107   0.104   4.455  0.5029  0.1613 -0.0102
 2944SOL    HW1 9645   4.169   0.046   4.411 -0.0382  0.0038 -0.5678
 2944SOL    HW2 9646   4.075   0.163   4.387 -0.3604 -0.1084  0.1528
 2945SOL     OW 9647   0.819   2.755   4.401  0.0651  0.1270  0.3567
 2945SOL    HW1 9648   0.883   2.719   4.340 -0.4937 -0.9487  0.3887
 2945SOL    HW2 9649   0.868   2.767   4.482 -0.1332 -2.1753  0.8445
 2946SOL     OW 9650   5.451   2.444   2.313  0.3221 -0.2788 -0.2671
 2946SOL    HW1 9651   5.410   2.492   2.384 -2.0019 -0.4278 -1.4794
 2946SOL    HW2 9652   5.417   2.355   2.321  2.2701 -1.0096  0.1501
 2947SOL     OW 9653   3.518   3.860   7.183 -0.2157 -0.1049 -0.7695
 2947SOL    HW1 9654   3.481   3.887   7.267  0.7996 -0.4213 -0.2146
 2947SOL    HW2 9655   3.612   3.872   7.194  0.0796 -1.9610 -1.2199
 2948SOL     OW 9656   0.655   1.903   6.606  0.5643  0.1313 -0.2120
 2948SOL    HW1 9657   0.735   1.909   6.658  0.1711  0.4494  0.3641
 2948SOL    HW2 9658   0.659   1.976   6.545  0.4889  0.4309  0.1400
 2949SOL     OW 9659   4.770   1.582   7.642  0.0767 -0.7796 -0.2188
 2949SOL    HW1 9660   4.740   1.502   7.684 -1.1363 -0.1273  0.1908
 2949SOL    HW2 9661   4.762   1.565   7.548 -1.2923 -0.7405 -0.1198
 2950SOL     OW 9662   4.516   7.013   2.514 -0.7039  0.1766  0.1384
 2950SOL    HW1 9663   4.458   7.074   2.559 -1.3890  1.4369 -2.3585
 2950SOL    HW2 9664   4.601   7.022   2.558 -0.0854  4.8746 -1.7974
 2951SOL     OW 9665   3.009   5.630   4.265 -0.0497  0.4367 -0.0782
 2951SOL    HW1 9666   2.921   5.667   4.266  0.0130  0.5895  1.6215
 2951SOL    HW2 9667   3.034   5.629   4.173 -1.0937  2.1821 -0.3979
 2952SOL     OW 9668   6.015   2.583   7.714 -0.9914 -0.5821 -0.4013
 2952SOL    HW1 9669   6.061   2.627   7.786 -1.6091  0.1516 -0.4495
 2952SOL    HW2 9670   6.084   2.565   7.650 -0.6717  0.0702 -0.2530
 2953SOL     OW 9671   6.085   6.598   5.837  0.8370 -0.2857  0.2830
 2953SOL    HW1 9672   6.026   6.644   5.896  0.8371  0.0447  0.0265
 2953SOL    HW2 9673   6.169   6.643   5.846  0.7811 -0.0890 -0.1356
 2954SOL     OW 9674   2.576   3.771   0.795 -0.2361 -0.2348 -0.0759
 2954SOL    HW1 9675   2.502   3.786   0.853 -1.0466  1.5657 -1.5123
 2954SOL    HW2 9676   2.602   3.859   0.767  2.4119 -0.8526  0.3583
 2955SOL     OW 9677   0.392   4.173   3.337  0.6696  0.4827  0.2847
 2955SOL    HW1 9678   0.481   4.151   3.310 -0.0692  0.7693 -2.5302
 2955SOL    HW2 9679   0.345   4.089   3.334  0.7125  0.4117  1.3233
 2956SOL     OW 9680   1.091   2.427   4.238 -0.0631 -0.2887  0.6316
 2956SOL    HW1 9681   1.057   2.489   4.173  0.0524 -0.6495  0.2197
 2956SOL    HW2 9682   1.027   2.356   4.238 -0.4551  0.0649  1.4659
 2957SOL     OW 9683   3.683   1.261   0.385  0.5631 -0.2693 -0.2703
 2957SOL    HW1 9684   3.616   1.287   0.322  1.3281 -0.7496 -1.3070
 2957SOL    HW2 9685   3.725   1.343   0.411 -1.9936  0.3012  2.2293
 2958SOL     OW 9686   0.682   4.874   3.371 -0.3099  0.2788  0.2766
 2958SOL    HW1 9687   0.630   4.829   3.438  0.6690  0.4722  1.1708
 2958SOL    HW2 9688   0.749   4.810   3.346 -0.1862  0.4971  0.0455
 2959SOL     OW 9689   7.864   3.407   4.418  0.4432  0.3848 -0.2333
 2959SOL    HW1 9690   7.842   3.437   4.506 -0.1383  0.1287 -0.2954
 2959SOL    HW2 9691   7.831   3.476   4.361  0.0236  0.1187 -0.3096
 2960SOL     OW 9692   7.815   0.678   6.229  0.1132  0.1608  0.2267
 2960SOL    HW1 9693   7.813   0.774   6.228 -0.5287  0.1508 -1.6240
 2960SOL    HW2 9694   7.908   0.657   6.219  0.0428  0.6176 -1.6728
 2961SOL     OW 9695   6.702   4.353   0.355  0.3797  0.1041  0.3098
 2961SOL    HW1 9696   6.677   4.299   0.279  0.5627  0.7519 -0.2213
 2961SOL    HW2 9697   6.716   4.440   0.318  0.9861  0.3067  1.0108
 2962SOL     OW 9698   7.003   2.186   0.468 -0.2991 -0.4583 -0.2483
 2962SOL    HW1 9699   6.956   2.186   0.552 -0.6225  0.7883 -0.4202
 2962SOL    HW2 9700   7.004   2.277   0.441  4.1141 -0.0891  0.7839
 2963SOL     OW 9701   3.646   1.234   2.333 -0.1603  0.3897 -0.2020
 2963SOL    HW1 9702   3.729   1.231   2.381  0.4186 -1.6621 -1.2419
 2963SOL    HW2 9703   3.600   1.155   2.361 -1.6196  1.3229  0.0836
 2964SOL     OW 9704   7.505   3.652   6.976 -0.0513  0.1729  0.2575
 2964SOL    HW1 9705   7.586   3.612   7.008 -0.1224 -0.3209 -0.1593
 2964SOL    HW2 9706   7.435   3.606   7.023 -0.2324 -1.6553 -1.7202
 2965SOL     OW 9707   5.908   3.271   2.592 -0.4142  0.1881  0.1210
 2965SOL    HW1 9708   5.842   3.340   2.599 -1.2595 -0.8012  2.2936
 2965SOL    HW2 9709   5.977   3.297   2.653  0.3552  0.2848 -0.7808
 2966SOL     OW 9710   1.456   4.069   6.765  0.3323  0.1131 -0.5464
 2966SOL    HW1 9711   1.431   4.052   6.855  2.7368 -1.4009 -0.1026
 2966SOL    HW2 9712   1.432   3.989   6.717  2.4239 -0.6071 -0.4678
 2967SOL     OW 9713   5.706   5.223   5.287  0.1518 -0.0065 -0.2084
 2967SOL    HW1 9714   5.740   5.267   5.364 -1.8986  1.1001  0.1031
 2967SOL    HW2 9715   5.666   5.292   5.234  0.9772 -0.8367 -1.9628
 2968SOL     OW 9716   7.527   7.483   5.659  0.1465  0.1314  0.0364
 2968SOL    HW1 9717   7.586   7.418   5.620  1.3877  0.5491  1.2102
 2968SOL    HW2 9718   7.579   7.526   5.727 -1.3573  0.8473  0.7584
 2969SOL     OW 9719   4.202   2.204   2.909  0.3068 -0.3268  0.4209
 2969SOL    HW1 9720   4.182   2.118   2.946  1.3334 -0.3388  0.9678
 2969SOL    HW2 9721   4.227   2.258   2.984 -1.2311  0.7419  0.2110
 2970SOL     OW 9722   1.657   1.554   4.475  0.1679  0.0283 -0.5606
 2970SOL    HW1 9723   1.751   1.542   4.461 -0.0417 -1.5445 -0.7277
 2970SOL    HW2 9724   1.621   1.566   4.387  0.0358 -0.7406 -0.6121
 2971SOL     OW 9725   1.553   6.324   7.605  0.0184 -0.1310  0.2196
 2971SOL    HW1 9726   1.563   6.372   7.687  1.0153 -1.0195  0.6320
 2971SOL    HW2 9727   1.460   6.304   7.599 -0.1840  0.6425  0.7205
 2972SOL     OW 9728   1.299   4.877   5.360 -0.0437 -0.3763  0.0998
 2972SOL    HW1 9729   1.233   4.940   5.331 -0.9993 -1.1460  0.5841
 2972SOL    HW2 9730   1.299   4.808   5.294 -0.6916 -1.0501  0.7898
 2973SOL     OW 9731   7.130   7.640   4.398  0.2578  0.3342  0.1658
 2973SOL    HW1 9732   7.072   7.680   4.334  0.6481 -0.5262 -0.7348
 2973SOL    HW2 9733   7.147   7.710   4.462 -0.1874  1.1726 -0.6213
 2974SOL     OW 9734   5.555   1.955   6.614  0.5671  0.4850 -0.5691
 2974SOL    HW1 9735   5.556   1.969   6.520  0.8824 -2.6206 -1.0672
 2974SOL    HW2 9736   5.475   1.906   6.631  0.7062  0.6794  0.7527
 2975SOL     OW 9737   5.280   4.503   1.918 -0.5451 -0.4983  0.0237
 2975SOL    HW1 9738   5.193   4.477   1.887 -0.5440  1.8949 -2.1810
 2975SOL    HW2 9739   5.263   4.545   2.003 -1.8490  1.7293 -1.2829
 2976SOL     OW 9740   3.945   5.277   4.282  0.3441  0.2436 -0.2206
 2976SOL    HW1 9741   4.040   5.264   4.280  0.4261  0.4306  1.4420
 2976SOL    HW2 9742   3.912   5.224   4.210  1.5822 -1.1210  0.1845
 2977SOL     OW 9743   5.418   2.089   6.368  0.7409 -0.8544 -0.1976
 2977SOL    HW1 9744   5.444   2.147   6.440 -2.0609  1.5225 -0.9657
 2977SOL    HW2 9745   5.335   2.052   6.396  0.4456 -1.2054 -1.5107
 2978SOL     OW 9746   2.427   4.099   3.499 -0.0710 -0.3683 -0.0627
 2978SOL    HW1 9747   2.503   4.154   3.518 -0.0507 -0.0329 -1.0838
 2978SOL    HW2 9748   2.353   4.160   3.498 -0.2300 -0.5575  0.0669
 2979SOL     OW 9749   6.452   3.679   3.185 -0.7311  0.1190 -0.3043
 2979SOL    HW1 9750   6.401   3.599   3.169 -3.7238  1.7912  0.3659
 2979SOL    HW2 9751   6.458   3.684   3.281  0.8747 -0.1493 -0.3878
 2980SOL     OW 9752   0.414   6.750   5.105  0.0220 -0.3871  0.2038
 2980SOL    HW1 9753   0.410   6.791   5.192  2.3042 -1.2466  0.7582
 2980SOL    HW2 9754   0.393   6.658   5.121  1.8808 -0.8420  0.0865
 2981SOL     OW 9755   0.155   7.831   6.463  0.1290  0.3485 -0.8703
 2981SOL    HW1 9756   0.097   7.760   6.432  0.1846  0.2422 -0.7310
 2981SOL    HW2 9757   0.241   7.808   6.427  0.1128  0.4318 -0.9610
 2982SOL     OW 9758   7.712   4.974   3.672 -0.0121  0.5352  0.4539
 2982SOL    HW1 9759   7.663   5.039   3.723  1.2672  0.0158  2.3781
 2982SOL    HW2 9760   7.739   5.022   3.593 -1.3154  1.5837  0.6235
 2983SOL     OW 9761   3.393   0.551   2.908 -0.3278 -0.8839  1.0660
 2983SOL    HW1 9762   3.298   0.549   2.922 -0.3699  0.8826  1.2317
 2983SOL    HW2 9763   3.407   0.502   2.827 -1.2548 -2.0836  1.6076
 2984SOL     OW 9764   1.975   6.318   5.070 -0.1874  0.0519  0.3411
 2984SOL    HW1 9765   1.929   6.262   5.132 -1.5857  0.4360 -0.3135
 2984SOL    HW2 9766   2.063   6.329   5.107 -0.3601 -1.3739  1.1968
 2985SOL     OW 9767   6.270   4.815   4.449  0.2142 -0.1686 -0.2192
 2985SOL    HW1 9768   6.219   4.890   4.480  3.1164  1.8197 -0.0215
 2985SOL    HW2 9769   6.315   4.847   4.371  1.2923 -1.8096 -0.3013
 2986SOL     OW 9770   1.860   4.040   7.012 -0.3871 -0.0694 -0.1404
 2986SOL    HW1 9771   1.837   4.118   6.960 -0.1037  1.3302  1.7747
 2986SOL    HW2 9772   1.934   4.001   6.965 -0.7757  0.6027 -1.3349
 2987SOL     OW 9773   1.730   6.824   4.543  0.0401 -0.0155 -0.0068
 2987SOL    HW1 9774   1.759   6.883   4.613 -1.2409 -0.0732  0.5905
 2987SOL    HW2 9775   1.719   6.740   4.587  0.4477 -0.3502 -0.5502
 2988SOL     OW 9776   7.367   4.448   3.816 -0.7159  0.7134  0.3439
 2988SOL    HW1 9777   7.303   4.390   3.775  1.1972  0.2033 -2.0590
 2988SOL    HW2 9778   7.334   4.536   3.798 -1.3719  0.4405  0.2002
 2989SOL     OW 9779   7.425   1.013   6.178 -0.4593  0.3953 -0.2558
 2989SOL    HW1 9780   7.404   0.927   6.144  0.3824  0.2577 -0.4394
 2989SOL    HW2 9781   7.458   1.062   6.103 -0.1470  0.6125  0.0175
 2990SOL     OW 9782   5.285   2.367   6.501  0.3735 -0.1436 -0.4466
 2990SOL    HW1 9783   5.355   2.400   6.446  0.3429  1.6022  0.5153
 2990SOL    HW2 9784   5.316   2.383   6.591 -0.4788 -0.9987  0.0073
 2991SOL     OW 9785   5.965   0.920   2.647 -0.1905 -0.5402 -0.4795
 2991SOL    HW1 9786   5.898   0.956   2.706 -0.3239 -0.4931 -0.6611
 2991SOL    HW2 9787   6.027   0.876   2.705  0.5848  0.9473 -0.1298
 2992SOL     OW 9788   0.038   2.215   7.503  0.2161  0.5767  0.1204
 2992SOL    HW1 9789   0.101   2.284   7.483 -1.2778  1.7476 -0.6440
 2992SOL    HW2 9790  -0.043   2.243   7.461 -0.8992 -0.7846  1.2951
 2993SOL     OW 9791   0.742   0.747   6.235 -0.2619 -0.5658 -0.0952
 2993SOL    HW1 9792   0.819   0.727   6.287  0.3642 -0.0469 -0.8084
 2993SOL    HW2 9793   0.702   0.661   6.217 -0.0123 -0.8103  0.5129
 2994SOL     OW 9794   4.255   5.252   2.790 -0.1561  0.0248 -0.5985
 2994SOL    HW1 9795   4.272   5.315   2.860  0.1110 -0.0229 -0.6168
 2994SOL    HW2 9796   4.178   5.203   2.818 -0.0456  0.0021 -0.3385
 2995SOL     OW 9797   6.925   4.032   4.862 -0.0320  0.1560 -0.1272
 2995SOL    HW1 9798   6.981   4.067   4.792  0.2884 -0.4615 -0.1830
 2995SOL    HW2 9799   6.985   3.980   4.917 -0.9442 -2.3784 -1.4445
 2996SOL     OW 9800   2.136   0.380   3.300 -0.4350  0.3663  0.6065
 2996SOL    HW1 9801   2.078   0.365   3.225 -0.8247  1.3791  0.7059
 2996SOL    HW2 9802   2.172   0.293   3.319 -1.1970 -0.1035 -0.0429
 2997SOL     OW 9803   2.104   3.391   3.794  0.5071 -0.2131  0.7602
 2997SOL    HW1 9804   2.192   3.355   3.781  0.7019  0.7629 -0.8533
 2997SOL    HW2 9805   2.050   3.347   3.728  0.0323 -0.0242  1.0194
 2998SOL     OW 9806   6.395   6.707   0.642 -0.3898 -0.1009 -0.2873
 2998SOL    HW1 9807   6.397   6.658   0.560  1.3504 -0.3094 -0.1410
 2998SOL    HW2 9808   6.481   6.693   0.680 -1.0651  0.2821  1.4141
 2999SOL     OW 9809   6.844   3.931   0.421 -0.5993  0.0855  0.0110
 2999SOL    HW1 9810   6.926   3.955   0.463 -2.1379  2.1300  1.9311
 2999SOL    HW2 9811   6.795   3.883   0.488 -0.6267 -1.9737 -1.4198
 3000SOL     OW 9812   7.882   2.330   1.404  0.7427 -0.1654 -0.4806
 3000SOL    HW1 9813   7.857   2.273   1.477 -0.8295 -1.5211 -2.0057
 3000SOL    HW2 9814   7.895   2.416   1.444 -1.3180 -0.5936  1.2383
 3001SOL     OW 9815   0.590   1.792   7.522 -0.2318 -0.3323  1.2599
 3001SOL    HW1 9816   0.586   1.847   7.601 -0.2964  1.3130  0.1286
 3001SOL    HW2 9817   0.502   1.755   7.515 -0.3965 -0.0227  1.6442
 3002SOL     OW 9818   3.030   6.576   3.199  0.4285 -0.3769 -0.1203
 3002SOL    HW1 9819   3.034   6.498   3.142  0.8461  0.9172 -1.9148
 3002SOL    HW2 9820   2.937   6.592   3.209  0.3497  0.1929 -1.6123
 3003SOL     OW 9821   3.036   1.133   5.367  0.2113 -0.6229 -0.6190
 3003SOL    HW1 9822   3.053   1.083   5.447  0.7653  2.2364  1.1068
 3003SOL    HW2 9823   2.959   1.187   5.388  0.7208  0.5886 -1.7974
 3004SOL     OW 9824   4.304   5.266   4.772 -0.0571  0.1281 -0.3153
 3004SOL    HW1 9825   4.337   5.179   4.751  1.5803  0.5714  0.4010
 3004SOL    HW2 9826   4.217   5.250   4.808  0.4721 -1.2570  0.3669
 3005SOL     OW 9827   7.485   6.416   6.230 -0.0825  0.1245  0.0254
 3005SOL    HW1 9828   7.404   6.394   6.276  0.2106 -1.5726 -0.2403
 3005SOL    HW2 9829   7.459   6.420   6.138  0.1130 -0.3501 -0.0526
 3006SOL     OW 9830   2.146   4.174   3.491 -0.1363 -0.2507 -0.7258
 3006SOL    HW1 9831   2.059   4.171   3.451 -1.0669  0.8229  1.1418
 3006SOL    HW2 9832   2.157   4.089   3.533 -1.5324  0.6300  1.5045
 3007SOL     OW 9833   0.907   3.651   7.786 -0.0162 -0.3359  0.4367
 3007SOL    HW1 9834   0.856   3.731   7.771  1.3004  0.1467 -1.5750
 3007SOL    HW2 9835   0.934   3.658   7.878  1.5769  2.4599 -0.1579
 3008SOL     OW 9836   1.125   0.196   6.734 -0.0965 -0.4686  0.7908
 3008SOL    HW1 9837   1.211   0.183   6.775  0.2638 -2.3636 -0.4797
 3008SOL    HW2 9838   1.066   0.214   6.807  1.1474 -0.4661  1.8133
 3009SOL     OW 9839   6.082   5.598   1.217 -0.1446 -0.2555  0.3500
 3009SOL    HW1 9840   6.159   5.565   1.169  0.6607  1.6077  0.3231
 3009SOL    HW2 9841   6.007   5.562   1.170  0.6856 -0.8494 -0.5447
 3010SOL     OW 9842   7.537   5.169   3.809 -0.2208 -0.1174  0.1083
 3010SOL    HW1 9843   7.598   5.218   3.864  0.6084 -0.7091 -0.2623
 3010SOL    HW2 9844   7.450   5.196   3.839  0.2198 -0.0956  1.3978
 3011SOL     OW 9845   6.765   7.190   3.887  0.1527 -0.5863 -0.2534
 3011SOL    HW1 9846   6.714   7.122   3.841 -2.4080  0.7387  0.5124
 3011SOL    HW2 9847   6.714   7.270   3.875  2.6413  1.0396 -0.3137
 3012SOL     OW 9848   7.577   3.310   5.726  1.0134  0.6071 -0.3913
 3012SOL    HW1 9849   7.584   3.376   5.795 -0.2554  1.3640 -0.9469
 3012SOL    HW2 9850   7.657   3.258   5.733  1.0134  0.8262  1.4757
 3013SOL     OW 9851   5.749   4.673   0.484 -0.0665 -0.4256  0.1702
 3013SOL    HW1 9852   5.718   4.732   0.416 -1.6798 -0.8601  0.5141
 3013SOL    HW2 9853   5.717   4.586   0.457 -0.2607 -0.6793  1.2016
 3014SOL     OW 9854   1.947   1.747   2.929 -0.1896  0.1455  0.2288
 3014SOL    HW1 9855   2.023   1.779   2.882  0.6124 -0.5741  1.0106
 3014SOL    HW2 9856   1.980   1.726   3.017 -0.7733 -2.4178 -0.1313
 3015SOL     OW 9857   0.108   1.736   0.305  0.0018  0.7373 -0.0874
 3015SOL    HW1 9858   0.168   1.666   0.278  0.1600  1.0539 -0.5486
 3015SOL    HW2 9859   0.165   1.807   0.333 -0.1368  1.5485 -1.7992
 3016SOL     OW 9860   5.368   3.367   7.283 -0.0756 -0.5726  0.3679
 3016SOL    HW1 9861   5.463   3.368   7.281 -0.1023  1.5095 -2.8061
 3016SOL    HW2 9862   5.342   3.333   7.197 -2.2078 -0.9708  1.1244
 3017SOL     OW 9863   3.687   0.261   1.378  0.4949 -0.3077 -0.2235
 3017SOL    HW1 9864   3.760   0.253   1.440  1.9038 -0.5606 -1.8668
 3017SOL    HW2 9865   3.611   0.281   1.432  1.8878  0.4642  1.4827
 3018SOL     OW 9866   7.201   5.113   5.800 -0.0311 -0.1572  0.2534
 3018SOL    HW1 9867   7.231   5.035   5.753 -0.1843 -0.5887  0.8691
 3018SOL    HW2 9868   7.277   5.139   5.853 -0.2396 -0.3645  0.6593
 3019SOL     OW 9869   2.079   5.811   0.997 -0.5823  0.8294 -0.0335
 3019SOL    HW1 9870   2.109   5.862   0.922  0.9998 -1.1409 -0.7774
 3019SOL    HW2 9871   2.151   5.817   1.060 -1.2946  1.2541  0.7571
 3020SOL     OW 9872   1.052   4.912   6.664  0.1365  0.7140  0.4359
 3020SOL    HW1 9873   1.073   4.819   6.679 -1.1983  0.1926 -0.8141
 3020SOL    HW2 9874   1.126   4.945   6.613  0.8792  0.4838  1.3510
 3021SOL     OW 9875   0.833   2.816   0.609 -0.6039 -0.0642 -0.3928
 3021SOL    HW1 9876   0.738   2.826   0.610 -0.4903  1.2351 -1.0782
 3021SOL    HW2 9877   0.851   2.763   0.532 -0.7392  0.1258 -0.5548
 3022SOL     OW 9878   4.439   3.058   7.886 -0.6542 -0.1382 -0.1554
 3022SOL    HW1 9879   4.487   3.129   7.929  0.4616 -1.0127  0.0941
 3022SOL    HW2 9880   4.401   3.007   7.958  3.1326 -2.9422  0.0314
 3023SOL     OW 9881   0.289   1.503   4.742 -0.1427  0.2822 -0.0264
 3023SOL    HW1 9882   0.259   1.574   4.799 -1.1502  1.3802 -1.8635
 3023SOL    HW2 9883   0.383   1.517   4.733  0.5390 -1.4709  3.4434
 3024SOL     OW 9884   3.074   2.364   6.704 -0.7199 -0.0746  0.1171
 3024SOL    HW1 9885   3.051   2.435   6.763 -1.5272  0.2115 -0.5374
 3024SOL    HW2 9886   3.134   2.403   6.641  1.3411 -0.7414  1.6246
 3025SOL     OW 9887   0.067   3.794   0.773  0.3830  0.5155  0.1529
 3025SOL    HW1 9888   0.033   3.729   0.835  0.9226  1.3243  1.3241
 3025SOL    HW2 9889   0.066   3.876   0.822 -1.8744  1.7257 -1.8789
 3026SOL     OW 9890   1.557   2.217   5.399 -0.7085 -0.6053  0.0617
 3026SOL    HW1 9891   1.482   2.205   5.458 -0.3543  0.4256  0.7450
 3026SOL    HW2 9892   1.634   2.208   5.456 -0.3488 -0.1546 -0.3518
 3027SOL     OW 9893   5.937   7.965   1.139  0.0283 -0.4208  0.2271
 3027SOL    HW1 9894   5.897   8.000   1.060 -0.8053  1.3091  1.3672
 3027SOL    HW2 9895   6.022   8.010   1.144  1.4691 -2.8428 -1.2979
 3028SOL     OW 9896   5.211   5.506   5.711 -0.5614  0.5377  0.3871
 3028SOL    HW1 9897   5.243   5.424   5.749 -1.1391  0.5458  0.9047
 3028SOL    HW2 9898   5.191   5.561   5.787 -2.4268  0.2888  0.1114
 3029SOL     OW 9899   7.503   1.745   7.368  0.1563  0.1160  0.2313
 3029SOL    HW1 9900   7.542   1.739   7.455 -1.1132 -0.4761  0.7617
 3029SOL    HW2 9901   7.411   1.764   7.384  0.2776  1.9789 -1.0246
 3030SOL     OW 9902   7.414   1.275   3.855  0.3740 -0.3359  0.3249
 3030SOL    HW1 9903   7.324   1.251   3.876  0.3756 -0.5578  0.0729
 3030SOL    HW2 9904   7.419   1.273   3.759  0.2148  1.2208  0.2605
 3031SOL     OW 9905   5.158   7.371   7.020  0.1198 -0.0414 -0.0437
 3031SOL    HW1 9906   5.109   7.442   6.979 -1.5646  0.4712  2.6917
 3031SOL    HW2 9907   5.222   7.416   7.076  0.3145 -0.6661  0.2402
 3032SOL     OW 9908   3.409   3.208   1.049  0.3553  0.2338  0.2652
 3032SOL    HW1 9909   3.352   3.225   1.124 -0.3906  1.1607 -0.4984
 3032SOL    HW2 9910   3.387   3.118   1.023  1.4388 -0.5118  1.8390
 3033SOL     OW 9911   6.786   4.684   2.583 -0.0316 -0.3130 -0.3906
 3033SOL    HW1 9912   6.830   4.647   2.659 -1.8377  0.1902  0.9375
 3033SOL    HW2 9913   6.714   4.735   2.620  0.0719  1.3194 -2.3577
 3034SOL     OW 9914   4.552   6.380   1.395  0.3131  0.3769  0.1796
 3034SOL    HW1 9915   4.493   6.451   1.369  1.0551  0.5996 -0.9271
 3034SOL    HW2 9916   4.493   6.308   1.420 -0.4561  0.5329 -1.0941
 3035SOL     OW 9917   3.813   5.059   5.218  0.6875  0.2898  0.1721
 3035SOL    HW1 9918   3.873   5.056   5.292 -0.5764  0.0152  1.2073
 3035SOL    HW2 9919   3.824   5.146   5.181  0.3385  0.9288  1.5392
 3036SOL     OW 9920   5.565   7.935   7.388 -0.6860  0.0347 -0.7305
 3036SOL    HW1 9921   5.533   7.972   7.470  1.0767 -0.1485  0.0692
 3036SOL    HW2 9922   5.559   8.006   7.324  2.3424  1.6651  0.6952
 3037SOL     OW 9923   7.722   6.374   3.249  0.1352  0.4612 -0.1796
 3037SOL    HW1 9924   7.669   6.341   3.176 -0.9894 -0.1266  0.8958
 3037SOL    HW2 9925   7.718   6.470   3.240  1.3668  0.3866 -1.8467
 3038SOL     OW 9926   3.281   6.710   2.708 -0.3474 -0.4667 -0.2874
 3038SOL    HW1 9927   3.276   6.626   2.661 -0.0138  0.2403 -1.6057
 3038SOL    HW2 9928   3.212   6.763   2.669  0.0145  0.1719 -0.0587
 3039SOL     OW 9929   5.928   2.045   4.828 -0.4666 -0.1218 -0.0404
 3039SOL    HW1 9930   5.940   2.133   4.792 -1.6475 -0.0126 -0.2029
 3039SOL    HW2 9931   5.888   2.060   4.914 -2.7961 -0.5470 -1.0030
 3040SOL     OW 9932   3.480   5.484   4.419  0.7381 -0.6491  0.1766
 3040SOL    HW1 9933   3.542   5.513   4.352 -0.8383  1.0086 -0.5919
 3040SOL    HW2 9934   3.399   5.530   4.399 -0.2507 -1.4213  2.2328
 3041SOL     OW 9935   5.117   7.846   2.816 -0.3436 -0.4020  0.2561
 3041SOL    HW1 9936   5.048   7.903   2.849  1.3948  0.2953  2.8644
 3041SOL    HW2 9937   5.122   7.774   2.879 -1.5599 -2.7640 -2.2347
 3042SOL     OW 9938   5.175   2.384   2.846  0.1464  0.1667 -0.5778
 3042SOL    HW1 9939   5.180   2.337   2.762 -1.2973 -2.2236  0.6117
 3042SOL    HW2 9940   5.149   2.317   2.909 -0.7893  2.3533  1.4265
 3043SOL     OW 9941   1.446   6.388   1.142  0.4112 -0.1756 -0.3118
 3043SOL    HW1 9942   1.539   6.374   1.155  0.4970  1.4187  0.8633
 3043SOL    HW2 9943   1.418   6.438   1.218 -0.7631  2.1795 -2.2192
 3044SOL     OW 9944   3.829   0.440   1.866  0.7721 -0.0787 -0.1301
 3044SOL    HW1 9945   3.748   0.411   1.909  1.2974 -1.3287  0.0292
 3044SOL    HW2 9946   3.881   0.361   1.856  2.9016  0.9983  1.6843
 3045SOL     OW 9947   2.944   4.990   5.826 -0.3757  0.4307 -0.0105
 3045SOL    HW1 9948   3.018   4.930   5.819 -2.2513 -2.1655  1.6721
 3045SOL    HW2 9949   2.984   5.076   5.835  2.3944 -0.5639 -2.0104
 3046SOL     OW 9950   1.131   2.746   1.770  0.2769  0.0954 -0.2891
 3046SOL    HW1 9951   1.196   2.790   1.715 -1.1803  3.0176  0.2197
 3046SOL    HW2 9952   1.047   2.772   1.734 -0.6581 -0.7063  1.2493
 3047SOL     OW 9953   1.503   5.409   5.326 -0.4848  0.9125  0.0320
 3047SOL    HW1 9954   1.423   5.373   5.364  0.4996 -0.8080  0.5001
 3047SOL    HW2 9955   1.573   5.381   5.385  0.7551  0.3604 -1.6668
 3048SOL     OW 9956   6.634   7.821   0.715  0.6291  0.0447 -0.1625
 3048SOL    HW1 9957   6.723   7.850   0.737  0.6714  0.7941 -1.2921
 3048SOL    HW2 9958   6.607   7.880   0.645  0.0941 -1.6343 -1.3846
 3049SOL     OW 9959   1.676   7.851   0.198 -0.0302 -0.1632  0.0829
 3049SOL    HW1 9960   1.682   7.881   0.107  0.5832  2.1613  0.8519
 3049SOL    HW2 9961   1.590   7.882   0.227  0.0239 -0.3817  0.4754
 3050SOL     OW 9962   6.950   5.430   2.130 -0.0056 -0.1229 -0.1972
 3050SOL    HW1 9963   6.895   5.492   2.178  0.7857 -0.5111  1.2575
 3050SOL    HW2 9964   7.036   5.472   2.126  0.6215 -1.2414  1.1005
 3051SOL     OW 9965   3.783   0.912   2.862  0.1701  0.6619 -0.4476
 3051SOL    HW1 9966   3.833   0.914   2.943 -0.2979  1.7815 -0.1822
 3051SOL    HW2 9967   3.705   0.860   2.883  0.3407  0.4441 -0.3513
 3052SOL     OW 9968   6.026   3.426   1.653 -0.4451  0.3225 -0.5522
 3052SOL    HW1 9969   5.963   3.356   1.637  0.9779 -1.6214  1.9626
 3052SOL    HW2 9970   5.992   3.472   1.729  0.6073 -0.1036  0.1931
 3053SOL     OW 9971   7.873   3.328   6.872 -0.3182  0.0650 -0.1326
 3053SOL    HW1 9972   7.841   3.409   6.911  1.0197  1.7529 -2.3643
 3053SOL    HW2 9973   7.799   3.294   6.822 -0.5735  0.5222 -0.0714
 3054SOL     OW 9974   5.110   5.029   5.417 -0.3291 -0.0484  0.1273
 3054SOL    HW1 9975   5.025   4.995   5.388  0.0737 -0.7787 -0.1988
 3054SOL    HW2 9976   5.097   5.049   5.510 -0.8062 -0.3344  0.1245
 3055SOL     OW 9977   3.337   7.501   1.084  0.4365  0.1305 -0.0314
 3055SOL    HW1 9978   3.305   7.553   1.158 -3.4739 -1.7534 -0.2892
 3055SOL    HW2 9979   3.368   7.419   1.123  1.1740  0.3302 -0.1905
 3056SOL     OW 9980   2.920   4.843   0.071 -0.5981  0.0275 -0.0012
 3056SOL    HW1 9981   2.867   4.764   0.080  0.3213 -0.3251  2.5378
 3056SOL    HW2 9982   3.005   4.820   0.107  1.2623  0.7058 -3.6471
 3057SOL     OW 9983   7.038   2.630   2.962 -0.1248 -0.4137 -0.0319
 3057SOL    HW1 9984   7.048   2.684   2.883 -2.8119  0.3551  0.0962
 3057SOL    HW2 9985   7.127   2.616   2.993  1.0013 -0.7633 -3.2213
 3058SOL     OW 9986   7.137   2.991   3.784 -0.1410  0.0895  0.8006
 3058SOL    HW1 9987   7.168   3.072   3.824  1.4099  0.2725 -0.7392
 3058SOL    HW2 9988   7.058   3.017   3.737  0.0818  0.6102  0.7084
 3059SOL     OW 9989   6.495   4.575   6.862  0.7243 -0.2737 -0.2981
 3059SOL    HW1 9990   6.555   4.638   6.903 -0.7249 -0.1358  1.6884
 3059SOL    HW2 9991   6.500   4.594   6.769 -0.5335  3.5341  0.3386
 3060SOL     OW 9992   5.490   6.262   4.350 -0.2855  0.0024 -0.7338
 3060SOL    HW1 9993   5.515   6.280   4.440 -0.4689 -3.0050 -0.0275
 3060SOL    HW2 9994   5.459   6.172   4.351 -2.5355  0.6529 -3.3488
 3061SOL     OW 9995   1.755   6.382   4.097  0.1984 -0.0532  0.2469
 3061SOL    HW1 9996   1.847   6.385   4.072  0.3577 -1.6480  0.5362
 3061SOL    HW2 9997   1.732   6.472   4.118  1.4568  0.4854 -0.6752
 3062SOL     OW 9998   2.491   3.161   0.630 -0.3694 -0.2078 -0.0939
 3062SOL    HW1 9999   2.440   3.242   0.633  0.6732  0.4936 -0.8553
 3062SOL    HW210000   2.515   3.144   0.721 -0.0347  0.7194  0.0009
 3063SOL     OW10001   7.542   4.290   7.457 -0.3186 -0.5239  0.1506
 3063SOL    HW110002   7.528   4.376   7.497 -1.5178  0.9479 -3.2553
 3063SOL    HW210003   7.458   4.246   7.465 -0.5828 -0.1965 -0.7873
 3064SOL     OW10004   1.341   4.577   0.341 -0.5041  0.6224 -0.7387
 3064SOL    HW110005   1.352   4.484   0.322 -0.0084  0.9067 -1.9269
 3064SOL    HW210006   1.410   4.620   0.290  0.4161  1.5080  1.2049
 3065SOL     OW10007   7.158   1.094   0.551  0.3852 -0.3871  0.3935
 3065SOL    HW110008   7.165   1.010   0.597 -1.1901 -1.1085 -0.6137
 3065SOL    HW210009   7.200   1.157   0.609  0.8776 -1.7349  1.5411
 3066SOL     OW10010   5.119   2.657   1.465 -0.1577  0.0755 -0.1351
 3066SOL    HW110011   5.186   2.695   1.408  0.7666  1.6723  1.8995
 3066SOL    HW210012   5.084   2.733   1.514 -0.3484 -1.2982  1.9398
 3067SOL     OW10013   0.742   7.502   7.994 -0.0523 -0.6427 -0.3181
 3067SOL    HW110014   0.662   7.552   8.009  1.0578  1.3474 -0.8564
 3067SOL    HW210015   0.753   7.500   7.899  1.4377  0.6202 -0.2036
 3068SOL     OW10016   2.332   2.753   2.487 -0.0440 -0.4111 -0.1506
 3068SOL    HW110017   2.397   2.782   2.552 -0.4036  0.1163 -0.0254
 3068SOL    HW210018   2.379   2.756   2.404 -0.1169  0.6915 -0.1631
 3069SOL     OW10019   3.845   0.868   0.066 -0.3534  0.0456  0.0085
 3069SOL    HW110020   3.891   0.884   0.149 -0.1790 -1.0625  0.1462
 3069SOL    HW210021   3.891   0.922   0.002 -0.4778  0.9003  0.6291
 3070SOL     OW10022   4.288   5.648   6.721 -0.9124  0.3297  0.1890
 3070SOL    HW110023   4.281   5.716   6.787  1.6070  2.0017 -1.1711
 3070SOL    HW210024   4.201   5.643   6.683 -1.8196  0.8806  2.1396
 3071SOL     OW10025   2.174   3.753   2.588 -0.0202 -0.3046  0.5350
 3071SOL    HW110026   2.223   3.697   2.649  1.8649  2.2401  1.4559
 3071SOL    HW210027   2.104   3.790   2.641  1.4977  1.7485  1.2003
 3072SOL     OW10028   3.341   0.343   3.890  0.7262 -0.4375 -0.1304
 3072SOL    HW110029   3.363   0.426   3.849 -1.3797 -0.4370 -1.3227
 3072SOL    HW210030   3.251   0.354   3.920  0.8474 -1.8699  0.8397
 3073SOL     OW10031   1.379   3.850   0.753  0.1679 -0.6139  0.1113
 3073SOL    HW110032   1.374   3.894   0.838  1.4075 -1.9599  0.8915
 3073SOL    HW210033   1.354   3.759   0.771  1.8956 -1.2633 -0.6722
 3074SOL     OW10034   4.939   0.144   0.239 -0.4193 -0.4206  0.5267
 3074SOL    HW110035   5.027   0.127   0.274  0.8188  2.6375 -0.9468
 3074SOL    HW210036   4.913   0.061   0.199  2.7529 -0.7533 -1.0163
 3075SOL     OW10037   5.009   7.251   2.927  0.3297  0.4995  0.2196
 3075SOL    HW110038   5.049   7.331   2.893 -1.4451  1.9780  1.4992
 3075SOL    HW210039   5.010   7.263   3.022 -0.8997 -0.5424  0.3739
 3076SOL     OW10040   0.504   4.294   7.862  0.1824 -0.5497 -0.1320
 3076SOL    HW110041   0.558   4.221   7.833 -0.3026 -0.5975 -0.9212
 3076SOL    HW210042   0.414   4.268   7.841  0.2074  1.4074 -2.9200
 3077SOL     OW10043   1.803   2.291   7.515 -0.3823  0.2925 -0.3157
 3077SOL    HW110044   1.858   2.369   7.522 -0.6258  0.5652 -1.3472
 3077SOL    HW210045   1.728   2.308   7.573  0.4802  0.0216  0.9062
 3078SOL     OW10046   0.684   5.943   2.269  0.5205  0.2088 -0.2080
 3078SOL    HW110047   0.615   6.002   2.300 -0.9550 -2.4625  1.7950
 3078SOL    HW210048   0.660   5.924   2.178 -0.6870  0.3246  0.0799
 3079SOL     OW10049   0.045   5.584   1.036  0.6346 -0.2786  0.4695
 3079SOL    HW110050   0.009   5.535   0.962 -0.1699 -0.9455  1.2858
 3079SOL    HW210051  -0.002   5.667   1.035 -0.7411 -1.0191  1.3357
 3080SOL     OW10052   2.653   4.092   0.358 -0.2008 -0.3060 -0.1516
 3080SOL    HW110053   2.642   4.123   0.268  0.3878 -1.5622 -0.6712
 3080SOL    HW210054   2.588   4.023   0.369 -0.0678 -0.3671  0.2817
 3081SOL     OW10055   6.460   0.121   6.463  0.4716 -0.4694 -0.0459
 3081SOL    HW110056   6.479   0.208   6.428  0.8977 -0.1414  0.9584
 3081SOL    HW210057   6.545   0.088   6.493  0.0123 -0.3767  1.4382
 3082SOL     OW10058   0.469   3.012   1.263 -0.2890 -0.0571  0.5981
 3082SOL    HW110059   0.395   3.032   1.320  0.2906 -0.7634  1.6234
 3082SOL    HW210060   0.528   3.086   1.273  0.0692 -0.4445  1.3553
 3083SOL     OW10061   2.209   1.646   7.984  0.1483  0.1698 -0.0814
 3083SOL    HW110062   2.198   1.614   7.894  1.2397 -0.5779  0.0469
 3083SOL    HW210063   2.229   1.568   8.035 -2.0325  0.3576  1.1129
 3084SOL     OW10064   1.678   1.667   7.454  0.2747 -0.0608 -0.2216
 3084SOL    HW110065   1.698   1.590   7.400  2.6384  1.0053 -0.9022
 3084SOL    HW210066   1.605   1.709   7.410 -0.8557 -1.7380 -0.0059
 3085SOL     OW10067   5.040   6.744   0.380 -0.4250  0.2638 -0.4606
 3085SOL    HW110068   5.094   6.804   0.431 -0.6506  1.3005 -1.4265
 3085SOL    HW210069   5.099   6.672   0.357  0.0031  0.4074  0.1664
 3086SOL     OW10070   3.770   0.088   5.887  0.1221  0.5264 -0.6085
 3086SOL    HW110071   3.835   0.018   5.892  0.9705  1.0320 -3.4033
 3086SOL    HW210072   3.718   0.066   5.809  0.7112  3.2465 -1.8167
 3087SOL     OW10073   4.602   4.810   1.129 -0.2180 -0.5921 -0.2015
 3087SOL    HW110074   4.659   4.745   1.171  1.3221 -0.6696 -2.3267
 3087SOL    HW210075   4.662   4.863   1.077 -1.7485  1.2433 -0.1218
 3088SOL     OW10076   0.550   3.360   6.434 -0.2664 -0.5369 -0.3075
 3088SOL    HW110077   0.478   3.307   6.399 -0.4052  0.4155 -1.5294
 3088SOL    HW210078   0.509   3.413   6.502 -0.9841  0.7645 -1.7187
 3089SOL     OW10079   7.966   2.729   6.064  0.5439  0.8499  0.5253
 3089SOL    HW110080   8.002   2.671   6.131  0.9075  1.1995  0.6389
 3089SOL    HW210081   8.043   2.758   6.014  0.2628  0.5026 -0.1125
 3090SOL     OW10082   3.648   6.067   6.455 -0.2421 -0.2755 -0.2419
 3090SOL    HW110083   3.630   5.974   6.442 -1.5866  0.0519 -0.7479
 3090SOL    HW210084   3.707   6.090   6.383  0.8347 -0.9374  0.4115
 3091SOL     OW10085   2.348   3.297   5.513 -0.0202  0.2186 -0.4359
 3091SOL    HW110086   2.403   3.368   5.479 -0.1259  1.5986  2.1665
 3091SOL    HW210087   2.384   3.277   5.599 -0.9165 -1.8901 -0.5243
 3092SOL     OW10088   7.238   0.421   5.463  0.1010  0.2046 -0.2530
 3092SOL    HW110089   7.156   0.431   5.414 -1.2130 -0.6994  1.6818
 3092SOL    HW210090   7.233   0.333   5.501  1.4179  0.5917  0.8727
 3093SOL     OW10091   6.522   3.155   2.089  0.3234  0.1191  0.0944
 3093SOL    HW110092   6.440   3.184   2.050  0.4399  0.7402  0.3102
 3093SOL    HW210093   6.561   3.098   2.023 -1.0780 -1.5378  0.6652
 3094SOL     OW10094   2.800   5.095   2.894 -0.1178 -0.2441  0.4191
 3094SOL    HW110095   2.844   5.101   2.979  0.3292  0.2773  0.1612
 3094SOL    HW210096   2.848   5.157   2.839  0.3658 -1.4674 -0.5457
 3095SOL     OW10097   2.450   4.865   3.466 -0.5064 -0.2751  0.1278
 3095SOL    HW110098   2.445   4.919   3.545  0.6063  0.3661 -0.2265
 3095SOL    HW210099   2.368   4.883   3.420 -1.2355 -0.7895  1.2238
 3096SOL     OW10100   3.131   0.241   1.607  0.0969 -0.3344 -0.0642
 3096SOL    HW110101   3.117   0.269   1.697 -1.2096  4.2147 -1.5605
 3096SOL    HW210102   3.045   0.211   1.578  0.3762 -1.1909 -0.0242
 3097SOL     OW10103   4.011   1.398   2.166 -0.5076 -0.1894 -0.3736
 3097SOL    HW110104   3.991   1.484   2.204 -1.8882 -1.0910  0.9934
 3097SOL    HW210105   3.959   1.394   2.085 -1.3554 -0.2005  0.1703
 3098SOL     OW10106   7.916   4.387   6.029  0.3797  0.2584 -0.1779
 3098SOL    HW110107   7.919   4.328   5.953  2.0727  1.5690 -1.1675
 3098SOL    HW210108   7.996   4.368   6.077  0.1564  0.6473  0.3485
 3099SOL     OW10109   1.328   4.665   5.124  0.8529  0.3116  0.2875
 3099SOL    HW110110   1.392   4.621   5.180  1.5839  0.3341 -0.5251
 3099SOL    HW210111   1.313   4.605   5.052  1.4177  1.1258 -0.5254
 3100SOL     OW10112   4.367   2.823   4.254 -0.0448  0.7410  0.2112
 3100SOL    HW110113   4.344   2.808   4.346  1.3606  3.2613  1.0019
 3100SOL    HW210114   4.314   2.899   4.229  0.9633  1.2144 -0.5018
 3101SOL     OW10115   6.258   1.855   7.230 -0.5072 -0.2517 -0.7965
 3101SOL    HW110116   6.182   1.801   7.207 -0.4761  0.6017 -3.0305
 3101SOL    HW210117   6.329   1.791   7.244 -0.6055 -0.8552 -2.8531
 3102SOL     OW10118   4.707   0.589   2.979  0.1839  0.0097  0.0748
 3102SOL    HW110119   4.761   0.634   2.914  0.3230  1.2701  1.0300
 3102SOL    HW210120   4.664   0.519   2.930  0.8208  0.4926 -1.2163
 3103SOL     OW10121   5.629   1.022   2.599  0.1378  0.1046  0.1146
 3103SOL    HW110122   5.671   1.108   2.608  0.4375 -0.2295  2.4456
 3103SOL    HW210123   5.623   0.989   2.689 -1.8480 -1.4331 -0.5330
 3104SOL     OW10124   5.260   1.691   5.525 -0.3071  0.3075  0.0454
 3104SOL    HW110125   5.202   1.759   5.561  0.2638 -0.5941  2.7411
 3104SOL    HW210126   5.340   1.738   5.502  0.4949  0.4127  2.9112
 3105SOL     OW10127   2.135   2.440   6.279  0.4992  0.0630 -0.2189
 3105SOL    HW110128   2.118   2.369   6.341  1.6255 -1.1498 -1.2972
 3105SOL    HW210129   2.076   2.423   6.206  1.2465 -0.1449 -0.7764
 3106SOL     OW10130   2.209   7.728   0.793 -0.4641 -0.6484  0.5021
 3106SOL    HW110131   2.192   7.811   0.749 -0.1482 -0.2529  1.1210
 3106SOL    HW210132   2.263   7.752   0.868  2.0549 -1.7338 -0.9014
 3107SOL     OW10133   0.588   0.626   0.482 -0.5802 -0.0060 -0.2002
 3107SOL    HW110134   0.547   0.580   0.409 -2.3147  1.5923 -0.2714
 3107SOL    HW210135   0.548   0.588   0.561 -1.6876  1.0378 -0.2440
 3108SOL     OW10136   4.022   7.707   5.406 -0.7376 -0.0232  0.5695
 3108SOL    HW110137   3.926   7.714   5.409 -0.5729  1.6572  2.0925
 3108SOL    HW210138   4.049   7.776   5.345 -0.4394 -0.0224  0.7021
 3109SOL     OW10139   1.109   5.836   2.670  0.2077  0.1508 -0.1591
 3109SOL    HW110140   1.020   5.839   2.704  0.5291  0.9625  0.6264
 3109SOL    HW210141   1.127   5.742   2.656 -0.9722  0.0279 -0.9001
 3110SOL     OW10142   6.058   1.448   6.785 -0.0282  0.7232 -0.2346
 3110SOL    HW110143   6.117   1.452   6.860 -0.2324  0.9463 -0.0852
 3110SOL    HW210144   5.984   1.504   6.810 -1.1039 -0.8872  0.2910
 3111SOL     OW10145   7.241   5.993   5.582 -0.2105 -0.3588 -0.1066
 3111SOL    HW110146   7.334   5.971   5.570 -0.1424  0.0331 -0.2911
 3111SOL    HW210147   7.229   6.075   5.535 -0.6224 -0.3372  0.0324
 3112SOL     OW10148   7.590   4.633   5.910  0.2801  0.0885  0.5605
 3112SOL    HW110149   7.552   4.547   5.927 -4.3831  2.0564  1.0348
 3112SOL    HW210150   7.639   4.654   5.990 -1.4517 -0.7133  1.8659
 3113SOL     OW10151   7.447   5.081   4.249 -0.5417 -0.0985 -0.3647
 3113SOL    HW110152   7.421   5.167   4.281 -2.3499 -1.1722  1.1953
 3113SOL    HW210153   7.505   5.046   4.317  0.0421 -0.1961 -0.9055
 3114SOL     OW10154   0.295   3.771   0.540  0.2147  0.3165 -0.0357
 3114SOL    HW110155   0.364   3.829   0.509 -0.3957  0.8885 -0.3386
 3114SOL    HW210156   0.269   3.806   0.625  0.7874 -0.3182  0.4063
 3115SOL     OW10157   4.032   2.950   5.156 -0.6650  0.4000 -0.1598
 3115SOL    HW110158   4.019   2.946   5.061 -1.0310  1.3706 -0.1623
 3115SOL    HW210159   4.055   3.042   5.172  0.8174 -0.0959  0.5180
 3116SOL     OW10160   4.963   6.719   2.142 -0.4857 -0.5277  0.5743
 3116SOL    HW110161   4.871   6.713   2.168 -0.7834  1.2739 -0.0039
 3116SOL    HW210162   4.996   6.797   2.187  0.7582 -1.1072  0.7099
 3117SOL     OW10163   1.433   6.627   3.071  0.6110  0.5659  0.2263
 3117SOL    HW110164   1.523   6.594   3.061  0.8586  1.0682  0.7940
 3117SOL    HW210165   1.378   6.554   3.041  1.1726 -0.1319  0.8539
 3118SOL     OW10166   0.077   2.709   0.658 -0.1367  0.7146 -0.4710
 3118SOL    HW110167   0.149   2.727   0.718 -0.1539  0.0882 -0.2551
 3118SOL    HW210168   0.119   2.698   0.573  0.1074 -0.3513 -0.2198
 3119SOL     OW10169   5.906   6.109   7.872  0.9283 -0.0668 -0.4713
 3119SOL    HW110170   5.813   6.114   7.894  1.2650 -0.6220  1.1516
 3119SOL    HW210171   5.917   6.023   7.831  0.6774  0.1231 -0.9433
 3120SOL     OW10172   7.663   1.738   1.756 -0.2556 -0.2431 -0.7942
 3120SOL    HW110173   7.723   1.682   1.707 -0.2852  0.2399 -1.3970
 3120SOL    HW210174   7.719   1.799   1.803 -0.3253  2.2525 -3.8359
 3121SOL     OW10175   2.796   5.346   1.474  0.2287  0.2036 -0.2690
 3121SOL    HW110176   2.881   5.340   1.516  0.5178  0.8757 -0.7399
 3121SOL    HW210177   2.800   5.283   1.402  0.2823  0.1324 -0.2033
 3122SOL     OW10178   0.432   4.985   5.021 -0.2660 -0.1584  0.1476
 3122SOL    HW110179   0.340   5.009   5.035 -0.4580 -1.4269  1.1383
 3122SOL    HW210180   0.436   4.958   4.929 -0.5902  1.1949 -0.2704
 3123SOL     OW10181   5.163   2.784   6.458 -0.4997  0.3765  0.3215
 3123SOL    HW110182   5.093   2.819   6.513 -0.3620  0.7804  0.2366
 3123SOL    HW210183   5.117   2.735   6.389 -0.6695 -0.2094  0.8477
 3124SOL     OW10184   4.379   4.615   4.155  0.2395 -0.2373 -0.3546
 3124SOL    HW110185   4.321   4.663   4.095  0.0969 -0.0225 -0.0429
 3124SOL    HW210186   4.375   4.525   4.124  2.2581  0.2994 -2.3495
 3125SOL     OW10187   0.277   1.719   4.953  0.0162 -0.0154 -0.2744
 3125SOL    HW110188   0.243   1.800   4.914  0.3805  1.4819  2.3380
 3125SOL    HW210189   0.372   1.726   4.941  0.0798  0.1621  0.3063
 3126SOL     OW10190   0.223   7.794   1.253 -0.0529  0.1164  0.8824
 3126SOL    HW110191   0.229   7.699   1.245  1.2157  0.0965  1.7467
 3126SOL    HW210192   0.264   7.827   1.173 -0.9035 -0.0530  0.3674
 3127SOL     OW10193   7.593   5.444   3.581  0.5306  0.1300 -0.4991
 3127SOL    HW110194   7.543   5.470   3.658 -0.4767  1.1292 -1.4633
 3127SOL    HW210195   7.636   5.362   3.606 -0.8540 -0.2550  0.6531
 3128SOL     OW10196   0.602   4.271   0.508 -0.6889  0.1828  0.1346
 3128SOL    HW110197   0.630   4.359   0.532  0.3557 -0.3279  0.8267
 3128SOL    HW210198   0.507   4.277   0.501 -0.4724  1.8533 -1.8458
 3129SOL     OW10199   0.610   5.100   2.156 -0.0956  0.2655  0.3825
 3129SOL    HW110200   0.652   5.183   2.136 -0.7121  0.4290 -0.2859
 3129SOL    HW210201   0.637   5.042   2.085 -0.0396  0.0303  0.5964
 3130SOL     OW10202   7.332   5.487   7.882 -0.1980  0.1917  0.3696
 3130SOL    HW110203   7.259   5.436   7.916  0.1796 -1.0436 -0.5995
 3130SOL    HW210204   7.324   5.573   7.924 -2.6267  0.3277 -0.3013
 3131SOL     OW10205   7.209   4.392   6.424 -0.1335 -0.5544  0.3096
 3131SOL    HW110206   7.143   4.458   6.403 -0.1846 -0.2143  1.5208
 3131SOL    HW210207   7.277   4.404   6.358 -0.3615  0.4031  0.2428
 3132SOL     OW10208   0.678   1.079   3.465 -0.1384 -0.0952 -0.0306
 3132SOL    HW110209   0.683   1.058   3.559  0.0408 -0.0836 -0.0375
 3132SOL    HW210210   0.712   1.001   3.421  0.7607  0.3039 -0.0484
 3133SOL     OW10211   1.210   4.028   3.496  0.2392  0.7514  0.7588
 3133SOL    HW110212   1.273   4.009   3.566  0.1023 -0.2885  0.6063
 3133SOL    HW210213   1.253   3.997   3.416 -0.1020  0.8625  0.5307
 3134SOL     OW10214   2.475   0.580   2.276 -0.6894 -0.6052 -0.7180
 3134SOL    HW110215   2.560   0.536   2.274 -1.6132 -2.4465 -0.4268
 3134SOL    HW210216   2.453   0.594   2.184 -0.5643 -1.0981 -0.8243
 3135SOL     OW10217   1.315   4.415   5.480  0.2758  0.2941  0.3791
 3135SOL    HW110218   1.351   4.363   5.551  1.0472  1.7009  1.0344
 3135SOL    HW210219   1.311   4.504   5.515 -1.8197  0.5586 -0.4127
 3136SOL     OW10220   2.677   0.310   6.196  0.2924 -0.9016  0.4010
 3136SOL    HW110221   2.587   0.280   6.196  0.4220 -1.2877  0.8737
 3136SOL    HW210222   2.728   0.235   6.224  0.7491 -0.6457  0.2623
 3137SOL     OW10223   3.027   6.511   0.913  0.4390  0.0424 -0.1355
 3137SOL    HW110224   3.092   6.580   0.902  1.4235 -1.0667 -1.4484
 3137SOL    HW210225   3.078   6.430   0.922 -0.7004 -0.5831  0.9245
 3138SOL     OW10226   6.643   5.152   5.425  0.1826 -0.2910 -0.1233
 3138SOL    HW110227   6.604   5.078   5.380 -1.4923  0.6657 -0.2738
 3138SOL    HW210228   6.714   5.180   5.367 -0.4631 -0.5221 -1.0432
 3139SOL     OW10229   1.887   5.510   4.361  0.1193  0.0543  0.5190
 3139SOL    HW110230   1.920   5.572   4.295 -0.1858 -1.6993 -1.3385
 3139SOL    HW210231   1.792   5.522   4.359 -0.1394 -2.0471 -1.5174
 3140SOL     OW10232   0.536   3.382   2.170  0.0915  0.7923  0.4048
 3140SOL    HW110233   0.586   3.391   2.088  0.2531  0.7128  0.4958
 3140SOL    HW210234   0.587   3.321   2.223 -0.8385 -0.4302 -0.0808
 3141SOL     OW10235   4.345   3.333   1.526  0.1845  0.0608 -0.1944
 3141SOL    HW110236   4.283   3.265   1.500 -0.6613  0.4252  0.8528
 3141SOL    HW210237   4.296   3.415   1.516  1.0337  0.4831 -0.9583
 3142SOL     OW10238   5.240   5.948   1.784 -0.1930  1.9841 -0.1097
 3142SOL    HW110239   5.219   6.042   1.783  1.4233  2.3696  0.4271
 3142SOL    HW210240   5.238   5.923   1.691 -0.9891  2.4586 -0.2280
 3143SOL     OW10241   1.734   5.124   1.443 -0.5864 -0.1024 -0.2498
 3143SOL    HW110242   1.796   5.059   1.475 -0.5688  0.3538  0.6413
 3143SOL    HW210243   1.648   5.084   1.455 -0.4947 -0.5507 -1.0643
 3144SOL     OW10244   5.929   0.488   2.392  0.2099  0.1435  0.5410
 3144SOL    HW110245   5.903   0.545   2.319 -0.1796 -0.8441 -0.1096
 3144SOL    HW210246   5.973   0.546   2.453  1.9484  0.7335 -1.2119
 3145SOL     OW10247   7.745   4.179   7.736  0.3817 -0.4484 -0.0097
 3145SOL    HW110248   7.674   4.167   7.673  0.5497  2.3226 -0.7780
 3145SOL    HW210249   7.706   4.155   7.821 -0.7271 -1.3129 -0.7532
 3146SOL     OW10250   2.795   0.483   1.864  0.2080  0.4810 -0.5898
 3146SOL    HW110251   2.730   0.437   1.811  0.5517 -0.4172 -0.2513
 3146SOL    HW210252   2.743   0.526   1.932  0.0645 -1.6079  0.6799
 3147SOL     OW10253   4.826   5.891   4.381 -0.2486 -0.4219 -0.1031
 3147SOL    HW110254   4.888   5.916   4.313  0.0494 -2.9658 -0.8227
 3147SOL    HW210255   4.882   5.864   4.455 -0.5535  0.8340  0.5957
 3148SOL     OW10256   5.372   3.017   2.467 -0.0070  0.5157  0.9578
 3148SOL    HW110257   5.283   3.025   2.435 -0.6033  0.3081  2.5155
 3148SOL    HW210258   5.370   3.055   2.555  1.3633  0.2429  1.1253
 3149SOL     OW10259   0.705   7.707   6.546  0.7015  0.5713 -0.6183
 3149SOL    HW110260   0.743   7.702   6.458  1.6271 -1.7290 -0.1289
 3149SOL    HW210261   0.612   7.685   6.532  0.7910  0.4460 -1.0430
 3150SOL     OW10262   1.961   1.513   5.909  1.0684  0.2278 -0.4388
 3150SOL    HW110263   1.894   1.446   5.896  0.1250  1.0506  0.0934
 3150SOL    HW210264   2.034   1.485   5.854  0.9202 -1.5487  0.2128
 3151SOL     OW10265   5.395   4.653   4.866  0.2581  0.3830 -0.2805
 3151SOL    HW110266   5.465   4.702   4.910  0.2770 -1.4129  1.7257
 3151SOL    HW210267   5.441   4.598   4.802  0.5190  0.4536 -0.1527
 3152SOL     OW10268   4.548   3.030   4.928  0.3154 -0.3246 -0.4685
 3152SOL    HW110269   4.594   2.963   4.879 -0.1263 -2.6940  2.2438
 3152SOL    HW210270   4.616   3.075   4.979  0.2116 -0.8296  0.1191
 3153SOL     OW10271   0.357   4.668   7.477  0.3762  0.1235  0.2518
 3153SOL    HW110272   0.439   4.716   7.493  0.4463  0.0318  0.1663
 3153SOL    HW210273   0.341   4.680   7.383  0.3316  0.0779  0.2542
 3154SOL     OW10274   0.718   5.882   5.051  0.0601  0.2559  0.1582
 3154SOL    HW110275   0.628   5.906   5.073 -0.5628 -0.8706 -1.1209
 3154SOL    HW210276   0.715   5.788   5.036  1.8627 -0.1602  2.1187
 3155SOL     OW10277   0.338   7.198   6.214 -0.1853  0.6141 -0.5412
 3155SOL    HW110278   0.280   7.236   6.147 -0.4077 -1.8018 -1.8028
 3155SOL    HW210279   0.394   7.137   6.165  0.4740 -0.3103  1.3139
 3156SOL     OW10280   4.713   2.374   2.035 -0.3485 -0.2314 -0.1048
 3156SOL    HW110281   4.710   2.341   2.125  2.0502  1.0430  0.4792
 3156SOL    HW210282   4.729   2.297   1.981 -0.7797 -0.8510  0.6486
 3157SOL     OW10283   6.230   2.499   3.983 -0.5290 -0.1543  0.4181
 3157SOL    HW110284   6.273   2.415   3.968 -0.6479 -0.1516  0.0531
 3157SOL    HW210285   6.149   2.494   3.932  0.2608  0.8387 -0.9660
 3158SOL     OW10286   3.857   4.981   6.511  0.1024  0.4035  0.1509
 3158SOL    HW110287   3.775   5.025   6.534  0.4053  0.5067  1.0550
 3158SOL    HW210288   3.833   4.888   6.507 -0.5920  0.6422 -2.0073
 3159SOL     OW10289   7.497   2.111   1.673 -0.1630 -0.3805  0.2391
 3159SOL    HW110290   7.485   2.201   1.702 -0.0511 -0.0027 -0.8826
 3159SOL    HW210291   7.492   2.059   1.753  0.5036  0.6902  0.9802
 3160SOL     OW10292   6.093   6.180   5.166 -0.2521  0.0394  0.9881
 3160SOL    HW110293   6.038   6.178   5.088  0.2102 -0.5136  0.6688
 3160SOL    HW210294   6.166   6.236   5.143 -0.4107  0.3474  1.2291
 3161SOL     OW10295   0.983   5.810   7.302  0.5046  0.1983 -0.0641
 3161SOL    HW110296   0.914   5.768   7.354  0.7436 -1.1427 -0.8017
 3161SOL    HW210297   1.029   5.737   7.260  0.4696  1.2293 -1.9709
 3162SOL     OW10298   1.172   5.961   0.850 -0.5057 -0.0995  0.1060
 3162SOL    HW110299   1.230   5.885   0.846 -0.2358  0.1047  0.0331
 3162SOL    HW210300   1.105   5.944   0.784  0.0670  0.1313 -0.5519
 3163SOL     OW10301   3.413   2.030   2.836 -0.0547  0.7389  0.0041
 3163SOL    HW110302   3.486   2.077   2.796 -0.9229 -1.3856 -4.3877
 3163SOL    HW210303   3.337   2.054   2.783 -1.2819 -2.2498  0.3119
 3164SOL     OW10304   2.649   4.132   6.350  0.3440 -0.0386 -0.1148
 3164SOL    HW110305   2.561   4.152   6.381  0.9693 -0.5450  2.0606
 3164SOL    HW210306   2.707   4.160   6.421  1.8242 -1.0993 -0.8803
 3165SOL     OW10307   5.450   7.388   1.862 -0.4046  0.1436  0.6486
 3165SOL    HW110308   5.439   7.365   1.954 -0.5798 -1.2819  0.2903
 3165SOL    HW210309   5.544   7.375   1.845 -0.0709  1.9887  1.0298
 3166SOL     OW10310   5.908   3.191   2.929 -0.1193  0.3188 -0.2549
 3166SOL    HW110311   5.973   3.152   2.988  0.3202 -0.7506 -1.4482
 3166SOL    HW210312   5.908   3.135   2.852 -0.5597  1.8256 -1.3656
 3167SOL     OW10313   7.030   7.616   5.957 -0.2336 -0.5543  0.0579
 3167SOL    HW110314   6.953   7.626   6.014 -0.5051 -0.8919 -0.2443
 3167SOL    HW210315   7.101   7.592   6.016 -0.6273 -1.3932  0.1997
 3168SOL     OW10316   6.561   7.406   1.483  0.1500  0.3427 -0.6391
 3168SOL    HW110317   6.589   7.315   1.483  3.3663  1.2845 -1.4587
 3168SOL    HW210318   6.499   7.412   1.411 -0.1482 -1.1953 -0.5337
 3169SOL     OW10319   4.588   5.452   2.285 -0.1659  0.3657  0.1516
 3169SOL    HW110320   4.532   5.434   2.210  0.4979 -0.1760 -0.2218
 3169SOL    HW210321   4.554   5.534   2.322 -0.4164  0.7026 -0.8157
 3170SOL     OW10322   3.325   2.249   0.386  0.0691 -0.2157 -0.1671
 3170SOL    HW110323   3.299   2.276   0.474 -0.5761 -1.2998 -0.0095
 3170SOL    HW210324   3.273   2.304   0.328  1.5562  1.5123  0.1050
 3171SOL     OW10325   3.017   4.634   0.790  0.4729 -0.3171  0.6225
 3171SOL    HW110326   2.992   4.558   0.843  2.0694 -0.7361  0.8341
 3171SOL    HW210327   2.952   4.701   0.810 -0.4796 -1.3587  1.0736
 3172SOL     OW10328   5.022   6.495   4.813 -0.2849 -0.1262 -0.4436
 3172SOL    HW110329   5.034   6.551   4.890 -0.4189 -2.3120  1.2126
 3172SOL    HW210330   5.106   6.502   4.766  0.9726 -1.2019  1.5669
 3173SOL     OW10331   3.817   2.399   5.154  0.1726  0.1513  0.2473
 3173SOL    HW110332   3.752   2.417   5.222  2.0268 -0.1106  2.1264
 3173SOL    HW210333   3.864   2.322   5.185  0.3256 -0.6651 -1.8942
 3174SOL     OW10334   1.239   5.088   7.189  0.4656  0.0705 -0.4692
 3174SOL    HW110335   1.275   5.055   7.107  1.1497 -1.3416  0.3773
 3174SOL    HW210336   1.281   5.172   7.202  0.1139  0.4562 -1.7211
 3175SOL     OW10337   6.329   1.139   2.989 -0.1609 -0.0721 -0.0373
 3175SOL    HW110338   6.320   1.234   2.997 -0.9414 -0.0697 -0.8406
 3175SOL    HW210339   6.385   1.127   2.912  0.4538 -0.2571  0.4339
 3176SOL     OW10340   4.665   6.298   3.780  0.6093  0.3927 -0.4964
 3176SOL    HW110341   4.697   6.266   3.696 -0.4136  1.9341 -1.4849
 3176SOL    HW210342   4.602   6.233   3.808  0.4739  0.2080 -1.2321
 3177SOL     OW10343   3.630   2.057   3.067  0.3239  0.1835  0.0274
 3177SOL    HW110344   3.577   2.086   2.993 -0.7810 -0.8710  0.3807
 3177SOL    HW210345   3.721   2.063   3.036 -0.1220 -0.2432 -1.4105
 3178SOL     OW10346   7.503   6.017   6.353  0.4474 -0.2753  0.1046
 3178SOL    HW110347   7.494   5.977   6.267  0.0229 -0.2010  0.1138
 3178SOL    HW210348   7.413   6.033   6.382  0.6230  2.7505 -0.8675
 3179SOL     OW10349   5.447   0.054   0.737  0.1313 -0.2647  0.1535
 3179SOL    HW110350   5.391   0.119   0.694 -1.2259 -0.8552  0.9913
 3179SOL    HW210351   5.527   0.102   0.759  1.2500 -0.1349 -3.7131
 3180SOL     OW10352   3.626   3.106   7.897  0.2301 -0.1931  0.9579
 3180SOL    HW110353   3.691   3.037   7.885  1.4481  1.1253 -0.1633
 3180SOL    HW210354   3.605   3.103   7.990  0.4345 -1.9191  0.9709
 3181SOL     OW10355   2.251   7.245   2.405 -0.4364 -0.1602 -0.1807
 3181SOL    HW110356   2.333   7.292   2.387 -0.9170  0.3279 -1.0851
 3181SOL    HW210357   2.260   7.162   2.357 -1.1877  0.6106 -1.6500
 3182SOL     OW10358   2.090   6.958   7.556  0.4108  0.3676  0.1360
 3182SOL    HW110359   2.049   6.872   7.568  1.0436  0.0625  0.0990
 3182SOL    HW210360   2.016   7.018   7.546 -0.0992  0.2412  2.7822
 3183SOL     OW10361   1.625   3.584   5.995  0.0014  0.0678 -0.0003
 3183SOL    HW110362   1.668   3.670   5.997 -0.8400  0.5350 -1.3933
 3183SOL    HW210363   1.537   3.603   5.962  0.0776 -1.4584 -1.0951
 3184SOL     OW10364   4.902   6.089   1.205 -0.2099 -0.2765  0.4179
 3184SOL    HW110365   4.937   6.143   1.275 -1.4721  0.4966  0.4666
 3184SOL    HW210366   4.821   6.133   1.179  1.9037  1.4234 -3.8564
 3185SOL     OW10367   5.382   4.479   1.038 -0.0287  0.3170 -0.1324
 3185SOL    HW110368   5.320   4.415   1.075 -0.5851 -0.9690 -3.1698
 3185SOL    HW210369   5.458   4.428   1.013  1.5241  1.6171  1.8046
 3186SOL     OW10370   5.330   5.606   5.267  0.0755  0.3454 -0.0252
 3186SOL    HW110371   5.358   5.588   5.177 -0.6448  1.0886 -0.4115
 3186SOL    HW210372   5.407   5.644   5.309 -0.1683  1.9126 -0.9385
 3187SOL     OW10373   2.713   2.963   7.594  0.2431  0.4877 -0.8771
 3187SOL    HW110374   2.717   3.046   7.641  1.4174  0.4635 -0.9304
 3187SOL    HW210375   2.675   2.901   7.657  2.0630  0.3889  0.1402
 3188SOL     OW10376   1.342   0.520   6.063  0.4861  0.0780  0.5510
 3188SOL    HW110377   1.343   0.451   5.996 -0.3236  0.2008  0.4138
 3188SOL    HW210378   1.373   0.477   6.143 -0.0027 -0.4398  0.4627
 3189SOL     OW10379   3.676   7.888   4.424  0.5659 -0.2636 -0.7475
 3189SOL    HW110380   3.686   7.921   4.335 -0.5499 -0.2140 -0.8716
 3189SOL    HW210381   3.673   7.793   4.415  1.1116 -0.2870 -0.6869
 3190SOL     OW10382   6.928   5.578   5.537 -0.0613 -0.0858 -0.1481
 3190SOL    HW110383   6.835   5.554   5.529  0.3668 -1.4043 -1.2926
 3190SOL    HW210384   6.955   5.538   5.620  0.1717 -2.0727 -1.1552
 3191SOL     OW10385   7.936   0.041   3.136 -0.0580 -0.0592  0.4618
 3191SOL    HW110386   7.931  -0.049   3.169  0.0337  0.5621  2.2167
 3191SOL    HW210387   7.882   0.092   3.197 -0.8668  0.9476 -1.0455
 3192SOL     OW10388   6.103   2.302   5.749 -0.2217 -0.2240  0.6363
 3192SOL    HW110389   6.110   2.212   5.716 -0.8829  0.0430 -0.2751
 3192SOL    HW210390   6.011   2.311   5.775 -0.1745  0.2110  0.6583
 3193SOL     OW10391   0.541   6.136   6.491 -0.0154 -0.1225 -0.5672
 3193SOL    HW110392   0.531   6.062   6.431 -0.1428  0.4150 -1.2200
 3193SOL    HW210393   0.590   6.201   6.441  0.0300  0.2645 -0.0237
 3194SOL     OW10394   2.434   5.616   4.152 -0.5817  0.1687  0.3210
 3194SOL    HW110395   2.367   5.595   4.086 -0.4476  1.9049 -0.3815
 3194SOL    HW210396   2.399   5.693   4.197  0.6929  0.7581  0.3156
 3195SOL     OW10397   0.577   0.621   6.813 -0.5075 -0.1695  0.1419
 3195SOL    HW110398   0.622   0.558   6.869 -0.0440  0.6530  0.7039
 3195SOL    HW210399   0.549   0.691   6.872  0.1677  0.8030 -0.6601
 3196SOL     OW10400   2.178   6.669   6.327 -0.0386 -0.1272 -0.0680
 3196SOL    HW110401   2.145   6.584   6.357  0.5448 -0.8762 -1.5294
 3196SOL    HW210402   2.271   6.667   6.349  0.7508 -1.3318 -3.2883
 3197SOL     OW10403   0.818   4.278   4.435 -0.0806  0.3227  0.0569
 3197SOL    HW110404   0.859   4.281   4.521  0.4689 -1.1982 -0.1321
 3197SOL    HW210405   0.821   4.368   4.403  0.1165  0.8117  1.4381
 3198SOL     OW10406   5.681   4.499   7.337  0.3809 -0.4260 -0.2349
 3198SOL    HW110407   5.656   4.548   7.415  2.0565  2.1763 -1.2634
 3198SOL    HW210408   5.607   4.511   7.277  1.0734  1.4592 -0.7336
 3199SOL     OW10409   0.662   1.398   4.856 -0.8711  0.4152  0.2271
 3199SOL    HW110410   0.697   1.404   4.945 -1.4775  0.7440  0.4414
 3199SOL    HW210411   0.638   1.487   4.834 -3.9739 -0.1607  1.0424
 3200SOL     OW10412   7.563   5.633   7.673  0.0919 -0.2395 -0.5407
 3200SOL    HW110413   7.514   5.700   7.721 -0.4294  0.8832 -2.5980
 3200SOL    HW210414   7.593   5.572   7.741 -2.6930 -0.0312  0.9500
 3201SOL     OW10415   2.899   7.869   3.088 -0.1814 -0.0869 -0.0237
 3201SOL    HW110416   2.904   7.887   2.995 -1.9543  0.6292 -0.0095
 3201SOL    HW210417   2.826   7.808   3.096 -0.9659  0.9538  1.0157
 3202SOL     OW10418   2.381   4.481   7.176 -0.0661  0.4913  0.5499
 3202SOL    HW110419   2.308   4.475   7.237 -0.6737  0.6998 -0.1456
 3202SOL    HW210420   2.353   4.547   7.112 -1.0174 -2.4013 -2.1167
 3203SOL     OW10421   7.466   6.327   7.299  0.3675  0.3168 -0.1159
 3203SOL    HW110422   7.505   6.404   7.257 -1.2718  0.5678 -1.2346
 3203SOL    HW210423   7.509   6.253   7.256 -0.1747  0.5935 -1.1739
 3204SOL     OW10424   7.875   5.000   7.214  0.4546  0.5544  0.2523
 3204SOL    HW110425   7.969   5.020   7.216  0.3027  1.2300  0.5772
 3204SOL    HW210426   7.834   5.080   7.182 -0.0832  0.5217  0.8530
 3205SOL     OW10427   0.345   7.281   5.079  0.0278  0.3347  0.2915
 3205SOL    HW110428   0.266   7.334   5.086 -0.7657 -0.8831  0.8184
 3205SOL    HW210429   0.316   7.192   5.097  1.5333 -0.1311  0.5466
 3206SOL     OW10430   3.182   4.089   0.466 -0.0787 -0.3173  0.0481
 3206SOL    HW110431   3.103   4.063   0.420  0.6478 -0.8242 -0.9308
 3206SOL    HW210432   3.225   4.152   0.407  0.0679  0.2316  0.7275
 3207SOL     OW10433   1.484   7.248   6.512  0.4801  0.3737 -0.0623
 3207SOL    HW110434   1.425   7.272   6.441 -1.7131  1.3819  2.0471
 3207SOL    HW210435   1.467   7.155   6.527  2.1832 -0.2863 -1.9279
 3208SOL     OW10436   2.796   5.979   2.977 -0.0227 -0.2836 -0.1343
 3208SOL    HW110437   2.871   6.015   2.930 -0.3988 -0.8242 -1.1752
 3208SOL    HW210438   2.721   5.995   2.919 -0.3287 -1.9421 -0.2222
 3209SOL     OW10439   7.295   0.289   5.076 -0.2748  0.7497 -0.5400
 3209SOL    HW110440   7.204   0.317   5.083 -0.1426  1.0676 -0.0464
 3209SOL    HW210441   7.334   0.350   5.013 -0.5365  0.2560 -1.1941
 3210SOL     OW10442   0.554   2.512   3.513  0.2805 -0.5260 -0.4220
 3210SOL    HW110443   0.471   2.464   3.515 -0.7608  1.2153 -0.4447
 3210SOL    HW210444   0.548   2.567   3.435  0.6042  1.0350  0.6211
 3211SOL     OW10445   7.329   4.944   7.453  0.4244  0.3410 -0.4424
 3211SOL    HW110446   7.412   4.911   7.419 -1.0013 -3.0996 -0.7814
 3211SOL    HW210447   7.266   4.931   7.382 -0.7338  1.4823  0.3418
 3212SOL     OW10448   7.237   7.824   3.203  0.2972  0.0221 -0.1882
 3212SOL    HW110449   7.203   7.829   3.293 -1.0841  1.2846 -0.7677
 3212SOL    HW210450   7.328   7.852   3.210  0.8023 -1.8167  1.1256
 3213SOL     OW10451   5.414   2.157   5.238 -0.3389 -0.1377 -0.0299
 3213SOL    HW110452   5.375   2.106   5.309 -2.3356  2.9376  1.1415
 3213SOL    HW210453   5.475   2.216   5.281  0.9273 -0.5312 -1.2474
 3214SOL     OW10454   5.264   6.289   4.164  0.9186 -0.3927 -0.3042
 3214SOL    HW110455   5.232   6.232   4.234  0.9531 -0.3183 -0.2267
 3214SOL    HW210456   5.196   6.355   4.155  0.3271 -1.1213 -1.2057
 3215SOL     OW10457   0.782   4.871   5.789  0.4050  0.3042 -0.1371
 3215SOL    HW110458   0.749   4.830   5.869 -1.5065 -1.3511 -1.7106
 3215SOL    HW210459   0.872   4.839   5.781  0.2263 -0.4449  0.7715
 3216SOL     OW10460   4.913   7.636   4.822 -0.4490  0.1087  0.1209
 3216SOL    HW110461   4.825   7.625   4.858 -0.5366  0.4219  0.0031
 3216SOL    HW210462   4.938   7.725   4.847 -0.3931  0.2244 -0.3440
 3217SOL     OW10463   6.145   7.560   1.209  0.2121  0.2574  0.0123
 3217SOL    HW110464   6.163   7.588   1.119  0.0329 -3.2406 -1.1825
 3217SOL    HW210465   6.054   7.583   1.223  0.4012  1.3554 -0.4621
 3218SOL     OW10466   4.013   6.504   5.950 -0.1439  0.2518  0.3783
 3218SOL    HW110467   4.098   6.470   5.924 -0.0637  0.0980  0.8320
 3218SOL    HW210468   3.950   6.442   5.914 -0.0734  0.4778 -0.1299
 3219SOL     OW10469   3.435   6.290   1.308  0.3028 -0.0731  0.3499
 3219SOL    HW110470   3.405   6.256   1.392  1.8409  0.7052  1.2337
 3219SOL    HW210471   3.530   6.276   1.308  0.4401  0.7167 -0.8846
 3220SOL     OW10472   7.424   3.465   7.146  0.3124 -0.6780  0.0272
 3220SOL    HW110473   7.402   3.520   7.221  0.1470 -1.1052  0.2951
 3220SOL    HW210474   7.513   3.436   7.162  0.2333 -0.8729  0.1271
 3221SOL     OW10475   2.251   6.754   4.339  0.7464  0.0939 -0.1976
 3221SOL    HW110476   2.236   6.662   4.316  1.3033  0.0457 -0.3753
 3221SOL    HW210477   2.235   6.802   4.258  1.2428  0.0701 -0.3143
 3222SOL     OW10478   5.265   6.503   4.638  0.8098 -0.0682 -0.5442
 3222SOL    HW110479   5.357   6.491   4.659  1.2893  1.8643 -1.4486
 3222SOL    HW210480   5.264   6.565   4.565 -1.1773 -0.5543 -0.9716
 3223SOL     OW10481   6.392   0.778   5.863  0.4499 -0.8738  0.1292
 3223SOL    HW110482   6.325   0.766   5.931  0.1116 -1.3872 -0.2857
 3223SOL    HW210483   6.401   0.872   5.854  1.2937 -0.8007  1.6651
 3224SOL     OW10484   5.799   4.506   5.686 -0.0135 -0.0042  0.2702
 3224SOL    HW110485   5.754   4.433   5.644  0.3120 -0.1400  0.1609
 3224SOL    HW210486   5.768   4.505   5.776  0.4126 -0.6115  0.4080
 3225SOL     OW10487   1.921   4.783   4.279  0.5037 -0.5912 -0.2422
 3225SOL    HW110488   1.950   4.721   4.346 -0.0096 -1.3120 -0.6778
 3225SOL    HW210489   1.831   4.757   4.259  0.4472 -0.0039 -0.7810
 3226SOL     OW10490   7.002   1.857   4.502  0.4586  0.1443 -0.4659
 3226SOL    HW110491   7.046   1.942   4.504  0.8770 -0.0180 -2.2892
 3226SOL    HW210492   7.071   1.793   4.520  0.0001  0.2208  1.6806
 3227SOL     OW10493   1.062   0.786   0.034 -0.5481  0.3818  0.0428
 3227SOL    HW110494   1.136   0.759  -0.021 -0.5424  0.9762 -0.2484
 3227SOL    HW210495   1.062   0.882   0.029 -0.9511  0.4126  0.5534
 3228SOL     OW10496   5.830   5.236   5.544 -0.2387 -0.0919  0.2689
 3228SOL    HW110497   5.835   5.161   5.603 -0.8370 -0.7819 -0.5596
 3228SOL    HW210498   5.914   5.281   5.557  0.0540 -0.7939  0.8938
 3229SOL     OW10499   5.029   0.224   3.231 -0.2594  0.4998 -0.1797
 3229SOL    HW110500   4.991   0.302   3.190 -3.1271 -1.5713 -1.6612
 3229SOL    HW210501   5.023   0.240   3.325 -0.5331  2.1938 -0.4763
 3230SOL     OW10502   5.261   1.239   6.486  0.0106  0.8765 -0.1298
 3230SOL    HW110503   5.308   1.270   6.408  0.5021  0.8056  0.1362
 3230SOL    HW210504   5.319   1.175   6.525 -0.1990  0.9771  0.3463
 3231SOL     OW10505   6.384   0.785   7.461  0.4363 -0.0845  0.0195
 3231SOL    HW110506   6.367   0.869   7.504  1.4420  0.8736 -1.3893
 3231SOL    HW210507   6.326   0.784   7.385  0.6730 -0.5053 -0.1631
 3232SOL     OW10508   6.338   7.227   6.381 -0.0555  0.3976  0.2988
 3232SOL    HW110509   6.422   7.262   6.410  0.0571  0.3822 -0.0044
 3232SOL    HW210510   6.328   7.261   6.292  0.3713 -0.8742 -0.2549
 3233SOL     OW10511   6.662   0.569   1.502 -0.2464  0.0050  0.2226
 3233SOL    HW110512   6.691   0.538   1.416  0.1052 -1.8969  0.9947
 3233SOL    HW210513   6.737   0.615   1.537 -0.2363  0.3938 -0.3013
 3234SOL     OW10514   6.822   3.584   2.489 -0.0134 -0.0613  0.6009
 3234SOL    HW110515   6.754   3.594   2.422  0.0355  0.5150  0.6312
 3234SOL    HW210516   6.802   3.651   2.553 -0.5397 -1.1580  1.5927
 3235SOL     OW10517   3.786   1.972   7.062  0.1158 -0.3909  0.3675
 3235SOL    HW110518   3.716   1.981   7.127  2.2582  0.1139  2.6932
 3235SOL    HW210519   3.808   2.062   7.037 -0.4088 -0.5679 -0.7208
 3236SOL     OW10520   2.316   1.765   6.036  0.0912 -0.1961  0.0278
 3236SOL    HW110521   2.364   1.757   6.118  1.4200  3.9846 -0.2115
 3236SOL    HW210522   2.224   1.765   6.062  0.4420 -0.7223  1.3116
 3237SOL     OW10523   6.814   1.230   4.218 -0.5094 -0.6408 -0.0530
 3237SOL    HW110524   6.783   1.289   4.287  0.9500  0.0297  0.0580
 3237SOL    HW210525   6.741   1.225   4.156 -0.9037  0.7675  0.2750
 3238SOL     OW10526   6.919   5.127   6.257  0.7498  0.2113 -0.1749
 3238SOL    HW110527   6.934   5.218   6.280 -4.1552  1.0206  0.2548
 3238SOL    HW210528   6.918   5.127   6.161 -2.0056  1.2297 -0.2015
 3239SOL     OW10529   2.773   5.736   3.595  0.1307  0.3437 -0.6046
 3239SOL    HW110530   2.693   5.689   3.620  1.0779 -0.3766  1.1372
 3239SOL    HW210531   2.828   5.669   3.554  0.2842  0.5879 -0.7979
 3240SOL     OW10532   1.911   0.616   4.282  0.0500 -0.2118 -0.5136
 3240SOL    HW110533   1.973   0.577   4.220 -0.4461 -1.8218 -0.0182
 3240SOL    HW210534   1.913   0.557   4.358  1.0142  1.9987  1.2213
 3241SOL     OW10535   5.667   6.173   2.344  0.5581 -0.7596  0.1725
 3241SOL    HW110536   5.683   6.266   2.363  1.5135 -0.7963 -0.4248
 3241SOL    HW210537   5.754   6.133   2.346 -0.0216 -1.9870  2.1876
 3242SOL     OW10538   2.591   4.993   7.691 -0.2316  0.6224 -0.6556
 3242SOL    HW110539   2.551   5.062   7.745 -2.2863 -0.6519 -0.5121
 3242SOL    HW210540   2.676   4.978   7.731 -0.1755  2.3519 -0.0613
 3243SOL     OW10541   2.802   6.705   6.338  0.3160  0.1954 -0.3223
 3243SOL    HW110542   2.861   6.630   6.352 -1.2721 -0.7800  1.3156
 3243SOL    HW210543   2.753   6.712   6.419 -0.6384  2.0769 -1.0480
 3244SOL     OW10544   0.474   5.834   3.600 -0.0963 -0.1124  0.0726
 3244SOL    HW110545   0.526   5.808   3.675  0.0776  1.1049  0.3825
 3244SOL    HW210546   0.481   5.929   3.597 -1.6030 -0.0002 -0.3871
 3245SOL     OW10547   1.400   7.659   0.347 -0.0807  0.2319  0.1798
 3245SOL    HW110548   1.348   7.578   0.347 -1.9244  1.3635  2.2516
 3245SOL    HW210549   1.451   7.655   0.427  1.3107  0.2248 -0.6968
 3246SOL     OW10550   3.982   6.257   3.669  0.3591  0.0269 -0.2686
 3246SOL    HW110551   4.010   6.288   3.583 -1.4728 -1.9239 -1.5918
 3246SOL    HW210552   3.905   6.310   3.690 -0.0431 -0.4761 -0.4715
 3247SOL     OW10553   7.205   7.361   0.757  0.3371  0.6228 -0.8951
 3247SOL    HW110554   7.131   7.420   0.775 -0.6180 -0.0558 -2.5422
 3247SOL    HW210555   7.246   7.398   0.679  1.8065  1.0386  0.0577
 3248SOL     OW10556   7.147   1.977   2.197 -0.8606 -0.3834 -0.8901
 3248SOL    HW110557   7.205   2.002   2.125 -1.6328  0.3857 -1.2523
 3248SOL    HW210558   7.067   1.945   2.154 -2.1113  1.9579 -0.3805
 3249SOL     OW10559   7.399   5.085   6.207 -0.0778  0.3507  0.1628
 3249SOL    HW110560   7.494   5.092   6.202 -0.0953  0.0559 -0.7252
 3249SOL    HW210561   7.371   5.166   6.250  0.6114  0.2078  0.8851
 3250SOL     OW10562   4.371   0.427   4.838 -0.5995  0.1733 -0.0732
 3250SOL    HW110563   4.356   0.519   4.857 -0.9646  0.6497 -2.4738
 3250SOL    HW210564   4.396   0.389   4.922  1.4780  2.8366  0.5800
 3251SOL     OW10565   6.874   1.895   4.754  0.6098  0.1762  0.1534
 3251SOL    HW110566   6.871   1.893   4.658  1.0549 -0.6662  0.1593
 3251SOL    HW210567   6.892   1.805   4.780 -0.7668  0.1533  1.0839
 3252SOL     OW10568   6.361   3.419   3.262 -0.1936 -0.0417  0.1542
 3252SOL    HW110569   6.413   3.338   3.266 -0.0603  0.0654  0.6257
 3252SOL    HW210570   6.284   3.401   3.316 -0.5542 -0.1359 -0.3959
 3253SOL     OW10571   2.145   2.381   4.708 -0.2664 -0.1074 -0.1126
 3253SOL    HW110572   2.107   2.445   4.648 -0.4204 -0.7131 -0.6648
 3253SOL    HW210573   2.084   2.307   4.705 -0.3447 -0.0831  0.8931
 3254SOL     OW10574   5.418   0.561   7.327  0.5904  0.3038 -0.0885
 3254SOL    HW110575   5.432   0.554   7.232  0.1514  0.2239 -0.1494
 3254SOL    HW210576   5.356   0.491   7.347  0.3164  0.6244  0.1787
 3255SOL     OW10577   5.253   2.059   0.783 -0.0812 -0.1219 -0.1934
 3255SOL    HW110578   5.236   2.028   0.872  0.1068  2.5356  0.8304
 3255SOL    HW210579   5.204   2.141   0.776 -0.3543 -0.4538 -2.6724
 3256SOL     OW10580   7.809   1.464   7.734  0.4019 -0.5259 -0.2122
 3256SOL    HW110581   7.817   1.514   7.815  0.9060 -1.2435  0.1923
 3256SOL    HW210582   7.887   1.487   7.684  0.1131 -0.1160 -0.4697
 3257SOL     OW10583   2.405   7.234   2.967  0.3096 -0.3792  0.0757
 3257SOL    HW110584   2.423   7.145   2.997  1.8168 -0.3809 -0.7673
 3257SOL    HW210585   2.317   7.229   2.929  0.6061 -1.6466 -0.4716
 3258SOL     OW10586   5.363   7.493   0.828 -0.2363  0.3618 -0.7666
 3258SOL    HW110587   5.447   7.520   0.792  0.6973 -0.1375  1.0174
 3258SOL    HW210588   5.316   7.576   0.843  0.2422  0.6763 -0.9970
 3259SOL     OW10589   3.984   1.326   6.708  0.5842  0.2776 -0.2273
 3259SOL    HW110590   3.912   1.381   6.675  1.5576  0.3410 -2.3332
 3259SOL    HW210591   4.050   1.389   6.738  0.1417  0.2209  0.8942
 3260SOL     OW10592   3.787   0.012   0.669  0.4461  0.8126  0.2350
 3260SOL    HW110593   3.713  -0.016   0.723  1.5361 -0.1618  1.2620
 3260SOL    HW210594   3.775  -0.033   0.586  0.2458  0.1227  0.6353
 3261SOL     OW10595   1.549   6.829   0.073 -0.2776 -0.2847 -0.2043
 3261SOL    HW110596   1.597   6.801   0.151  1.0269 -1.2728 -1.3372
 3261SOL    HW210597   1.554   6.925   0.074  0.6299 -0.3335  0.3662
 3262SOL     OW10598   0.603   6.048   1.718  0.0673  0.7982 -0.2707
 3262SOL    HW110599   0.552   6.129   1.713 -0.8040  0.3878  1.8010
 3262SOL    HW210600   0.538   5.979   1.725  0.8683  0.2275  1.8145
 3263SOL     OW10601   3.513   4.792   7.537 -0.4845 -0.0974 -0.1621
 3263SOL    HW110602   3.435   4.758   7.493 -1.8873 -1.0712  2.9246
 3263SOL    HW210603   3.483   4.872   7.580  1.0734  1.3105 -1.6214
 3264SOL     OW10604   7.780   4.115   4.226  0.2092 -0.2126 -0.1366
 3264SOL    HW110605   7.743   4.198   4.257  0.6674  0.5605 -1.6039
 3264SOL    HW210606   7.806   4.133   4.135  0.5328 -1.8958 -0.3897
 3265SOL     OW10607   4.328   0.597   7.669 -0.1011 -0.2587  0.0833
 3265SOL    HW110608   4.376   0.657   7.726  2.5129 -1.5920 -0.6148
 3265SOL    HW210609   4.267   0.652   7.621  0.0432  1.3627  1.7012
 3266SOL     OW10610   4.309   7.522   4.458 -0.0236  0.5601 -0.1842
 3266SOL    HW110611   4.311   7.595   4.520 -0.4595  1.6571 -1.4412
 3266SOL    HW210612   4.393   7.477   4.470  0.2749  1.3101  0.5370
 3267SOL     OW10613   0.052   1.811   2.406  0.2019  0.0404 -0.6082
 3267SOL    HW110614   0.137   1.852   2.421 -0.3891  0.9624  0.3010
 3267SOL    HW210615   0.066   1.753   2.331  1.9439 -0.7471  0.2797
 3268SOL     OW10616   1.276   2.694   6.769  0.6072 -0.4283  0.4418
 3268SOL    HW110617   1.332   2.616   6.772  2.4140  0.8673  1.3973
 3268SOL    HW210618   1.287   2.728   6.680  0.3782 -0.8616  0.2477
 3269SOL     OW10619   0.282   3.026   5.876 -0.2337 -0.0687 -0.5413
 3269SOL    HW110620   0.205   3.063   5.920 -0.1482  2.6184 -2.5102
 3269SOL    HW210621   0.302   3.088   5.806  2.8553 -1.4696 -1.0110
 3270SOL     OW10622   2.789   7.357   4.649  0.2052  0.2539 -0.0951
 3270SOL    HW110623   2.753   7.429   4.597 -0.3993  1.2387  1.6363
 3270SOL    HW210624   2.721   7.338   4.714  0.9859 -0.8736  0.4229
 3271SOL     OW10625   7.193   1.305   2.565 -0.0347 -0.4349 -0.1395
 3271SOL    HW110626   7.274   1.258   2.545  1.0593  0.8825  1.1255
 3271SOL    HW210627   7.221   1.380   2.617 -1.9287  0.7407 -0.7710
 3272SOL     OW10628   6.870   4.691   2.954  0.1930 -0.3222  0.3016
 3272SOL    HW110629   6.917   4.765   2.993  0.0976 -0.7279  1.1963
 3272SOL    HW210630   6.932   4.654   2.892 -0.2524  1.3597 -1.1767
 3273SOL     OW10631   4.944   2.484   4.167  0.4984 -0.6295  0.2500
 3273SOL    HW110632   4.939   2.456   4.076 -1.3089 -2.9521  1.0121
 3273SOL    HW210633   4.853   2.502   4.192  1.0694  0.8665  1.3425
 3274SOL     OW10634   3.619   1.572   0.403  0.1921 -0.0948  0.0568
 3274SOL    HW110635   3.558   1.643   0.381  1.2382  0.4963 -1.0791
 3274SOL    HW210636   3.595   1.545   0.491 -2.0402 -0.2377 -0.5557
 3275SOL     OW10637   7.854   5.772   7.917  0.0989 -0.0893  0.1346
 3275SOL    HW110638   7.846   5.830   7.993 -1.1941 -0.5103  0.3320
 3275SOL    HW210639   7.811   5.691   7.944  1.0810 -0.8139 -0.4680
 3276SOL     OW10640   1.840   3.411   5.023  0.5416  0.0693  0.0276
 3276SOL    HW110641   1.906   3.460   5.072  1.1501 -1.2586  0.5619
 3276SOL    HW210642   1.841   3.323   5.062 -1.5799  0.0340  0.0761
 3277SOL     OW10643   3.619   0.575   4.101  0.3018 -0.4483 -0.4992
 3277SOL    HW110644   3.660   0.574   4.188 -2.0132  0.6612  0.6479
 3277SOL    HW210645   3.667   0.508   4.051  1.7130 -1.0548  1.6013
 3278SOL     OW10646   0.916   3.665   0.045  0.3120 -0.1116 -0.0498
 3278SOL    HW110647   0.940   3.578   0.075 -0.6974 -0.4529 -0.2057
 3278SOL    HW210648   0.830   3.681   0.085 -1.5144 -0.9621 -3.4311
 3279SOL     OW10649   1.762   4.300   4.171  0.1397 -0.9192  0.2188
 3279SOL    HW110650   1.682   4.281   4.221 -1.3326 -0.7331 -1.9768
 3279SOL    HW210651   1.730   4.340   4.090  2.6438  1.5843  0.4268
 3280SOL     OW10652   5.237   3.667   4.860 -0.3206  0.1981  0.5242
 3280SOL    HW110653   5.276   3.612   4.928  0.0019 -0.4580 -0.1861
 3280SOL    HW210654   5.308   3.726   4.833 -0.5304  0.6517  0.9518
 3281SOL     OW10655   5.426   5.597   5.023  0.5527  0.6921 -0.4877
 3281SOL    HW110656   5.519   5.573   5.023  0.2163 -0.6883 -0.9824
 3281SOL    HW210657   5.408   5.620   4.932  0.7323  2.3127 -0.1221
 3282SOL     OW10658   5.195   5.258   5.338 -0.1024 -0.0429  0.5470
 3282SOL    HW110659   5.220   5.330   5.396 -0.3629 -0.9518  1.8038
 3282SOL    HW210660   5.170   5.187   5.397 -1.6484 -0.5492 -0.6761
 3283SOL     OW10661   4.815   5.830   5.589  0.6409  0.7122 -0.0584
 3283SOL    HW110662   4.872   5.794   5.521 -0.2436 -1.4313  0.3064
 3283SOL    HW210663   4.812   5.762   5.656 -1.2885  1.3396  0.5232
 3284SOL     OW10664   3.388   1.926   5.562 -0.0217  1.4977  0.7829
 3284SOL    HW110665   3.302   1.963   5.582 -0.8569  0.2187 -0.3710
 3284SOL    HW210666   3.431   1.918   5.648 -0.8781  2.5472  1.3189
 3285SOL     OW10667   7.599   7.530   1.265  0.4037 -0.3265 -0.0075
 3285SOL    HW110668   7.560   7.493   1.186  3.1891  1.1590 -2.1597
 3285SOL    HW210669   7.540   7.601   1.290  0.0437 -0.1560 -1.3214
 3286SOL     OW10670   6.785   0.566   1.868 -0.8757 -0.2495 -0.5439
 3286SOL    HW110671   6.752   0.591   1.955  0.8050  1.0258 -0.2316
 3286SOL    HW210672   6.801   0.472   1.874  1.2564  0.1775  1.2807
 3287SOL     OW10673   1.195   3.315   0.597 -0.2303 -0.4603  0.0110
 3287SOL    HW110674   1.265   3.253   0.575  0.7488  1.1523 -1.6470
 3287SOL    HW210675   1.161   3.285   0.681  0.4457 -3.0204 -0.5885
 3288SOL     OW10676   5.632   3.851   2.883 -0.2238  0.2515  0.4207
 3288SOL    HW110677   5.705   3.890   2.836 -0.5891  1.0348  0.4917
 3288SOL    HW210678   5.672   3.814   2.962  0.0896  0.7276  0.4897
 3289SOL     OW10679   1.139   5.052   5.617  0.0394 -0.3883 -0.6401
 3289SOL    HW110680   1.217   5.037   5.671 -0.7141 -0.8528  0.3351
 3289SOL    HW210681   1.105   4.964   5.600 -0.0153 -0.2101 -1.4566
 3290SOL     OW10682   0.630   5.617   5.298  0.0997 -0.8166 -0.3718
 3290SOL    HW110683   0.718   5.639   5.267  0.9279  0.3916  2.6391
 3290SOL    HW210684   0.640   5.532   5.340 -0.0140 -0.3375  0.6255
 3291SOL     OW10685   0.365   4.404   6.956 -0.8190  0.1097  0.4392
 3291SOL    HW110686   0.334   4.447   6.876 -1.6905  1.5494  1.5229
 3291SOL    HW210687   0.297   4.339   6.976 -0.9023  0.1647  0.3363
 3292SOL     OW10688   3.012   5.373   0.636  0.0471 -0.6398  0.2345
 3292SOL    HW110689   2.985   5.291   0.679 -1.2819  0.1018  0.8635
 3292SOL    HW210690   3.028   5.348   0.545 -1.4743 -1.3978  0.1472
 3293SOL     OW10691   0.497   3.075   4.708  0.2394 -0.4760 -0.3909
 3293SOL    HW110692   0.402   3.070   4.718  0.4437 -0.8612  1.6047
 3293SOL    HW210693   0.518   3.003   4.648 -0.5805 -1.3536  0.3592
 3294SOL     OW10694   2.985   2.740   3.974  0.2409  0.0513 -0.1126
 3294SOL    HW110695   3.023   2.812   3.925 -1.8031  1.5435  0.4318
 3294SOL    HW210696   2.953   2.680   3.907  0.9018  0.2116 -0.5732
 3295SOL     OW10697   3.569   3.048   7.301  0.2410  0.0701  0.1679
 3295SOL    HW110698   3.579   3.131   7.255  0.1374 -0.0579 -0.0896
 3295SOL    HW210699   3.571   3.071   7.394 -0.3467  0.4280  0.0954
 3296SOL     OW10700   7.661   1.054   6.582 -0.1691 -0.5665  0.6467
 3296SOL    HW110701   7.745   1.098   6.571 -0.2429 -0.1784  1.5713
 3296SOL    HW210702   7.682   0.961   6.575  0.1921 -0.4396 -0.0176
 3297SOL     OW10703   6.039   1.422   0.233  0.7463  0.0876  0.4595
 3297SOL    HW110704   5.993   1.424   0.317 -0.4265  2.0326 -0.2119
 3297SOL    HW210705   6.100   1.495   0.237  0.8816  0.0197 -0.2961
 3298SOL     OW10706   0.768   4.110   7.054  0.5128 -0.2063 -0.3488
 3298SOL    HW110707   0.723   4.174   7.109  1.2226 -0.3294  0.3803
 3298SOL    HW210708   0.826   4.163   6.999  1.0297 -0.2143  0.1877
 3299SOL     OW10709   7.548   2.869   5.584  0.0139 -0.3431  0.4373
 3299SOL    HW110710   7.556   2.825   5.669  0.2807  0.2822  0.7330
 3299SOL    HW210711   7.626   2.923   5.577  0.1563 -0.6423 -0.3592
 3300SOL     OW10712   7.879   4.896   6.791 -0.1773 -0.4485  0.4400
 3300SOL    HW110713   7.858   4.871   6.701 -0.4663 -0.2304  0.4487
 3300SOL    HW210714   7.973   4.876   6.800  0.4207  1.6974 -0.6614
 3301SOL     OW10715   6.216   6.163   5.811  0.4442 -0.2097 -0.3405
 3301SOL    HW110716   6.160   6.086   5.814 -0.7066  0.6319  0.4226
 3301SOL    HW210717   6.305   6.129   5.811 -0.0453 -1.6196 -2.8104
 3302SOL     OW10718   6.808   0.271   6.485 -0.4960  0.0245  0.0266
 3302SOL    HW110719   6.742   0.338   6.466 -0.8910 -0.4713 -0.3723
 3302SOL    HW210720   6.861   0.266   6.405 -0.1069  0.2632  0.2659
 3303SOL     OW10721   2.438   6.178   6.395  0.0674  0.3384 -0.3003
 3303SOL    HW110722   2.346   6.166   6.371  0.3910 -0.5791 -1.1219
 3303SOL    HW210723   2.465   6.092   6.429  0.9843  0.2230 -1.3127
 3304SOL     OW10724   1.890   4.149   3.390  0.4287  0.0069 -0.0296
 3304SOL    HW110725   1.886   4.178   3.299 -0.7881 -1.7677 -0.5646
 3304SOL    HW210726   1.799   4.138   3.416  0.8025 -1.0386  0.8878
 3305SOL     OW10727   0.759   0.258   0.554 -0.2202  0.3829  0.2868
 3305SOL    HW110728   0.769   0.337   0.606 -1.7032 -0.4000  1.8122
 3305SOL    HW210729   0.665   0.246   0.546 -0.0533  1.1461 -3.6561
 3306SOL     OW10730   6.095   2.817   0.908  0.1583 -0.3349  0.1533
 3306SOL    HW110731   6.183   2.797   0.940  1.2190 -2.2555 -3.7042
 3306SOL    HW210732   6.039   2.748   0.944  0.4896  0.0489  1.4086
 3307SOL     OW10733   5.666   3.303   0.111 -0.3606 -0.3982  0.2998
 3307SOL    HW110734   5.700   3.290   0.023  0.6387 -1.6730  0.8526
 3307SOL    HW210735   5.591   3.244   0.116  0.8371 -1.9063  0.9700
 3308SOL     OW10736   5.163   1.315   5.762  0.2550  0.3014  0.2764
 3308SOL    HW110737   5.134   1.287   5.848 -1.2045  1.0531  0.0385
 3308SOL    HW210738   5.109   1.266   5.701  0.5366  0.5670 -0.1914
 3309SOL     OW10739   6.029   4.417   7.039 -0.1124 -0.2256 -0.3652
 3309SOL    HW110740   5.968   4.481   7.075  0.1393  1.0457 -2.1036
 3309SOL    HW210741   6.115   4.460   7.046  0.1579 -0.6852 -0.8377
 3310SOL     OW10742   5.917   2.940   4.314 -0.7022  0.4164  0.4212
 3310SOL    HW110743   5.907   2.848   4.289 -0.4943  0.7223 -0.8166
 3310SOL    HW210744   6.006   2.946   4.351 -0.3772  0.3059 -0.3395
 3311SOL     OW10745   5.811   4.536   6.598 -0.7120  0.1480  0.5803
 3311SOL    HW110746   5.770   4.466   6.548  2.6960 -0.9403 -0.7875
 3311SOL    HW210747   5.822   4.500   6.686 -0.1556 -0.5179  0.2278
 3312SOL     OW10748   0.534   5.809   7.248 -0.3696  0.1501  0.5594
 3312SOL    HW110749   0.471   5.878   7.229 -0.9950  0.3186  2.9908
 3312SOL    HW210750   0.485   5.727   7.237 -0.0424  0.1490 -0.8918
 3313SOL     OW10751   5.888   1.470   7.994 -0.2777  0.7939  0.4472
 3313SOL    HW110752   5.904   1.424   8.077  1.5495  1.0518  0.2648
 3313SOL    HW210753   5.973   1.507   7.971 -1.0124  1.6009 -1.0298
 3314SOL     OW10754   7.693   2.229   7.550  0.9301  0.5767  0.5649
 3314SOL    HW110755   7.624   2.271   7.500  1.2902  1.8325  1.1025
 3314SOL    HW210756   7.758   2.298   7.564  2.1011 -0.4703  0.4131
 3315SOL     OW10757   3.729   7.279   2.472  0.2890  0.3194  0.5117
 3315SOL    HW110758   3.750   7.349   2.534 -1.1699  0.9703  0.3179
 3315SOL    HW210759   3.662   7.227   2.517 -1.2982  1.2096 -0.7499
 3316SOL     OW10760   5.265   6.804   0.524  0.1715 -0.4775 -0.5795
 3316SOL    HW110761   5.310   6.847   0.597 -0.3022  1.7082 -1.5414
 3316SOL    HW210762   5.323   6.816   0.449  0.1542 -1.7694 -0.8116
 3317SOL     OW10763   7.724   0.983   0.737  0.2602 -0.2152 -0.0287
 3317SOL    HW110764   7.694   0.985   0.646  0.9401 -1.2002 -0.2827
 3317SOL    HW210765   7.812   0.944   0.732  0.5979  0.4210  0.9667
 3318SOL     OW10766   1.388   7.128   3.803  0.2688 -0.5484  0.4259
 3318SOL    HW110767   1.358   7.048   3.847 -1.5769 -0.8970 -1.4300
 3318SOL    HW210768   1.340   7.131   3.721  2.1523  1.1973 -0.6761
 3319SOL     OW10769   4.033   4.109   2.136 -0.2735  0.2091  0.5301
 3319SOL    HW110770   4.048   4.044   2.205 -0.5505  0.1363  0.5193
 3319SOL    HW210771   4.045   4.193   2.179  1.7766  0.1387  0.1742
 3320SOL     OW10772   7.751   5.721   0.542  0.2066 -0.2023 -0.0181
 3320SOL    HW110773   7.714   5.777   0.610  2.0189  0.1771  0.6723
 3320SOL    HW210774   7.764   5.778   0.466 -1.6575 -0.5907 -0.6640
 3321SOL     OW10775   5.449   2.614   1.599  0.4503  0.6040  0.4048
 3321SOL    HW110776   5.428   2.689   1.655 -1.4616  0.7263 -0.4284
 3321SOL    HW210777   5.452   2.651   1.510  0.0117 -0.1990  0.0551
 3322SOL     OW10778   1.650   1.099   4.870 -0.2853  0.3461  0.2095
 3322SOL    HW110779   1.572   1.148   4.843 -0.8578 -0.6200  0.1022
 3322SOL    HW210780   1.616   1.025   4.920  0.5054 -0.5997 -0.6333
 3323SOL     OW10781   7.593   5.261   3.173 -0.1810 -0.1195  0.5260
 3323SOL    HW110782   7.603   5.169   3.198 -0.3431 -0.3081 -0.0876
 3323SOL    HW210783   7.679   5.299   3.190 -0.2671 -0.2585  1.2846
 3324SOL     OW10784   4.350   6.009   3.344  0.0315 -0.3000 -0.1353
 3324SOL    HW110785   4.418   6.076   3.352  0.1339 -0.2408 -1.4500
 3324SOL    HW210786   4.321   6.014   3.253 -3.4340  1.3023  0.9559
 3325SOL     OW10787   5.916   5.477   2.709 -0.1357 -0.5249 -0.0767
 3325SOL    HW110788   5.986   5.472   2.643  0.3387 -1.7525  0.5061
 3325SOL    HW210789   5.837   5.496   2.659  0.6456  1.1115 -0.7277
 3326SOL     OW10790   6.639   5.826   2.925 -0.1311  0.0778  0.2408
 3326SOL    HW110791   6.584   5.787   2.857 -1.5467  0.2477  1.2374
 3326SOL    HW210792   6.705   5.760   2.944  1.0835  0.5547 -2.1940
 3327SOL     OW10793   5.043   3.440   5.603  0.1571 -0.0507  0.2869
 3327SOL    HW110794   4.993   3.489   5.669  0.0179 -2.2506  1.8649
 3327SOL    HW210795   4.996   3.455   5.521 -0.4264  1.6496  0.9149
 3328SOL     OW10796   2.408   6.590   1.724  0.3269  0.1025 -0.4680
 3328SOL    HW110797   2.496   6.585   1.761  0.9845  1.8326 -1.7420
 3328SOL    HW210798   2.385   6.682   1.728 -0.6912 -0.0741 -1.7991
 3329SOL     OW10799   2.071   1.714   3.165 -0.1123  0.0259  0.2089
 3329SOL    HW110800   2.035   1.742   3.249 -2.4208 -0.6010 -0.5425
 3329SOL    HW210801   2.093   1.622   3.178 -0.8362 -0.1757  0.0097
 3330SOL     OW10802   7.178   7.173   5.612 -0.2249 -0.0786  0.0334
 3330SOL    HW110803   7.227   7.238   5.662 -0.8635 -0.3079  0.9632
 3330SOL    HW210804   7.108   7.222   5.570  1.3255  0.4241 -2.0865
 3331SOL     OW10805   2.495   7.679   7.341  0.4470  0.0844  0.1855
 3331SOL    HW110806   2.576   7.698   7.389 -0.3104  0.5778  1.2873
 3331SOL    HW210807   2.436   7.751   7.366  0.7346  1.5623 -3.1320
 3332SOL     OW10808   5.628   4.527   0.820  0.2140 -0.5266  0.4013
 3332SOL    HW110809   5.621   4.508   0.913 -1.8546  0.1341  0.3959
 3332SOL    HW210810   5.677   4.453   0.784  1.1504 -0.7125  2.0203
 3333SOL     OW10811   7.596   4.190   0.426 -0.1392 -0.0049  0.1831
 3333SOL    HW110812   7.553   4.150   0.502 -0.0316  0.5978  0.5650
 3333SOL    HW210813   7.548   4.272   0.412  0.5124  0.3963  0.2566
 3334SOL     OW10814   7.833   0.330   3.024  0.1969  0.0026 -0.3491
 3334SOL    HW110815   7.906   0.275   3.053  0.2090 -0.1088 -0.5848
 3334SOL    HW210816   7.794   0.281   2.951  0.5593  0.5650 -0.9336
 3335SOL     OW10817   6.832   5.132   4.265  0.2008  0.1204  0.0078
 3335SOL    HW110818   6.875   5.047   4.273  0.7363  0.5276  1.6683
 3335SOL    HW210819   6.887   5.192   4.315 -0.4225  1.3629 -0.7509
 3336SOL     OW10820   5.658   4.293   5.557  0.1259  0.5942 -0.2741
 3336SOL    HW110821   5.633   4.306   5.648  0.2986 -0.2744 -0.0989
 3336SOL    HW210822   5.668   4.199   5.548  1.5524  0.7763 -0.8152
 3337SOL     OW10823   3.612   7.042   5.196 -0.2569  0.1994  0.0479
 3337SOL    HW110824   3.690   7.064   5.145  0.7254 -0.2244  1.3107
 3337SOL    HW210825   3.560   7.123   5.197  0.6935  0.8197  0.0819
 3338SOL     OW10826   4.479   2.024   2.086  0.3133 -0.7969  0.0249
 3338SOL    HW110827   4.439   2.110   2.071 -0.8911 -1.2769  0.4764
 3338SOL    HW210828   4.424   1.983   2.152  0.6574 -2.0771 -0.4732
 3339SOL     OW10829   5.988   0.816   0.685 -0.8447  0.4622 -0.3516
 3339SOL    HW110830   5.942   0.741   0.722 -2.0956  0.0474 -2.6979
 3339SOL    HW210831   5.951   0.892   0.730  1.4077 -0.3520  3.0465
 3340SOL     OW10832   3.719   1.544   3.834  0.6215  0.1918 -0.0418
 3340SOL    HW110833   3.683   1.631   3.814  2.3623  0.9905  0.2402
 3340SOL    HW210834   3.647   1.483   3.813 -0.6978  1.7020 -0.0053
 3341SOL     OW10835   6.598   6.422   6.408 -0.1598  0.1417  0.4729
 3341SOL    HW110836   6.644   6.504   6.394  0.0985 -0.2265 -0.9331
 3341SOL    HW210837   6.659   6.368   6.458 -0.1572  0.6337  1.0099
 3342SOL     OW10838   2.745   1.628   3.307  0.4639 -0.8347  0.4207
 3342SOL    HW110839   2.721   1.561   3.244  0.0126 -1.5367  1.3372
 3342SOL    HW210840   2.827   1.665   3.273  0.1217 -1.0713 -0.6687
 3343SOL     OW10841   3.311   7.664   4.391  0.5478  0.8708  0.1384
 3343SOL    HW110842   3.264   7.586   4.363 -0.9158  1.5686  0.5776
 3343SOL    HW210843   3.289   7.731   4.326  0.0113  1.5115  0.9606
 3344SOL     OW10844   3.803   2.560   7.982 -0.4399  0.3177 -0.5311
 3344SOL    HW110845   3.895   2.583   7.966 -0.6982  1.0508 -0.9875
 3344SOL    HW210846   3.753   2.632   7.943 -1.1546  0.8460  1.2856
 3345SOL     OW10847   6.025   2.569   4.343  0.0637  0.2215  0.2792
 3345SOL    HW110848   5.947   2.572   4.287 -0.5126  0.8519  1.1063
 3345SOL    HW210849   6.098   2.562   4.281 -0.7434 -2.5442 -0.4503
 3346SOL     OW10850   1.416   3.964   4.591  0.1815  0.1933  0.2732
 3346SOL    HW110851   1.462   3.933   4.513 -0.1205  0.2415  0.0796
 3346SOL    HW210852   1.487   3.990   4.651  0.4856 -2.3649  1.0627
 3347SOL     OW10853   3.568   0.642   6.075 -0.0029  0.1368 -0.2265
 3347SOL    HW110854   3.573   0.668   5.983 -1.1543  0.5806 -0.1742
 3347SOL    HW210855   3.474   0.637   6.093  0.2151 -1.1034  0.6034
 3348SOL     OW10856   2.285   4.802   2.438 -0.4105 -0.1540  0.0173
 3348SOL    HW110857   2.218   4.776   2.375  0.5924 -2.8241 -0.0270
 3348SOL    HW210858   2.287   4.731   2.502 -0.1475  1.6573  2.0703
 3349SOL     OW10859   4.298   4.372   1.782 -0.1566 -0.3610 -0.4155
 3349SOL    HW110860   4.229   4.417   1.733  0.5035  0.1178 -0.9027
 3349SOL    HW210861   4.340   4.441   1.833  1.8607 -0.1548 -2.3205
 3350SOL     OW10862   2.497   6.200   5.592 -0.2847  0.4293  0.1975
 3350SOL    HW110863   2.548   6.234   5.517 -0.3956 -0.4009 -0.2550
 3350SOL    HW210864   2.497   6.272   5.655  0.4712  0.8579 -0.2841
 3351SOL     OW10865   2.819   5.398   3.854  0.5494  0.1582  0.5186
 3351SOL    HW110866   2.762   5.471   3.879 -0.7063 -0.8866  0.7631
 3351SOL    HW210867   2.835   5.350   3.935  1.7841  0.4399  0.4486
 3352SOL     OW10868   5.693   4.292   0.706  0.0410  0.2125 -0.2234
 3352SOL    HW110869   5.697   4.227   0.776  2.0807 -1.5574 -1.9277
 3352SOL    HW210870   5.693   4.240   0.625 -1.3840  2.2377 -1.5765
 3353SOL     OW10871   7.769   4.486   0.462 -0.5831  0.2723  0.4006
 3353SOL    HW110872   7.774   4.501   0.367 -0.3976  0.0541  0.3761
 3353SOL    HW210873   7.861   4.485   0.490 -0.5273 -1.9566  0.2341
 3354SOL     OW10874   6.282   6.105   3.499  0.9488 -0.2293 -0.1014
 3354SOL    HW110875   6.211   6.139   3.445  1.4998  0.7400 -0.2302
 3354SOL    HW210876   6.252   6.120   3.589  0.9159  0.0069 -0.1523
 3355SOL     OW10877   1.692   6.752   0.707 -0.0025  0.2911  0.2175
 3355SOL    HW110878   1.735   6.745   0.792  1.0230  2.9721 -0.0279
 3355SOL    HW210879   1.672   6.845   0.698  1.1054  0.2834 -3.0410
 3356SOL     OW10880   2.433   1.968   7.018  0.0243  0.0959 -0.1322
 3356SOL    HW110881   2.354   1.990   7.068 -0.2934  0.9146 -0.9744
 3356SOL    HW210882   2.500   2.027   7.051  0.5266 -1.2066  1.2058
 3357SOL     OW10883   3.866   1.311   7.300 -0.1776 -0.5815 -0.2478
 3357SOL    HW110884   3.807   1.338   7.230 -0.1142 -0.2474 -0.1718
 3357SOL    HW210885   3.817   1.244   7.348 -0.4894 -0.3117 -0.1905
 3358SOL     OW10886   1.374   0.496   5.751  0.3101 -0.0258  0.0944
 3358SOL    HW110887   1.442   0.468   5.690  0.1631  0.7173 -0.4090
 3358SOL    HW210888   1.370   0.425   5.816  1.4757 -0.1306  0.0641
 3359SOL     OW10889   6.712   0.376   4.172  0.0706  0.0163  0.1572
 3359SOL    HW110890   6.792   0.329   4.197  1.0124  1.7040  0.3891
 3359SOL    HW210891   6.725   0.464   4.206 -1.7108  0.4298 -0.2005
 3360SOL     OW10892   4.101   2.346   0.235  0.0954  0.9245  0.2890
 3360SOL    HW110893   4.100   2.441   0.247 -0.8158  1.0095 -0.3834
 3360SOL    HW210894   4.008   2.322   0.232  0.2986 -0.2507  2.4775
 3361SOL     OW10895   7.241   4.747   7.223 -1.0922  0.6914  0.7032
 3361SOL    HW110896   7.318   4.720   7.173 -2.2933  0.7738 -1.2614
 3361SOL    HW210897   7.250   4.704   7.308  1.5719  1.4422  0.8291
 3362SOL     OW10898   4.598   6.999   5.115  0.3724  0.0238  0.7241
 3362SOL    HW110899   4.576   6.968   5.027 -1.0139  0.5446  0.8624
 3362SOL    HW210900   4.652   7.077   5.101  0.3366 -0.0213  0.3377
 3363SOL     OW10901   5.013   6.990   2.599 -0.1032  0.0178  0.1043
 3363SOL    HW110902   5.069   6.997   2.676  0.4226 -2.7599  0.0189
 3363SOL    HW210903   5.031   7.070   2.549  1.0656  0.8672  1.8518
 3364SOL     OW10904   6.513   4.110   3.790  0.1259 -0.2879  0.0078
 3364SOL    HW110905   6.435   4.117   3.734  0.2515 -2.9970 -0.5549
 3364SOL    HW210906   6.579   4.162   3.745 -0.4930 -0.4308 -1.0896
 3365SOL     OW10907   6.216   1.900   7.566  0.3991  0.7754  0.0979
 3365SOL    HW110908   6.148   1.908   7.500  0.7881  2.6804 -0.1056
 3365SOL    HW210909   6.273   1.976   7.551  0.8163  0.9183  2.2463
 3366SOL     OW10910   3.922   2.111   7.692  0.7461 -0.1339  0.3643
 3366SOL    HW110911   3.923   2.195   7.738 -0.2423  0.2063 -0.2299
 3366SOL    HW210912   3.901   2.047   7.760  0.8834  0.1671  0.6912
 3367SOL     OW10913   6.666   3.890   6.273 -0.3140 -0.1184 -0.3256
 3367SOL    HW110914   6.644   3.816   6.329 -1.4263  3.1377  3.7349
 3367SOL    HW210915   6.754   3.915   6.300 -0.2758  0.5854 -1.0745
 3368SOL     OW10916   6.210   6.567   6.400 -0.3327 -0.2441  0.0557
 3368SOL    HW110917   6.208   6.562   6.496 -0.4184 -0.8336  0.0240
 3368SOL    HW210918   6.289   6.618   6.381 -1.5467  1.8518  0.5049
 3369SOL     OW10919   3.657   3.774   3.937 -0.1464  0.0798  0.1457
 3369SOL    HW110920   3.738   3.725   3.946  0.5707  0.8187 -1.9063
 3369SOL    HW210921   3.662   3.843   4.002  0.7418 -0.0413  0.2028
 3370SOL     OW10922   0.463   7.286   4.592  0.1430  0.0402  0.2135
 3370SOL    HW110923   0.383   7.258   4.548  0.4355 -0.0783 -0.2427
 3370SOL    HW210924   0.466   7.234   4.672 -0.2834  0.1130  0.2789
 3371SOL     OW10925   6.857   4.817   0.025  0.0949  0.1080  0.2750
 3371SOL    HW110926   6.871   4.752  -0.044 -0.9809  0.5186 -0.3459
 3371SOL    HW210927   6.871   4.901  -0.019 -2.4134  0.4602  0.0654
 3372SOL     OW10928   6.579   0.421   5.625  0.5493  0.5353 -0.3054
 3372SOL    HW110929   6.517   0.492   5.642 -0.3920 -0.1558 -0.8468
 3372SOL    HW210930   6.649   0.462   5.573 -0.8392  0.6934 -2.0949
 3373SOL     OW10931   0.937   7.702   4.992 -0.2434  0.1547 -0.1811
 3373SOL    HW110932   0.909   7.613   5.013 -0.3596 -0.4123 -2.6181
 3373SOL    HW210933   1.031   7.695   4.976 -0.5667  0.1053 -2.1693
 3374SOL     OW10934   2.613   7.609   1.856 -0.3978 -0.6484 -0.3872
 3374SOL    HW110935   2.547   7.634   1.792 -1.0134  2.1911  1.2595
 3374SOL    HW210936   2.679   7.678   1.850  0.7314 -1.6444  0.3555
 3375SOL     OW10937   2.859   1.955   1.305  0.0911  0.2623  0.0905
 3375SOL    HW110938   2.879   2.040   1.345  3.3370 -0.6505  0.5322
 3375SOL    HW210939   2.901   1.959   1.219 -1.0385 -0.3629 -0.5019
 3376SOL     OW10940   4.713   6.999   1.854  0.2323  0.1116  0.1185
 3376SOL    HW110941   4.739   6.988   1.762 -0.4072 -1.4564  0.1000
 3376SOL    HW210942   4.794   7.021   1.900  0.3346  2.2079 -1.0143
 3377SOL     OW10943   0.568   5.689   0.735 -0.7074  0.6120  0.8258
 3377SOL    HW110944   0.520   5.685   0.653  0.3003  0.8060  0.2122
 3377SOL    HW210945   0.652   5.645   0.716 -0.1084  1.4565  1.4869
 3378SOL     OW10946   2.462   7.165   4.644 -0.0210 -0.3458 -0.0297
 3378SOL    HW110947   2.436   7.073   4.641 -0.1894 -0.3392  0.9987
 3378SOL    HW210948   2.521   7.176   4.569 -0.1571 -1.2403 -0.2732
 3379SOL     OW10949   1.100   3.772   1.441  0.0010 -0.3849  0.1682
 3379SOL    HW110950   1.030   3.779   1.377  0.4222  2.0510 -0.0828
 3379SOL    HW210951   1.177   3.807   1.396  2.0149 -5.1568 -0.3814
 3380SOL     OW10952   2.904   7.624   7.241 -0.0125  0.4328 -0.0675
 3380SOL    HW110953   2.906   7.541   7.194  0.9674  1.3052 -1.6211
 3380SOL    HW210954   2.918   7.601   7.332  1.0368 -1.0556 -0.5874
 3381SOL     OW10955   7.866   4.268   0.047 -0.3519  0.0407 -0.2859
 3381SOL    HW110956   7.832   4.185   0.083  1.0113 -1.3756 -2.1374
 3381SOL    HW210957   7.961   4.255   0.044 -0.0533  2.0492  0.2673
 3382SOL     OW10958   4.676   3.786   1.524  0.3819  0.3638 -0.1272
 3382SOL    HW110959   4.606   3.733   1.563  1.9184 -0.7647  1.1958
 3382SOL    HW210960   4.698   3.741   1.442  1.6026 -1.0376  0.9371
 3383SOL     OW10961   1.611   5.254   4.709  0.2421  0.2860 -0.0019
 3383SOL    HW110962   1.637   5.313   4.780  0.7234 -0.2344  0.2626
 3383SOL    HW210963   1.611   5.167   4.749 -0.9863  0.1611 -0.2582
 3384SOL     OW10964   0.538   0.977   5.185  0.1100 -0.1944  0.1630
 3384SOL    HW110965   0.548   0.888   5.218  0.1616 -0.4787 -0.5937
 3384SOL    HW210966   0.593   1.031   5.242  2.0332 -1.0172 -0.8904
 3385SOL     OW10967   4.027   5.424   2.478  0.2812 -0.5953 -0.0584
 3385SOL    HW110968   4.050   5.355   2.415 -0.6272 -0.1857 -0.8432
 3385SOL    HW210969   4.017   5.503   2.424  1.4033  0.1745  0.8491
 3386SOL     OW10970   0.081   0.096   4.159  0.2627 -0.0241  0.6088
 3386SOL    HW110971   0.001   0.044   4.168 -0.0049  0.5936  1.9284
 3386SOL    HW210972   0.144   0.052   4.216  0.6502 -0.0954  0.1260
 3387SOL     OW10973   1.931   0.282   7.368  0.1784 -0.4579  0.4516
 3387SOL    HW110974   1.851   0.270   7.317  0.2254  0.5698  0.1198
 3387SOL    HW210975   1.999   0.296   7.302  0.0251  2.1055  0.8062
 3388SOL     OW10976   6.486   1.426   0.104  0.2699 -0.1379 -0.4267
 3388SOL    HW110977   6.510   1.435   0.012  0.7128  0.4148 -0.2606
 3388SOL    HW210978   6.536   1.495   0.148  0.7004 -0.9384  0.3407
 3389SOL     OW10979   4.802   7.241   7.937 -0.0813  0.3775 -0.1290
 3389SOL    HW110980   4.886   7.202   7.912  0.4126 -0.0478  2.0327
 3389SOL    HW210981   4.786   7.309   7.872  3.4854  2.5507  1.1081
 3390SOL     OW10982   0.825   6.733   3.519 -0.6459  0.0787 -0.5049
 3390SOL    HW110983   0.762   6.696   3.581  0.4905  1.2884  1.4510
 3390SOL    HW210984   0.772   6.776   3.453 -1.9087 -1.6561 -0.6551
 3391SOL     OW10985   5.849   4.665   6.941  0.7132 -0.0586 -0.2523
 3391SOL    HW110986   5.762   4.696   6.918  0.7158  1.0300  1.1877
 3391SOL    HW210987   5.868   4.596   6.876 -0.4008  1.0491 -1.7695
 3392SOL     OW10988   3.207   6.436   6.182  0.4037 -0.3469 -0.4357
 3392SOL    HW110989   3.228   6.369   6.246 -1.0909 -0.7799 -0.3721
 3392SOL    HW210990   3.200   6.389   6.099  0.9689 -0.0054 -0.6828
 3393SOL     OW10991   3.498   3.740   0.127  0.0449 -0.1640  0.2154
 3393SOL    HW110992   3.429   3.694   0.079  0.3072 -0.2434 -0.0841
 3393SOL    HW210993   3.558   3.771   0.059 -2.1393  4.0661 -0.0196
 3394SOL     OW10994   2.550   7.198   2.669 -0.0870 -0.2790  0.1472
 3394SOL    HW110995   2.526   7.108   2.690 -0.7533 -0.2195 -0.3555
 3394SOL    HW210996   2.468   7.247   2.675  0.1273  0.1457 -0.3772
 3395SOL     OW10997   5.652   0.844   7.019 -0.0355  0.4947  0.2100
 3395SOL    HW110998   5.737   0.854   6.976 -0.8333  0.5316 -1.3866
 3395SOL    HW210999   5.627   0.934   7.043  0.9540  0.3532  1.8642
 3396SOL     OW11000   4.351   1.406   2.444  0.7042 -0.1475  0.3236
 3396SOL    HW111001   4.302   1.333   2.407  2.3275 -1.5254  0.7865
 3396SOL    HW211002   4.441   1.390   2.416  1.2646  1.0281  1.4141
 3397SOL     OW11003   5.347   0.525   5.774  0.0818 -0.3238 -0.1352
 3397SOL    HW111004   5.278   0.576   5.731  1.9940  1.3379 -1.3337
 3397SOL    HW211005   5.347   0.557   5.865  0.2111  0.6889 -0.4854
 3398SOL     OW11006   0.964   3.042   7.861 -0.2976 -0.1614 -0.1380
 3398SOL    HW111007   1.033   3.083   7.913  0.1298 -0.3986 -0.5053
 3398SOL    HW211008   0.885   3.093   7.880 -0.1009 -0.1129  0.5672
 3399SOL     OW11009   2.879   1.881   4.208  0.4798 -0.5796  0.2752
 3399SOL    HW111010   2.898   1.822   4.135 -0.0033 -0.5811  0.1453
 3399SOL    HW211011   2.835   1.956   4.168 -0.1850 -0.7829  0.6135
 3400SOL     OW11012   5.277   5.243   7.932 -0.0615  0.2164 -0.4575
 3400SOL    HW111013   5.293   5.231   7.838 -4.3261  0.6991 -1.3160
 3400SOL    HW211014   5.275   5.337   7.945 -1.0950  0.1661 -0.1979
 3401SOL     OW11015   6.814   1.605   7.701  0.0656  0.1351 -0.4731
 3401SOL    HW111016   6.721   1.591   7.683  0.0904 -0.5148 -0.1266
 3401SOL    HW211017   6.816   1.673   7.767 -0.2104 -0.5707  0.2670
 3402SOL     OW11018   0.201   0.968   3.356  0.2152 -0.2629  0.5238
 3402SOL    HW111019   0.264   0.983   3.286  0.8395  0.4429  1.2319
 3402SOL    HW211020   0.118   1.000   3.320  0.6400  0.6176  0.3217
 3403SOL     OW11021   5.602   1.077   0.867  0.2211  0.0856 -0.6592
 3403SOL    HW111022   5.549   1.157   0.863 -0.6981 -0.3915  1.5712
 3403SOL    HW211023   5.538   1.006   0.866  0.7508 -0.4966  2.0632
 3404SOL     OW11024   6.048   1.400   6.286 -0.3093  0.3965  0.2149
 3404SOL    HW111025   6.042   1.331   6.351 -2.2906  0.3342  0.0147
 3404SOL    HW211026   6.113   1.369   6.223  0.1200 -0.4647  1.0692
 3405SOL     OW11027   3.827   2.367   4.126 -0.0491  0.1314  0.4445
 3405SOL    HW111028   3.756   2.396   4.184  0.2891  0.1438  0.8553
 3405SOL    HW211029   3.884   2.443   4.119 -0.9535  0.6758 -1.2533
 3406SOL     OW11030   6.186   2.125   6.624 -0.4797  0.1667 -0.3389
 3406SOL    HW111031   6.176   2.035   6.653  0.6747  0.3604  0.6868
 3406SOL    HW211032   6.238   2.120   6.544 -0.4024 -0.0671 -0.2713
 3407SOL     OW11033   5.124   6.866   1.199 -0.4479 -0.2698  0.2086
 3407SOL    HW111034   5.131   6.781   1.241  0.0802 -0.7806 -0.8836
 3407SOL    HW211035   5.215   6.892   1.183 -0.5941  0.6686  0.8799
 3408SOL     OW11036   6.772   2.411   2.754 -0.3096  0.6567 -0.0163
 3408SOL    HW111037   6.740   2.457   2.831 -0.4199 -0.2953  0.5190
 3408SOL    HW211038   6.863   2.440   2.745 -0.1999  0.5327  0.6611
 3409SOL     OW11039   4.110   5.950   1.696  0.6123 -0.4901 -0.2266
 3409SOL    HW111040   4.140   5.879   1.754 -2.1186 -0.6184  1.1161
 3409SOL    HW211041   4.037   5.911   1.648  0.2089  0.8996 -0.7361
 3410SOL     OW11042   4.704   3.450   0.621 -0.4538  0.1893 -0.4894
 3410SOL    HW111043   4.788   3.479   0.586 -1.3517  1.4820 -1.6286
 3410SOL    HW211044   4.660   3.407   0.547 -0.6830 -0.7204  0.1678
 3411SOL     OW11045   6.927   4.846   3.214  0.4171  0.1257 -0.5197
 3411SOL    HW111046   6.969   4.927   3.241  0.7393 -0.9348  2.3675
 3411SOL    HW211047   6.999   4.786   3.194  0.2505 -0.4313  0.4938
 3412SOL     OW11048   4.426   5.668   0.767  0.2400  0.4532  1.2399
 3412SOL    HW111049   4.412   5.655   0.674 -0.7069 -0.0150  1.4372
 3412SOL    HW211050   4.460   5.757   0.775 -0.6801  0.8651  0.5491
 3413SOL     OW11051   6.258   3.520   7.017  0.0764  0.6799 -0.4161
 3413SOL    HW111052   6.253   3.438   6.967  0.9022  1.1783 -1.3244
 3413SOL    HW211053   6.180   3.518   7.073  0.8153 -1.3928  0.6101
 3414SOL     OW11054   4.373   2.529   5.383  0.0301 -0.3730  0.0322
 3414SOL    HW111055   4.461   2.546   5.417 -0.2890 -2.2495  1.8893
 3414SOL    HW211056   4.347   2.611   5.341  3.1779 -0.2275 -1.7344
 3415SOL     OW11057   4.250   2.299   5.334  0.5362 -0.3472 -0.3747
 3415SOL    HW111058   4.169   2.322   5.379  1.4450  0.3313  0.9537
 3415SOL    HW211059   4.301   2.380   5.334  1.4205 -0.9013 -0.7470
 3416SOL     OW11060   6.355   6.914   0.117 -0.2390  0.4467 -0.0273
 3416SOL    HW111061   6.288   6.891   0.181 -1.7086 -1.1496 -2.0556
 3416SOL    HW211062   6.321   6.992   0.073 -1.9606 -1.6693 -2.6206
 3417SOL     OW11063   2.871   2.778   3.190 -0.0681  0.1533 -0.2576
 3417SOL    HW111064   2.943   2.832   3.223 -0.8969  1.9942 -1.3809
 3417SOL    HW211065   2.914   2.699   3.156  1.3537  0.9502 -0.3459
 3418SOL     OW11066   2.206   2.953   0.287  0.2534  0.2113  0.3117
 3418SOL    HW111067   2.189   2.997   0.370 -0.7488  1.5246 -0.5440
 3418SOL    HW211068   2.278   3.002   0.248 -1.5939  1.8862 -1.1481
 3419SOL     OW11069   5.924   6.882   2.539  0.9333  0.4463 -0.2095
 3419SOL    HW111070   5.989   6.821   2.573  1.6429  1.0149 -0.5379
 3419SOL    HW211071   5.967   6.923   2.464 -0.1702  0.0934 -1.0369
 3420SOL     OW11072   7.430   1.460   4.554  0.1528 -0.3459  0.3969
 3420SOL    HW111073   7.419   1.474   4.648  1.8804  3.9572  0.0628
 3420SOL    HW211074   7.521   1.484   4.536 -0.2034 -0.8504 -2.4043
 3421SOL     OW11075   5.659   7.796   3.368 -0.0844  0.2544 -0.7247
 3421SOL    HW111076   5.733   7.769   3.314 -0.1063  1.0444 -1.1628
 3421SOL    HW211077   5.633   7.717   3.415  1.6532  0.1929  0.1669
 3422SOL     OW11078   4.276   0.119   5.997 -1.1151 -0.2305  0.1580
 3422SOL    HW111079   4.345   0.170   5.955 -1.7498  0.6418  0.1647
 3422SOL    HW211080   4.209   0.109   5.929 -0.7533 -1.5520 -0.0260
 3423SOL     OW11081   2.321   4.079   4.970  0.6462 -0.2300  0.5586
 3423SOL    HW111082   2.397   4.032   5.006  2.6993  1.6045 -1.2451
 3423SOL    HW211083   2.349   4.170   4.965 -1.6226  0.4458 -0.4001
 3424SOL     OW11084   5.254   2.398   4.464  0.2566 -0.3494  0.2391
 3424SOL    HW111085   5.217   2.460   4.526  0.0348 -0.2523  0.0095
 3424SOL    HW211086   5.347   2.396   4.485  0.6466  1.7498 -1.2319
 3425SOL     OW11087   7.444   5.216   7.707  0.2555 -0.2608 -0.2560
 3425SOL    HW111088   7.355   5.241   7.683 -0.5437 -1.2504  1.5647
 3425SOL    HW211089   7.438   5.123   7.728  1.5694 -0.1739  0.5651
 3426SOL     OW11090   2.935   7.019   1.572  0.0364  0.0616  0.5630
 3426SOL    HW111091   2.909   7.083   1.506  1.9130  0.2284 -0.0621
 3426SOL    HW211092   2.966   7.072   1.646  0.2265 -0.1253  0.6183
 3427SOL     OW11093   5.282   6.818   6.345 -0.1336  0.2836  0.1411
 3427SOL    HW111094   5.202   6.840   6.298 -1.8241 -0.6596  2.4588
 3427SOL    HW211095   5.311   6.900   6.384  0.2109  0.6913 -0.9724
 3428SOL     OW11096   5.836   5.132   7.532 -0.2803  0.7110 -0.1939
 3428SOL    HW111097   5.870   5.081   7.606  1.2476  2.3213  0.2424
 3428SOL    HW211098   5.747   5.155   7.558 -0.2882 -0.0525  0.4709
 3429SOL     OW11099   5.179   2.138   4.619 -0.6331 -0.0745 -0.0812
 3429SOL    HW111100   5.124   2.070   4.581 -1.1783  0.2102  0.1892
 3429SOL    HW211101   5.254   2.145   4.559 -0.3186 -1.2563  0.1592
 3430SOL     OW11102   4.604   6.039   2.212  0.0227  0.2421  0.1405
 3430SOL    HW111103   4.576   6.094   2.139  1.4445 -0.9618 -1.3479
 3430SOL    HW211104   4.538   5.970   2.217 -0.2666  0.5229  0.2391
 3431SOL     OW11105   7.980   0.820   6.794  0.0769  0.0784  0.4305
 3431SOL    HW111106   7.987   0.829   6.889 -0.9950  0.3717  0.4944
 3431SOL    HW211107   7.990   0.727   6.777  0.6764  0.0730  0.7875
 3432SOL     OW11108   5.003   4.735   6.648  0.2409 -0.4397 -0.0480
 3432SOL    HW111109   4.936   4.668   6.659 -0.6870 -0.2042 -3.4886
 3432SOL    HW211110   4.954   4.815   6.627  1.4923  0.3529 -0.0371
 3433SOL     OW11111   2.566   3.979   3.321  0.1727  0.0541 -0.3755
 3433SOL    HW111112   2.652   3.970   3.362  0.1417  0.4210 -0.2304
 3433SOL    HW211113   2.511   4.018   3.388  0.4626  1.9390 -1.1937
 3434SOL     OW11114   1.279   3.837   7.862  0.4128 -0.2169 -0.0373
 3434SOL    HW111115   1.344   3.817   7.796 -0.5939  0.4533 -1.2431
 3434SOL    HW211116   1.276   3.758   7.917 -0.1220 -1.5439 -1.9305
 3435SOL     OW11117   4.101   0.347   7.349 -0.2623  0.0831 -0.5767
 3435SOL    HW111118   4.192   0.331   7.375 -0.7140 -0.5656  0.6286
 3435SOL    HW211119   4.052   0.273   7.384 -1.2644  0.4221 -1.2352
 3436SOL     OW11120   6.846   2.934   1.792  0.7237 -0.1133 -0.0657
 3436SOL    HW111121   6.867   2.851   1.749 -0.0703 -0.9245  1.0783
 3436SOL    HW211122   6.904   2.937   1.868  0.2993  0.0747  0.2528
 3437SOL     OW11123   6.133   5.469   2.533  0.0880 -0.5135  0.4806
 3437SOL    HW111124   6.109   5.470   2.440  0.6775 -0.1916  0.3310
 3437SOL    HW211125   6.227   5.453   2.533  0.3145  0.7387  0.9714
 3438SOL     OW11126   2.905   3.061   1.686 -0.6075 -0.7513  0.0951
 3438SOL    HW111127   2.914   3.080   1.592 -2.6511  1.0425  0.2255
 3438SOL    HW211128   2.983   3.101   1.726  0.7592 -2.3420 -0.9123
 3439SOL     OW11129   4.602   5.303   2.885  0.1091  0.1324 -0.4334
 3439SOL    HW111130   4.650   5.244   2.827  0.9895 -0.1100  0.5239
 3439SOL    HW211131   4.607   5.388   2.841  1.0631  0.0237 -0.5591
 3440SOL     OW11132   2.423   7.841   0.920 -0.2621  0.3335  0.0927
 3440SOL    HW111133   2.371   7.920   0.907 -0.5026  0.2609  0.5938
 3440SOL    HW211134   2.485   7.863   0.989 -0.8160 -0.1435  0.7487
 3441SOL     OW11135   5.789   2.603   6.560  0.7122  0.0066  0.3671
 3441SOL    HW111136   5.814   2.695   6.570  0.5162 -0.2093  3.3056
 3441SOL    HW211137   5.835   2.558   6.631 -0.3354 -1.9416 -0.1636
 3442SOL     OW11138   6.894   1.630   2.776 -0.0011  0.2347 -0.0721
 3442SOL    HW111139   6.822   1.628   2.839  0.0202  0.6240 -0.0287
 3442SOL    HW211140   6.956   1.564   2.807 -0.2310  0.0657  0.0247
 3443SOL     OW11141   2.627   0.194   5.533  0.4239 -0.1513 -0.2242
 3443SOL    HW111142   2.559   0.128   5.518  0.8791 -0.7550  0.2989
 3443SOL    HW211143   2.709   0.146   5.521  0.7582  0.3185  0.1914
 3444SOL     OW11144   6.762   1.312   7.747  0.4418  0.6233  0.8373
 3444SOL    HW111145   6.759   1.400   7.710  0.4410  0.1478 -0.3292
 3444SOL    HW211146   6.670   1.288   7.759  0.3453 -0.1344 -1.1402
 3445SOL     OW11147   5.501   2.757   6.784  0.1896  0.1946  0.3264
 3445SOL    HW111148   5.499   2.851   6.801  0.5309  0.1794  0.4461
 3445SOL    HW211149   5.587   2.728   6.814  1.6827  0.5246 -3.3581
 3446SOL     OW11150   1.437   2.682   4.059 -0.2248 -0.4085  0.1939
 3446SOL    HW111151   1.457   2.664   4.150  0.6461 -2.1261 -0.3045
 3446SOL    HW211152   1.346   2.711   4.059 -0.1404 -0.1367  1.6275
 3447SOL     OW11153   7.871   7.011   7.616 -0.3344 -0.3968  0.5449
 3447SOL    HW111154   7.876   7.055   7.701  1.4306 -0.5110  0.5143
 3447SOL    HW211155   7.903   7.076   7.553 -0.2753 -0.8019  0.1520
 3448SOL     OW11156   3.668   2.612   0.387  0.0092 -0.2792 -0.5197
 3448SOL    HW111157   3.726   2.555   0.439 -0.4409  0.2055  0.5195
 3448SOL    HW211158   3.580   2.578   0.403 -0.4308  1.5778  1.2904
 3449SOL     OW11159   7.537   3.290   1.008 -0.1585  0.3346 -0.1227
 3449SOL    HW111160   7.531   3.194   1.012  0.1120  0.1731 -2.3923
 3449SOL    HW211161   7.555   3.317   1.097  1.9204 -1.9068  0.2005
 3450SOL     OW11162   0.037   5.775   1.722  0.4523  0.1869  0.4671
 3450SOL    HW111163   0.061   5.695   1.675 -0.5347  0.7159 -0.9521
 3450SOL    HW211164   0.121   5.812   1.750  1.0327 -0.3346 -0.5524
 3451SOL     OW11165   3.282   5.992   2.734 -0.1035 -0.0266 -0.4720
 3451SOL    HW111166   3.333   5.923   2.775  1.0185  1.8736  1.3751
 3451SOL    HW211167   3.318   5.999   2.645  0.8729 -0.6602 -0.1244
 3452SOL     OW11168   5.228   6.840   3.065  0.3836 -0.6657 -0.1127
 3452SOL    HW111169   5.265   6.768   3.015  0.5505 -0.5102 -0.2110
 3452SOL    HW211170   5.223   6.807   3.155  0.2487 -0.8805 -0.1996
 3453SOL     OW11171   5.522   4.245   4.038 -0.3812 -0.1809 -0.3016
 3453SOL    HW111172   5.577   4.200   4.102 -0.7736 -1.0367 -0.5610
 3453SOL    HW211173   5.510   4.182   3.967  0.8881  1.1158 -1.7238
 3454SOL     OW11174   0.534   4.123   1.499 -0.0371 -0.7415 -0.1709
 3454SOL    HW111175   0.545   4.213   1.468  0.5232 -1.0379 -0.8665
 3454SOL    HW211176   0.610   4.107   1.555  0.7908 -1.3426 -1.4402
 3455SOL     OW11177   3.768   3.098   4.032 -0.7259 -0.4015  0.7386
 3455SOL    HW111178   3.794   3.152   3.957 -3.3223 -0.4321 -0.2374
 3455SOL    HW211179   3.703   3.038   3.996 -0.3629 -1.9174  2.5645
 3456SOL     OW11180   3.211   2.336   1.687 -0.1341 -0.4847 -0.3421
 3456SOL    HW111181   3.122   2.371   1.691 -0.1079 -0.2193 -1.5744
 3456SOL    HW211182   3.261   2.389   1.748 -1.0143 -1.2424  1.0480
 3457SOL     OW11183   3.286   4.281   5.934 -0.1171  0.2070 -0.5048
 3457SOL    HW111184   3.209   4.242   5.976 -0.5435  0.8715 -0.6720
 3457SOL    HW211185   3.251   4.336   5.865  0.3572  2.7136  1.1776
 3458SOL     OW11186   4.280   5.756   1.823 -0.1561  0.2121 -0.6039
 3458SOL    HW111187   4.265   5.668   1.787  1.4275  0.7369 -2.5949
 3458SOL    HW211188   4.299   5.740   1.916 -0.4915 -1.5093 -0.8122
 3459SOL     OW11189   7.124   3.788   2.784 -0.1263 -0.3167 -0.2474
 3459SOL    HW111190   7.085   3.760   2.702  0.4885  2.1769 -1.4225
 3459SOL    HW211191   7.218   3.795   2.766 -0.1273  1.4543  0.2771
 3460SOL     OW11192   1.486   6.389   6.356 -0.0920  0.0715  0.2233
 3460SOL    HW111193   1.486   6.313   6.414 -0.1883 -0.6080 -0.6507
 3460SOL    HW211194   1.394   6.401   6.333 -0.4454  2.1113  2.4625
 3461SOL     OW11195   1.437   2.225   4.984  0.3540 -0.2625 -0.0565
 3461SOL    HW111196   1.408   2.262   4.901  1.7878  0.8016 -0.1077
 3461SOL    HW211197   1.407   2.135   4.983 -2.6366  0.7016 -0.2414
 3462SOL     OW11198   6.007   7.917   5.806  0.0999  0.8809  0.3761
 3462SOL    HW111199   5.912   7.908   5.801 -0.0174  1.8777  0.7483
 3462SOL    HW211200   6.033   7.945   5.718  0.0078  0.9896  0.3840
 3463SOL     OW11201   0.256   7.060   5.415  0.0561 -0.0754  0.1715
 3463SOL    HW111202   0.281   7.080   5.505  1.9424 -0.1715 -0.3039
 3463SOL    HW211203   0.317   7.111   5.361 -1.2964  0.2764 -1.0579
 3464SOL     OW11204   6.955   1.719   3.542 -0.2959  0.0788 -0.0660
 3464SOL    HW111205   6.979   1.657   3.611  2.2609  0.2599 -0.7471
 3464SOL    HW211206   6.871   1.756   3.571  0.0802 -0.8171  2.2676
 3465SOL     OW11207   4.750   0.909   1.641  0.1724  0.3165  0.2254
 3465SOL    HW111208   4.706   0.917   1.556  2.4161  0.6058 -0.9621
 3465SOL    HW211209   4.778   0.817   1.644  0.6458  0.4685  0.3728
 3466SOL     OW11210   7.496   7.387   6.328  0.1357  0.3566 -0.3670
 3466SOL    HW111211   7.556   7.418   6.396 -0.1196  0.5441 -0.2265
 3466SOL    HW211212   7.470   7.300   6.358 -0.2702  0.5915 -0.0337
 3467SOL     OW11213   4.018   2.591   4.054 -0.2274 -0.6746  0.3707
 3467SOL    HW111214   4.003   2.632   4.139 -1.2217 -0.4116  0.0765
 3467SOL    HW211215   4.113   2.589   4.044 -0.1116 -0.7719  1.5173
 3468SOL     OW11216   6.584   5.128   2.170  0.2945  0.4061  0.1576
 3468SOL    HW111217   6.667   5.164   2.198 -0.4652  1.5972  0.9229
 3468SOL    HW211218   6.543   5.198   2.119  1.0079 -1.1828 -2.7176
 3469SOL     OW11219   4.879   2.081   4.191  0.3483  0.0594  0.2839
 3469SOL    HW111220   4.931   2.161   4.189 -0.3038  0.5021  0.6165
 3469SOL    HW211221   4.803   2.101   4.137  2.1182 -1.7347 -3.0351
 3470SOL     OW11222   7.001   7.075   3.577 -0.4923 -0.1302  0.0934
 3470SOL    HW111223   6.913   7.050   3.605 -0.2240 -0.9291  0.2491
 3470SOL    HW211224   6.988   7.115   3.491 -1.0327 -0.0655  0.2030
 3471SOL     OW11225   4.901   5.812   5.275  0.2140 -0.2795 -0.1863
 3471SOL    HW111226   4.972   5.747   5.277 -0.8135 -1.4540 -0.9264
 3471SOL    HW211227   4.923   5.873   5.345  2.4513 -0.0891 -0.9931
 3472SOL     OW11228   5.727   2.959   0.671 -0.0586  0.0061 -0.5328
 3472SOL    HW111229   5.682   3.043   0.673  1.4565  0.8241  0.3979
 3472SOL    HW211230   5.789   2.963   0.744  0.2945 -1.7791 -0.6979
 3473SOL     OW11231   5.024   4.231   4.778  0.5399  0.3295 -0.1070
 3473SOL    HW111232   5.052   4.289   4.707 -0.7928  0.1066 -0.8386
 3473SOL    HW211233   5.002   4.291   4.850 -0.2239  0.7144 -0.6458
 3474SOL     OW11234   3.072   6.028   2.098 -0.0576 -0.7031  0.2848
 3474SOL    HW111235   3.012   6.043   2.171 -0.6558 -0.5720 -0.2345
 3474SOL    HW211236   3.128   6.106   2.098 -0.7450 -0.2048 -0.0625
 3475SOL     OW11237   4.577   3.390   7.615  0.0143  0.1268  0.6457
 3475SOL    HW111238   4.536   3.382   7.529 -0.4030 -1.3783  0.9782
 3475SOL    HW211239   4.622   3.475   7.612  1.6947 -0.7889 -1.7588
 3476SOL     OW11240   5.366   4.232   2.469 -0.1843 -0.1829 -0.0208
 3476SOL    HW111241   5.317   4.307   2.501  0.3573 -0.6492  1.9620
 3476SOL    HW211242   5.299   4.171   2.438 -1.0115 -1.2691  3.6431
 3477SOL     OW11243   4.830   5.657   5.793 -0.2212  0.1233 -0.4581
 3477SOL    HW111244   4.896   5.704   5.844  0.9656 -2.5768  0.5998
 3477SOL    HW211245   4.755   5.649   5.853 -0.1198 -0.0202 -0.3482
 3478SOL     OW11246   6.971   3.436   0.394 -0.4859  0.4528 -0.3240
 3478SOL    HW111247   6.909   3.430   0.467  0.6769 -1.8833  0.5403
 3478SOL    HW211248   6.940   3.510   0.342 -3.0176  0.3873  0.9900
 3479SOL     OW11249   4.916   7.369   4.692 -0.5674  0.1481  0.0464
 3479SOL    HW111250   4.906   7.292   4.747 -0.4968 -0.1678 -0.3808
 3479SOL    HW211251   4.890   7.442   4.748  0.1132 -0.1051  0.7033
 3480SOL     OW11252   1.723   6.824   6.790 -0.2306 -0.5124 -0.2861
 3480SOL    HW111253   1.734   6.847   6.698  0.6279  0.9388  0.1569
 3480SOL    HW211254   1.720   6.729   6.792  0.6515 -0.5672 -1.7166
 3481SOL     OW11255   2.651   4.471   5.617 -0.4334  0.4162 -0.1181
 3481SOL    HW111256   2.642   4.540   5.683 -2.0053  0.2051 -0.1043
 3481SOL    HW211257   2.742   4.442   5.626  0.0271  1.9596  0.3933
 3482SOL     OW11258   0.378   6.026   7.984 -0.7370  0.8229  0.4344
 3482SOL    HW111259   0.374   6.114   7.946 -2.3649  0.0068 -1.3550
 3482SOL    HW211260   0.465   5.994   7.960 -0.5222  1.5670  0.2112
 3483SOL     OW11261   0.782   4.644   1.188  0.1866  0.1839  0.5857
 3483SOL    HW111262   0.720   4.686   1.248 -0.7452 -1.7508  1.0149
 3483SOL    HW211263   0.765   4.685   1.104 -1.2136  0.1827  0.8451
 3484SOL     OW11264   5.965   5.515   5.075 -0.5291  0.0780  0.0890
 3484SOL    HW111265   6.052   5.518   5.036 -0.7298  2.1970 -0.2673
 3484SOL    HW211266   5.921   5.443   5.030  1.6735 -2.3944  1.7327
 3485SOL     OW11267   1.249   3.621   0.885 -0.1331  0.0648 -0.3546
 3485SOL    HW111268   1.167   3.607   0.838  0.0609  0.8794 -0.9324
 3485SOL    HW211269   1.222   3.631   0.977 -0.4969 -1.5939 -0.2653
 3486SOL     OW11270   7.571   5.727   6.986 -0.8617 -0.4130 -0.6255
 3486SOL    HW111271   7.574   5.642   6.943  1.3913 -0.5268 -0.3222
 3486SOL    HW211272   7.633   5.720   7.059  0.3334  1.8615 -1.3587
 3487SOL     OW11273   5.586   7.881   6.437  0.1651  0.1946 -0.1711
 3487SOL    HW111274   5.594   7.952   6.374 -0.9542  0.3196 -0.1820
 3487SOL    HW211275   5.569   7.803   6.384 -0.9985  0.3389 -0.0111
 3488SOL     OW11276   1.383   4.523   1.331  0.6190 -0.1058  1.0951
 3488SOL    HW111277   1.385   4.533   1.236  1.4653 -2.2912  0.8372
 3488SOL    HW211278   1.304   4.472   1.349  0.2260  0.6733  1.6198
 3489SOL     OW11279   1.315   2.634   1.473 -0.1089 -0.4360  0.4868
 3489SOL    HW111280   1.296   2.727   1.485  2.4636  0.3588 -1.0436
 3489SOL    HW211281   1.370   2.631   1.394 -2.0140 -3.4940 -0.8353
 3490SOL     OW11282   2.360   4.238   7.717 -0.0427 -0.0314 -0.6904
 3490SOL    HW111283   2.372   4.165   7.778  0.3866 -0.3431 -1.1414
 3490SOL    HW211284   2.373   4.316   7.770  1.3419 -0.3142 -0.5809
 3491SOL     OW11285   2.724   1.347   3.208  0.5846  0.4044  0.2887
 3491SOL    HW111286   2.724   1.299   3.125 -0.2417  1.8763 -0.5878
 3491SOL    HW211287   2.817   1.361   3.227  0.8542 -2.0361  0.8693
 3492SOL     OW11288   3.035   4.818   4.450 -0.3879  0.2419 -0.4803
 3492SOL    HW111289   3.072   4.896   4.491  0.4721  0.2916 -1.3252
 3492SOL    HW211290   3.048   4.832   4.356  0.7215 -1.3908 -0.5836
 3493SOL     OW11291   6.841   6.186   5.593  0.3118 -0.1374  0.1715
 3493SOL    HW111292   6.862   6.092   5.589  2.0864  0.1268  2.0505
 3493SOL    HW211293   6.746   6.190   5.590  0.0798 -2.2205  3.0700
 3494SOL     OW11294   4.128   6.265   4.036 -0.2812  0.5349 -0.3707
 3494SOL    HW111295   4.043   6.229   4.010  0.0252  0.6239 -1.5247
 3494SOL    HW211296   4.146   6.334   3.972  1.3226 -0.4465 -1.0231
 3495SOL     OW11297   3.196   5.551   2.761 -0.4413  0.4163  0.5460
 3495SOL    HW111298   3.144   5.631   2.750  0.0495  0.7160  0.4243
 3495SOL    HW211299   3.147   5.501   2.827 -0.6697  0.8868  0.7407
 3496SOL     OW11300   1.134   2.908   2.829  0.2818 -0.2183 -0.4275
 3496SOL    HW111301   1.039   2.921   2.826  0.1645 -1.0768 -0.4387
 3496SOL    HW211302   1.146   2.823   2.872  1.0844  0.3915  0.5773
 3497SOL     OW11303   4.264   0.069   1.076 -0.0926  0.4098 -0.0377
 3497SOL    HW111304   4.310   0.152   1.063 -0.0897  0.8456  2.4928
 3497SOL    HW211305   4.171   0.090   1.062  0.0166  0.5578 -0.5596
 3498SOL     OW11306   7.506   0.550   4.203  0.4165 -0.4686 -0.2791
 3498SOL    HW111307   7.482   0.483   4.139  2.4616 -1.7082  0.2048
 3498SOL    HW211308   7.473   0.516   4.286 -0.6966  0.3042 -0.4000
 3499SOL     OW11309   1.670   6.805   5.036  0.2828  0.2832 -0.1537
 3499SOL    HW111310   1.718   6.766   4.963  1.3408  1.1271  0.0633
 3499SOL    HW211311   1.615   6.872   4.996  2.1823  1.9838 -0.0407
 3500SOL     OW11312   6.563   6.550   7.217  0.4237  0.3900  0.7790
 3500SOL    HW111313   6.656   6.569   7.203  0.1711  1.6427  0.8269
 3500SOL    HW211314   6.563   6.480   7.282  1.3576 -0.3034  0.0612
 3501SOL     OW11315   1.962   2.628   7.265 -0.6551  0.0849  0.1018
 3501SOL    HW111316   2.009   2.616   7.347  0.4569  1.4020 -0.3260
 3501SOL    HW211317   1.988   2.552   7.212  0.5535  0.5058  0.0756
 3502SOL     OW11318   6.996   0.094   2.725  0.3372  0.5319 -0.4020
 3502SOL    HW111319   6.904   0.120   2.720  0.6558  1.6034 -0.9064
 3502SOL    HW211320   7.045   0.172   2.696  1.5319  0.9008  2.4048
 3503SOL     OW11321   6.259   4.845   6.225 -0.1570  0.2633  0.4608
 3503SOL    HW111322   6.284   4.783   6.294  0.1088  0.2831  0.3829
 3503SOL    HW211323   6.209   4.792   6.163 -0.0259  0.1474  0.4514
 3504SOL     OW11324   4.950   2.296   4.715 -0.5554 -0.5666 -0.1689
 3504SOL    HW111325   5.034   2.264   4.682  0.3028  1.4286  0.0397
 3504SOL    HW211326   4.949   2.272   4.808  0.1533  0.1707  0.0250
 3505SOL     OW11327   0.525   7.957   4.199 -0.3462 -0.1094  0.4812
 3505SOL    HW111328   0.552   8.049   4.210  1.2997 -0.2580 -1.9859
 3505SOL    HW211329   0.572   7.910   4.268  0.5888  0.5580  0.3050
 3506SOL     OW11330   2.114   6.438   6.443 -0.3706 -0.2014 -0.4445
 3506SOL    HW111331   2.025   6.448   6.478 -0.1780 -1.0434  0.2942
 3506SOL    HW211332   2.161   6.390   6.510 -0.1097 -2.1914 -2.0135
 3507SOL     OW11333   3.672   0.101   2.540 -0.3400 -0.2764  0.2448
 3507SOL    HW111334   3.761   0.130   2.521 -0.6066  0.2503 -0.2060
 3507SOL    HW211335   3.634   0.082   2.454 -1.2637  1.2812  0.2907
 3508SOL     OW11336   4.726   1.547   4.740 -0.5066  0.0071 -0.3111
 3508SOL    HW111337   4.785   1.546   4.815 -0.0251 -1.4062 -0.6751
 3508SOL    HW211338   4.774   1.592   4.672 -0.0164 -0.7329 -0.4633
 3509SOL     OW11339   0.686   0.052   3.817  0.1318  0.5749 -0.1022
 3509SOL    HW111340   0.612   0.065   3.876  1.1411  0.6203  1.1684
 3509SOL    HW211341   0.704   0.139   3.780  0.1382  0.7350  0.2831
 3510SOL     OW11342   7.237   7.812   4.606  0.3620 -0.1126  0.2480
 3510SOL    HW111343   7.290   7.770   4.673  1.2537 -1.4269 -1.2510
 3510SOL    HW211344   7.299   7.863   4.553 -0.3189  0.8714  0.3672
 3511SOL     OW11345   3.773   7.806   6.888  0.6557  0.1137  0.6348
 3511SOL    HW111346   3.686   7.845   6.896  0.7654  0.4483  0.1886
 3511SOL    HW211347   3.762   7.736   6.824  0.6401 -0.0798  0.8449
 3512SOL     OW11348   7.692   7.115   4.875  0.3831  0.0863  0.5422
 3512SOL    HW111349   7.720   7.152   4.959  0.1469  2.6716 -0.4878
 3512SOL    HW211350   7.705   7.186   4.812 -1.5966 -1.0750 -1.2243
 3513SOL     OW11351   0.810   3.703   3.495 -0.0204 -0.0162 -0.3530
 3513SOL    HW111352   0.830   3.621   3.449  3.2709  1.3830 -1.6004
 3513SOL    HW211353   0.895   3.734   3.526 -1.0168  3.4937 -0.8769
 3514SOL     OW11354   0.679   3.156   6.240 -0.7431 -0.0465  0.9719
 3514SOL    HW111355   0.744   3.100   6.282  0.3412 -0.1405 -0.7866
 3514SOL    HW211356   0.689   3.241   6.282  0.9381  0.0982  0.3002
 3515SOL     OW11357   3.774   0.179   2.147 -0.0100  0.2923  0.6127
 3515SOL    HW111358   3.733   0.266   2.150 -0.5138  0.0287  1.3046
 3515SOL    HW211359   3.835   0.185   2.073 -1.0241  0.7977 -0.1980
 3516SOL     OW11360   6.041   1.502   0.982  0.3427 -0.2898 -0.7889
 3516SOL    HW111361   5.997   1.537   1.060  2.2269 -1.0169  0.6207
 3516SOL    HW211362   5.985   1.530   0.909 -3.0952 -2.1415  0.9990
 3517SOL     OW11363   3.455   3.752   3.769  0.3566  0.0591  0.7288
 3517SOL    HW111364   3.486   3.790   3.686 -0.4573  1.3473  0.9866
 3517SOL    HW211365   3.533   3.748   3.824  0.7303  0.0634  0.2091
 3518SOL     OW11366   7.668   1.847   4.350  0.2240  0.1470  0.2175
 3518SOL    HW111367   7.611   1.783   4.392 -0.6623  1.1549  0.5973
 3518SOL    HW211368   7.631   1.932   4.375  2.2768  0.8522  1.0057
 3519SOL     OW11369   0.491   5.532   0.247 -0.6669 -0.7408  0.1665
 3519SOL    HW111370   0.500   5.626   0.231 -0.5961 -1.0624 -1.8784
 3519SOL    HW211371   0.502   5.492   0.160  1.4843 -2.7958  1.3316
 3520SOL     OW11372   6.378   5.506   6.433 -0.1027  0.4975  0.3676
 3520SOL    HW111373   6.299   5.513   6.379  0.2289  0.6584 -0.1042
 3520SOL    HW211374   6.421   5.426   6.403 -0.4945 -0.0170  1.1770
 3521SOL     OW11375   3.094   4.446   5.395 -0.1899 -0.5887  0.0776
 3521SOL    HW111376   3.182   4.467   5.364  0.0833 -1.9350 -0.0827
 3521SOL    HW211377   3.056   4.531   5.419  0.4298  0.2154 -1.7021
 3522SOL     OW11378   6.688   3.153   2.324 -0.1650 -0.2841 -0.0226
 3522SOL    HW111379   6.651   3.201   2.398  1.9343  0.6658  0.4307
 3522SOL    HW211380   6.621   3.160   2.256 -1.2947  0.4546  1.1376
 3523SOL     OW11381   1.268   6.512   3.541  0.2316 -0.3339 -0.2279
 3523SOL    HW111382   1.276   6.452   3.466 -1.0737  0.5661 -1.0888
 3523SOL    HW211383   1.275   6.599   3.503  0.6614  0.1040  0.8481
 3524SOL     OW11384   0.246   4.159   6.344 -0.3346 -0.0509 -0.0009
 3524SOL    HW111385   0.235   4.253   6.332 -0.6361 -0.2187 -1.1009
 3524SOL    HW211386   0.194   4.139   6.422 -0.9228  0.5711 -0.2207
 3525SOL     OW11387   2.346   3.466   0.793 -0.0540  0.0687  0.0751
 3525SOL    HW111388   2.273   3.487   0.735 -0.6437  0.6497  1.0049
 3525SOL    HW211389   2.307   3.411   0.861  0.4393  0.0986  0.3833
 3526SOL     OW11390   1.728   3.634   7.034 -0.0321  0.2068  0.2494
 3526SOL    HW111391   1.729   3.570   7.106 -0.3086 -1.4267 -1.1811
 3526SOL    HW211392   1.668   3.702   7.064  1.6938  0.7790  2.5977
 3527SOL     OW11393   0.981   2.352   5.715  0.6427  0.3629  0.5937
 3527SOL    HW111394   0.939   2.281   5.764  0.8694  0.2596  0.6390
 3527SOL    HW211395   1.002   2.313   5.630 -2.5452  1.3904 -0.7699
 3528SOL     OW11396   6.485   3.695   0.949 -0.2757  0.5167  0.0866
 3528SOL    HW111397   6.440   3.699   0.865 -1.3059 -2.0211  0.4668
 3528SOL    HW211398   6.573   3.664   0.929 -0.5833 -0.2778 -0.0591
 3529SOL     OW11399   0.692   7.290   7.138 -0.3323  0.4895 -0.1082
 3529SOL    HW111400   0.772   7.242   7.117 -1.0165 -0.5390 -0.4687
 3529SOL    HW211401   0.669   7.261   7.226 -0.8182  0.0262 -0.3767
 3530SOL     OW11402   5.593   3.385   6.798 -0.5578  0.7041  0.3307
 3530SOL    HW111403   5.521   3.361   6.740  0.2526  1.5796 -1.0827
 3530SOL    HW211404   5.552   3.437   6.867 -1.3737  0.5955 -0.0666
 3531SOL     OW11405   2.573   1.578   7.337  0.3493 -0.2460  0.1132
 3531SOL    HW111406   2.646   1.613   7.286 -0.9968 -2.1459 -3.2600
 3531SOL    HW211407   2.498   1.632   7.312 -0.2048 -0.8100  0.5443
 3532SOL     OW11408   4.896   5.738   2.785 -0.1733  0.4654 -0.4718
 3532SOL    HW111409   4.833   5.807   2.767 -0.2900  0.7233  0.9191
 3532SOL    HW211410   4.981   5.778   2.766 -0.3891  0.1680 -2.1837
 3533SOL     OW11411   1.260   3.370   5.287 -0.2563 -0.5426 -0.7379
 3533SOL    HW111412   1.207   3.312   5.342  1.2182 -1.9450 -0.7501
 3533SOL    HW211413   1.338   3.318   5.266 -0.6645  0.0631 -3.9452
 3534SOL     OW11414   3.144   2.814   1.488  0.4612  0.0520  0.2474
 3534SOL    HW111415   3.134   2.908   1.504  1.0213  0.1048  0.2939
 3534SOL    HW211416   3.109   2.801   1.400  0.2755  0.2831  0.2853
 3535SOL     OW11417   3.616   4.892   2.905  0.3977 -0.2688 -0.3221
 3535SOL    HW111418   3.614   4.852   2.992 -1.0682 -0.1221 -0.2766
 3535SOL    HW211419   3.611   4.818   2.845 -0.5111 -0.2717 -0.2532
 3536SOL     OW11420   7.220   0.859   1.716 -0.0791 -0.5196 -0.2966
 3536SOL    HW111421   7.272   0.783   1.693  0.1389 -0.4544 -0.0239
 3536SOL    HW211422   7.275   0.934   1.692  0.5244 -0.4487  1.2387
 3537SOL     OW11423   3.342   2.757   5.801  0.5830 -0.6028 -0.0923
 3537SOL    HW111424   3.337   2.674   5.848  0.8145 -0.8417 -0.4861
 3537SOL    HW211425   3.313   2.823   5.864 -2.3918 -1.3148 -0.6259
 3538SOL     OW11426   5.546   0.348   6.502  0.2976 -0.6308 -0.0857
 3538SOL    HW111427   5.461   0.308   6.486  1.5135 -3.4795  0.2627
 3538SOL    HW211428   5.581   0.367   6.415  0.0325 -1.0361 -0.2815
 3539SOL     OW11429   0.172   0.985   2.284  0.0226 -0.2761  0.2402
 3539SOL    HW111430   0.220   1.035   2.218  1.3683 -1.5396  0.2496
 3539SOL    HW211431   0.188   1.031   2.366  2.0007 -1.2225  0.3990
 3540SOL     OW11432   3.590   3.673   2.464  0.4742  0.3992  0.4966
 3540SOL    HW111433   3.545   3.688   2.547  0.2354  1.0623  0.2482
 3540SOL    HW211434   3.522   3.682   2.397  0.3006 -1.7986  0.3235
 3541SOL     OW11435   6.269   6.888   1.934 -0.1509  0.4003  0.1921
 3541SOL    HW111436   6.345   6.914   1.986  0.7686  0.1840 -1.0443
 3541SOL    HW211437   6.263   6.953   1.864 -0.8734  0.1959  0.0576
 3542SOL     OW11438   3.175   7.806   0.048  0.4383 -0.3397 -0.4651
 3542SOL    HW111439   3.203   7.775  -0.038  1.9129  0.4226 -0.2860
 3542SOL    HW211440   3.230   7.882   0.065 -0.6346  0.1967  0.6609
 3543SOL     OW11441   4.236   2.881   4.845  0.1502  0.2625  0.2158
 3543SOL    HW111442   4.145   2.898   4.868  0.2869  2.9642 -1.0384
 3543SOL    HW211443   4.270   2.829   4.917 -2.2053 -0.2138  1.0072
 3544SOL     OW11444   6.065   7.097   2.662  0.1293  0.2214 -0.5014
 3544SOL    HW111445   6.080   7.083   2.755  0.5960 -0.4987 -0.6861
 3544SOL    HW211446   6.074   7.010   2.622  0.8187  0.6645 -1.3379
 3545SOL     OW11447   6.468   6.069   5.841  0.0620  0.2030 -0.3322
 3545SOL    HW111448   6.453   5.978   5.817  0.8797 -0.0116 -0.0588
 3545SOL    HW211449   6.514   6.106   5.765 -2.9599  1.2079 -1.7334
 3546SOL     OW11450   7.174   1.167   5.447 -0.3736  0.1527  0.0554
 3546SOL    HW111451   7.210   1.240   5.497  2.5693 -0.6256 -0.8424
 3546SOL    HW211452   7.209   1.089   5.490 -1.3241 -0.6434 -0.6044
 3547SOL     OW11453   1.317   2.522   5.036 -0.2634 -0.0487  0.2590
 3547SOL    HW111454   1.290   2.544   4.947  0.4209  2.0248  0.5445
 3547SOL    HW211455   1.412   2.524   5.034 -0.1961 -2.0599  0.5579
 3548SOL     OW11456   0.424   5.556   1.551  0.2769 -0.2837 -0.3599
 3548SOL    HW111457   0.409   5.466   1.521  1.5490 -0.5479 -0.2262
 3548SOL    HW211458   0.448   5.547   1.643  1.7347  0.0804 -0.7040
 3549SOL     OW11459   7.094   1.824   1.059 -0.0524  0.3567  0.0133
 3549SOL    HW111460   7.145   1.880   1.118  0.1840 -0.0520  0.1972
 3549SOL    HW211461   7.009   1.814   1.103  0.0634  0.1939  0.1977
 3550SOL     OW11462   6.939   4.001   1.259 -0.1666 -0.0302  0.3492
 3550SOL    HW111463   6.974   3.962   1.179  1.4627 -0.3201  1.1842
 3550SOL    HW211464   6.944   3.931   1.324 -0.5032  0.5216  0.9684
 3551SOL     OW11465   4.637   4.192   1.324 -0.0538  0.2756  0.0479
 3551SOL    HW111466   4.673   4.152   1.404  0.5289 -0.6063 -0.6480
 3551SOL    HW211467   4.618   4.118   1.267  3.0259  1.0373 -2.1163
 3552SOL     OW11468   5.641   2.659   0.154  0.9688 -0.2827  0.1683
 3552SOL    HW111469   5.642   2.567   0.127  1.0510 -0.0253 -0.7329
 3552SOL    HW211470   5.714   2.667   0.214 -0.1694 -1.2314  1.7288
 3553SOL     OW11471   4.923   6.603   4.084 -0.0109 -0.0881 -0.0660
 3553SOL    HW111472   5.018   6.592   4.081  0.2747  2.3027 -1.2027
 3553SOL    HW211473   4.892   6.567   4.001  0.1361  0.8753 -0.5503
 3554SOL     OW11474   3.060   3.972   5.441 -0.0803 -0.1215 -0.1342
 3554SOL    HW111475   3.133   4.000   5.385  2.2512  0.1295  2.9130
 3554SOL    HW211476   3.029   4.052   5.482 -0.3973 -0.5881  0.5446
 3555SOL     OW11477   5.020   6.702   1.775  0.4128 -0.1015 -0.0566
 3555SOL    HW111478   5.056   6.658   1.698  1.4592  1.3395 -0.4100
 3555SOL    HW211479   5.094   6.706   1.836 -0.3575 -1.0527  0.9587
 3556SOL     OW11480   3.199   0.963   7.118 -0.1291  0.3063 -0.1497
 3556SOL    HW111481   3.213   0.903   7.191 -0.9617  2.3607  1.7677
 3556SOL    HW211482   3.239   1.045   7.146 -2.7721  1.8901 -0.8774
 3557SOL     OW11483   4.362   7.258   4.399 -0.1071  0.0136 -0.2181
 3557SOL    HW111484   4.271   7.232   4.388 -1.0712  3.0067  0.1803
 3557SOL    HW211485   4.390   7.218   4.481 -1.2770 -0.3644 -0.0048
 3558SOL     OW11486   5.928   5.025   0.934 -0.1953 -0.2871  0.0586
 3558SOL    HW111487   5.933   4.942   0.886  0.6808 -1.7123  2.5428
 3558SOL    HW211488   5.843   5.061   0.911 -0.1942 -1.4018 -1.8033
 3559SOL     OW11489   0.301   3.934   2.157  0.2637  0.1026 -0.1843
 3559SOL    HW111490   0.369   3.986   2.200  1.5183 -0.6431 -1.2225
 3559SOL    HW211491   0.280   3.865   2.220  2.0043 -0.9100 -0.6564
 3560SOL     OW11492   6.134   3.081   5.095  0.3782  0.2688  0.7195
 3560SOL    HW111493   6.221   3.066   5.059 -0.0636 -0.0894 -0.2026
 3560SOL    HW211494   6.126   3.177   5.098  0.7974  0.3016  0.7936
 3561SOL     OW11495   3.412   7.863   2.247 -0.3118  0.7343  0.0491
 3561SOL    HW111496   3.494   7.821   2.222 -0.4584 -0.1309  0.9601
 3561SOL    HW211497   3.439   7.942   2.294  0.0076  0.4008  0.4351
 3562SOL     OW11498   1.224   0.653   3.587  0.0428 -0.1578  0.0016
 3562SOL    HW111499   1.308   0.642   3.633  0.2405  0.3340 -0.2361
 3562SOL    HW211500   1.244   0.630   3.496  0.6063  2.6210 -0.6330
 3563SOL     OW11501   3.042   4.301   0.639 -0.1542  0.0986 -0.0359
 3563SOL    HW111502   3.083   4.222   0.604 -0.5590  0.1171 -0.5470
 3563SOL    HW211503   2.948   4.284   0.636 -0.2022  0.0994  1.0510
 3564SOL     OW11504   5.765   7.099   5.716  0.3133 -0.3038 -0.2806
 3564SOL    HW111505   5.748   7.104   5.810  0.9590 -1.0048 -0.1216
 3564SOL    HW211506   5.856   7.126   5.706  0.5128 -1.0693 -0.6001
 3565SOL     OW11507   6.409   5.402   7.473  0.9446  0.0792 -0.0083
 3565SOL    HW111508   6.348   5.427   7.543  0.0775  0.4486 -0.8683
 3565SOL    HW211509   6.355   5.351   7.412  1.8986 -0.9857  0.0237
 3566SOL     OW11510   3.877   2.157   5.817 -0.2462  0.1138 -0.1650
 3566SOL    HW111511   3.866   2.219   5.889  1.1316  0.0167  0.1413
 3566SOL    HW211512   3.941   2.093   5.850  0.7893  0.3586 -1.6588
 3567SOL     OW11513   1.765   5.839   0.901  0.9102 -0.4825  0.5873
 3567SOL    HW111514   1.674   5.812   0.889 -0.1389  1.7812  3.1062
 3567SOL    HW211515   1.799   5.780   0.968  0.3148  0.6978  1.9546
 3568SOL     OW11516   4.454   6.760   3.102  0.2042 -0.0663 -0.0832
 3568SOL    HW111517   4.402   6.713   3.167  0.3794  0.5657  0.5157
 3568SOL    HW211518   4.459   6.850   3.135  1.8774 -0.1810 -0.0245
 3569SOL     OW11519   6.820   2.969   5.127  0.2059 -0.2649 -0.0080
 3569SOL    HW111520   6.808   3.031   5.199  1.0737 -2.4118  2.0241
 3569SOL    HW211521   6.885   2.907   5.159  0.2935 -1.5060 -2.4994
 3570SOL     OW11522   1.728   5.889   5.341 -0.0947 -0.0944  0.3006
 3570SOL    HW111523   1.673   5.816   5.314  0.8331  0.1105 -2.2428
 3570SOL    HW211524   1.667   5.953   5.377 -1.3875 -0.3216 -1.4628
 3571SOL     OW11525   3.783   6.569   6.771  0.1885  0.5914  0.2778
 3571SOL    HW111526   3.808   6.563   6.679  0.4430  0.6475  0.3449
 3571SOL    HW211527   3.812   6.656   6.798  1.2386  0.0929  0.7620
 3572SOL     OW11528   1.783   5.207   1.915 -0.1198 -0.0531  0.0263
 3572SOL    HW111529   1.797   5.185   2.007 -0.7439 -0.4037  0.0446
 3572SOL    HW211530   1.788   5.123   1.869  0.2140  0.1242 -0.2647
 3573SOL     OW11531   0.289   4.728   7.966 -0.2234 -0.1473 -0.5734
 3573SOL    HW111532   0.360   4.784   7.935  1.3657 -1.8269 -0.0743
 3573SOL    HW211533   0.270   4.670   7.892 -1.0071  0.2177 -0.6637
 3574SOL     OW11534   2.994   3.303   5.347 -0.5029  0.2097 -1.0843
 3574SOL    HW111535   3.077   3.325   5.389 -1.6353 -0.2529  1.4650
 3574SOL    HW211536   3.006   3.213   5.316 -0.8864 -0.7667  1.5262
 3575SOL     OW11537   2.258   3.830   7.275 -0.0686 -0.2633 -0.2439
 3575SOL    HW111538   2.248   3.735   7.273  2.0454 -0.4949 -2.3574
 3575SOL    HW211539   2.353   3.844   7.272 -0.2998  1.9178  1.1703
 3576SOL     OW11540   5.054   6.005   5.365  1.3331 -0.2083  0.0990
 3576SOL    HW111541   5.089   5.991   5.453  1.1276 -0.9211  0.0692
 3576SOL    HW211542   5.131   6.002   5.308  1.4497  0.1216  0.2361
 3577SOL     OW11543   0.514   1.208   0.310  0.1680  0.3085 -0.1300
 3577SOL    HW111544   0.447   1.203   0.242  1.2608  1.5434 -1.3141
 3577SOL    HW211545   0.578   1.142   0.286 -0.9386 -1.3825  1.4016
 3578SOL     OW11546   4.657   2.703   0.879 -0.0430  0.4136  0.2233
 3578SOL    HW111547   4.751   2.706   0.901  0.2949 -2.0452 -0.6912
 3578SOL    HW211548   4.623   2.629   0.929 -0.4902 -1.5922 -2.8930
 3579SOL     OW11549   6.716   5.401   5.920 -0.6424  0.5357 -0.2811
 3579SOL    HW111550   6.677   5.409   6.007 -0.7675 -2.0140 -0.0689
 3579SOL    HW211551   6.703   5.310   5.896  1.6505  0.5789 -1.9002
 3580SOL     OW11552   6.057   0.754   4.223 -0.1404  0.1956 -0.1932
 3580SOL    HW111553   6.036   0.741   4.316  0.4298  0.0172 -0.0866
 3580SOL    HW211554   5.977   0.731   4.177  0.2928 -2.0617  0.1153
 3581SOL     OW11555   7.719   6.249   1.045  0.3010 -0.5783 -0.0603
 3581SOL    HW111556   7.659   6.304   1.094 -0.5734 -0.9777 -0.6725
 3581SOL    HW211557   7.676   6.164   1.040  0.6285 -0.6964 -1.0412
 3582SOL     OW11558   2.764   1.584   6.892  0.0834 -0.0799 -0.2704
 3582SOL    HW111559   2.740   1.662   6.842 -0.2013  0.0847  0.1314
 3582SOL    HW211560   2.681   1.544   6.917  0.1692 -1.8949 -2.6152
 3583SOL     OW11561   4.150   2.085   7.199 -0.1675 -0.3884 -0.4663
 3583SOL    HW111562   4.165   2.042   7.282  0.2681  0.2837 -0.1909
 3583SOL    HW211563   4.092   2.159   7.220  0.3010  0.0435 -0.6829
 3584SOL     OW11564   5.770   4.138   0.921 -0.3319 -0.2497 -0.2212
 3584SOL    HW111565   5.726   4.210   0.965 -0.7160 -0.9858  0.6321
 3584SOL    HW211566   5.761   4.064   0.982  2.8000 -0.2162  0.3441
 3585SOL     OW11567   1.583   5.783   1.704 -0.5430  0.2271 -0.1963
 3585SOL    HW111568   1.653   5.780   1.638 -0.6385  2.1006 -0.4201
 3585SOL    HW211569   1.502   5.782   1.652 -0.7641 -3.7490  0.1276
 3586SOL     OW11570   1.348   5.136   2.198 -0.0087 -0.2573 -0.0727
 3586SOL    HW111571   1.282   5.125   2.266  0.4749 -1.0123  0.2765
 3586SOL    HW211572   1.317   5.211   2.147 -0.4905  0.1769  0.8361
 3587SOL     OW11573   2.497   5.797   0.513  0.4260 -0.5849  0.7044
 3587SOL    HW111574   2.580   5.758   0.488  1.2459  0.4885  1.6901
 3587SOL    HW211575   2.485   5.771   0.604 -0.2150 -0.5506  0.6328
 3588SOL     OW11576   7.108   3.359   1.073 -0.1807 -0.6928 -0.1976
 3588SOL    HW111577   7.030   3.381   1.124 -0.5131  0.8953 -1.3481
 3588SOL    HW211578   7.115   3.429   1.008  2.8280 -0.1869  0.5633
 3589SOL     OW11579   1.706   3.960   3.933 -0.1101 -0.0789 -0.2774
 3589SOL    HW111580   1.779   4.019   3.949 -0.7447  1.2172 -2.0795
 3589SOL    HW211581   1.732   3.908   3.857  0.0557 -1.5030  0.7287
 3590SOL     OW11582   1.550   3.606   1.438 -0.0078  0.0506  0.1104
 3590SOL    HW111583   1.626   3.589   1.382 -1.1902 -0.4827 -1.3944
 3590SOL    HW211584   1.476   3.574   1.386 -1.2713  0.7942  1.4453
 3591SOL     OW11585   6.468   4.090   2.287 -0.1440 -0.4252  0.4462
 3591SOL    HW111586   6.518   4.099   2.206  0.1193 -1.5948  0.4688
 3591SOL    HW211587   6.406   4.019   2.269  1.7596 -2.5944  2.1542
 3592SOL     OW11588   7.114   4.006   1.727  0.2672 -0.0614  0.1112
 3592SOL    HW111589   7.129   4.098   1.748  0.4884 -0.2164  0.6351
 3592SOL    HW211590   7.167   3.990   1.649  0.8433  0.0573  0.4714
 3593SOL     OW11591   7.007   7.646   5.685  0.2596 -0.2320  0.0784
 3593SOL    HW111592   7.019   7.642   5.780  1.2816 -0.8404 -0.0688
 3593SOL    HW211593   7.096   7.644   5.649 -0.1357 -0.5740 -0.9072
 3594SOL     OW11594   2.461   0.806   1.844  0.0629  0.5223  0.1579
 3594SOL    HW111595   2.372   0.776   1.828 -0.4761  2.1569 -0.0264
 3594SOL    HW211596   2.462   0.830   1.937  1.3853 -2.9816  1.1087
 3595SOL     OW11597   0.042   3.146   0.911 -0.3590  0.1841  0.1370
 3595SOL    HW111598   0.042   3.241   0.906  0.1400  0.2350  1.0200
 3595SOL    HW211599   0.002   3.117   0.829  0.1624  1.1339 -0.4539
 3596SOL     OW11600   3.330   4.456   1.208 -0.6467 -0.0298 -0.0933
 3596SOL    HW111601   3.400   4.454   1.273  0.5269 -0.9825 -1.3408
 3596SOL    HW211602   3.275   4.381   1.230 -1.2066  0.6241  0.7889
 3597SOL     OW11603   7.500   3.030   0.495 -0.2867  0.5341 -0.2465
 3597SOL    HW111604   7.468   3.112   0.533  0.4599  0.0952  1.3849
 3597SOL    HW211605   7.429   2.967   0.510 -1.2411  1.0716 -2.3157
 3598SOL     OW11606   7.072   0.156   0.180 -0.6077  0.4309 -0.6955
 3598SOL    HW111607   7.059   0.190   0.268  0.2059  0.6022 -0.6373
 3598SOL    HW211608   7.070   0.061   0.190  0.2736  0.4370 -0.3556
 3599SOL     OW11609   6.078   4.621   7.341  0.0268  0.2211  0.2520
 3599SOL    HW111610   6.035   4.536   7.329  0.6213 -0.1326  0.6279
 3599SOL    HW211611   6.106   4.647   7.253  3.8361 -2.0846  0.6785
 3600SOL     OW11612   3.406   1.687   0.731 -0.1035  0.4506 -0.1812
 3600SOL    HW111613   3.357   1.769   0.731 -1.2207 -0.1910  1.3409
 3600SOL    HW211614   3.448   1.684   0.817 -1.3860 -1.3401  0.4092
 3601SOL     OW11615   6.524   3.430   3.820 -0.5443  0.4137  0.3087
 3601SOL    HW111616   6.570   3.365   3.767 -0.5633 -0.4216  1.3096
 3601SOL    HW211617   6.475   3.379   3.884 -0.1447  1.4253  1.4401
 3602SOL     OW11618   6.292   3.720   6.073 -0.0541 -0.5435  0.4325
 3602SOL    HW111619   6.297   3.797   6.130  1.8038  1.7610 -2.6786
 3602SOL    HW211620   6.215   3.736   6.018  0.8595 -0.4259 -0.8311
 3603SOL     OW11621   3.085   7.989   4.566  0.1570  1.1595 -0.0796
 3603SOL    HW111622   3.168   8.019   4.527  0.2227  1.5509  0.3566
 3603SOL    HW211623   3.024   8.061   4.548 -0.5854  0.0669 -2.0622
 3604SOL     OW11624   5.324   6.931   4.323  0.0111  0.1479  0.6002
 3604SOL    HW111625   5.401   6.986   4.307  0.1224 -0.7241 -2.2227
 3604SOL    HW211626   5.284   6.968   4.401  1.7702  2.3459  0.5234
 3605SOL     OW11627   0.781   4.112   3.566 -0.0083 -0.1139 -0.2313
 3605SOL    HW111628   0.824   4.067   3.493 -0.8086 -2.0752  0.4707
 3605SOL    HW211629   0.849   4.119   3.633  0.5911  1.2553 -0.9684
 3606SOL     OW11630   7.699   6.318   2.535 -0.0572 -0.4002  0.5743
 3606SOL    HW111631   7.675   6.267   2.458  2.1405 -2.3616  1.1477
 3606SOL    HW211632   7.795   6.325   2.531 -0.0165  0.5659  2.4407
 3607SOL     OW11633   2.588   2.846   0.503 -0.0802 -0.1881 -0.3537
 3607SOL    HW111634   2.615   2.815   0.589  0.5495 -0.5981 -0.6969
 3607SOL    HW211635   2.650   2.915   0.482 -0.1010 -0.2375 -0.5759
 3608SOL     OW11636   6.562   7.882   3.108  0.3571  0.0301 -0.2880
 3608SOL    HW111637   6.656   7.880   3.092  0.4628  1.5028  0.0961
 3608SOL    HW211638   6.529   7.949   3.049 -0.3279  0.1243  0.1918
 3609SOL     OW11639   6.138   2.766   5.597  0.3955 -0.3006  0.0679
 3609SOL    HW111640   6.208   2.804   5.544  0.1461  0.1408  0.0541
 3609SOL    HW211641   6.081   2.840   5.618  0.3329 -0.5236  0.7022
 3610SOL     OW11642   5.429   6.544   5.911 -0.1431  0.0632  0.2674
 3610SOL    HW111643   5.522   6.523   5.911  0.8345  3.8829  1.1412
 3610SOL    HW211644   5.408   6.556   6.004 -0.8592  1.5917 -0.0706
 3611SOL     OW11645   5.376   4.640   5.742 -0.7305 -0.2472  0.0249
 3611SOL    HW111646   5.409   4.559   5.780  0.3839 -0.8010 -2.0734
 3611SOL    HW211647   5.443   4.667   5.680 -0.7726  2.6522  1.1200
 3612SOL     OW11648   6.868   7.668   1.610  0.3054 -0.2143  0.4930
 3612SOL    HW111649   6.882   7.630   1.696 -0.6888  0.1286  0.8147
 3612SOL    HW211650   6.909   7.607   1.549  0.4495 -0.7793  1.1572
 3613SOL     OW11651   4.213   1.395   3.947  0.0747  0.0714 -0.1749
 3613SOL    HW111652   4.173   1.449   3.879  2.9087 -1.2448 -3.0222
 3613SOL    HW211653   4.293   1.442   3.971  0.2642 -0.6298  0.5847
 3614SOL     OW11654   7.970   0.587   2.974  0.2084  0.0889 -0.6283
 3614SOL    HW111655   7.947   0.547   2.890 -1.6241  1.6473 -0.8965
 3614SOL    HW211656   7.913   0.544   3.038  1.1336 -0.6213 -0.2699
 3615SOL     OW11657   7.708   0.326   4.437 -0.5907  0.3831 -0.6336
 3615SOL    HW111658   7.793   0.344   4.476  0.6199  2.5665 -4.0871
 3615SOL    HW211659   7.646   0.378   4.487  0.3802  0.3650  0.6003
 3616SOL     OW11660   4.131   1.656   0.284  0.5119 -0.0834  0.1659
 3616SOL    HW111661   4.201   1.681   0.344  2.0220  2.4722 -2.5450
 3616SOL    HW211662   4.074   1.598   0.336  1.6204  2.1599  4.0775
 3617SOL     OW11663   5.237   1.575   1.705 -0.2998  0.1671 -0.2111
 3617SOL    HW111664   5.259   1.483   1.700 -0.3144  0.1684 -0.2997
 3617SOL    HW211665   5.168   1.580   1.771 -0.0767  0.1558  0.0220
 3618SOL     OW11666   7.390   1.208   0.288  0.9512  0.4025  0.2218
 3618SOL    HW111667   7.304   1.165   0.293  0.9990  0.0074 -1.9885
 3618SOL    HW211668   7.453   1.136   0.287  1.2057  0.6348 -0.2844
 3619SOL     OW11669   1.898   4.350   4.720 -0.0224  0.1106 -0.9503
 3619SOL    HW111670   1.930   4.438   4.740 -0.0786 -0.2502  0.8482
 3619SOL    HW211671   1.976   4.300   4.697  0.3922 -0.0346  0.6605
 3620SOL     OW11672   3.097   5.603   0.070  0.0719 -0.1992  0.0397
 3620SOL    HW111673   3.190   5.622   0.073  0.1067 -0.5404  1.5569
 3620SOL    HW211674   3.059   5.674   0.017  0.7621  1.6807  2.0075
 3621SOL     OW11675   4.390   3.879   3.006 -0.0362  0.5072 -0.0144
 3621SOL    HW111676   4.321   3.870   2.940  2.3006  0.0430 -2.4886
 3621SOL    HW211677   4.438   3.958   2.981 -0.3564  1.5300  2.4021
 3622SOL     OW11678   7.461   1.854   2.339  0.1068 -0.4374 -0.6731
 3622SOL    HW111679   7.459   1.854   2.435 -2.2316  1.6773 -0.6576
 3622SOL    HW211680   7.547   1.888   2.317  0.4175 -0.3179  0.6895
 3623SOL     OW11681   1.287   1.566   5.736 -0.2223 -0.0164 -0.9782
 3623SOL    HW111682   1.274   1.660   5.745  1.0684  0.0071  0.8531
 3623SOL    HW211683   1.265   1.548   5.645 -2.8836  1.6415 -0.7184
 3624SOL     OW11684   2.685   1.727   3.563 -0.4920 -0.2303  0.1815
 3624SOL    HW111685   2.709   1.678   3.485  1.3141  1.4559 -0.3425
 3624SOL    HW211686   2.596   1.758   3.546  0.1176  0.6536 -1.4803
 3625SOL     OW11687   6.085   4.493   0.392  0.0125 -0.1775  0.2256
 3625SOL    HW111688   5.998   4.455   0.394 -0.0254 -0.2094 -1.1736
 3625SOL    HW211689   6.071   4.587   0.404 -0.3667  0.0073 -1.5708
 3626SOL     OW11690   0.490   3.036   5.267  0.8839 -0.2937 -0.6572
 3626SOL    HW111691   0.549   3.101   5.230 -0.2876 -0.5646 -3.1086
 3626SOL    HW211692   0.415   3.035   5.208 -0.9604 -0.9820  1.5873
 3627SOL     OW11693   6.777   2.018   1.237 -0.2929  0.1789 -0.1118
 3627SOL    HW111694   6.700   2.075   1.239 -0.2092  0.2845  0.0453
 3627SOL    HW211695   6.852   2.077   1.232 -0.1550  0.1163  1.0598
 3628SOL     OW11696   4.393   4.425   1.098 -0.5272  0.3172  0.1114
 3628SOL    HW111697   4.375   4.498   1.040 -0.5512 -0.4386 -0.8491
 3628SOL    HW211698   4.455   4.459   1.162 -0.4130  1.1268 -0.4284
 3629SOL     OW11699   7.002   4.051   3.546  0.1716 -0.4378  0.2076
 3629SOL    HW111700   7.057   4.012   3.614 -0.5634 -0.9799  0.4920
 3629SOL    HW211701   7.057   4.051   3.468  0.9142 -0.0894  0.7309
 3630SOL     OW11702   6.465   4.035   5.878 -0.3226 -0.2647 -0.2087
 3630SOL    HW111703   6.380   4.037   5.833  0.0692  0.3119 -0.9283
 3630SOL    HW211704   6.444   4.007   5.967 -1.5899  2.0935  0.2702
 3631SOL     OW11705   5.568   4.753   2.417  0.2329 -0.0194  0.3297
 3631SOL    HW111706   5.651   4.770   2.371  0.2680 -1.4147 -0.1550
 3631SOL    HW211707   5.590   4.686   2.482 -0.2187  0.6322  1.1672
 3632SOL     OW11708   3.019   6.479   2.480 -0.0543 -0.4903 -0.4299
 3632SOL    HW111709   2.983   6.556   2.523  0.3384  1.0774 -2.8426
 3632SOL    HW211710   3.110   6.475   2.509  0.6496  1.4710 -2.3234
 3633SOL     OW11711   4.471   2.398   1.780 -0.4320 -0.3160  0.2819
 3633SOL    HW111712   4.480   2.438   1.866  3.3608  0.9576 -0.6269
 3633SOL    HW211713   4.381   2.417   1.754 -1.0795  0.8284  3.1859
 3634SOL     OW11714   0.157   7.616   0.512 -0.2624  0.0823  0.1633
 3634SOL    HW111715   0.238   7.578   0.547 -0.4675 -1.2354 -0.7236
 3634SOL    HW211716   0.090   7.551   0.531 -0.7895  0.3816 -0.6363
 3635SOL     OW11717   4.710   5.456   2.033  0.1917  0.2116 -0.2157
 3635SOL    HW111718   4.799   5.480   2.008 -0.1570  1.9876  0.1625
 3635SOL    HW211719   4.707   5.470   2.127 -0.5325  0.3152 -0.2532
 3636SOL     OW11720   1.163   3.711   3.375 -0.4726  0.8049  0.2039
 3636SOL    HW111721   1.116   3.696   3.293 -0.3427  0.2770  0.2201
 3636SOL    HW211722   1.256   3.708   3.351 -0.4237 -0.1357  0.4961
 3637SOL     OW11723   6.056   3.135   0.510 -0.0996  0.2393 -0.2710
 3637SOL    HW111724   6.028   3.057   0.557 -0.1954  0.0412 -0.6527
 3637SOL    HW211725   5.983   3.155   0.452 -0.2354  0.8368  0.0979
 3638SOL     OW11726   5.808   1.133   0.181 -0.0493 -0.7123 -0.6519
 3638SOL    HW111727   5.793   1.215   0.228  0.5908 -0.9693  0.0068
 3638SOL    HW211728   5.725   1.086   0.188  0.2594 -1.0630  0.8665
 3639SOL     OW11729   4.764   7.899   4.048 -0.3499 -0.0181  0.1832
 3639SOL    HW111730   4.716   7.923   4.127 -0.4359  2.1552 -0.4926
 3639SOL    HW211731   4.829   7.968   4.037 -1.2904  0.5106 -2.4457
 3640SOL     OW11732   1.155   5.026   0.460 -0.0097  0.5283  0.0852
 3640SOL    HW111733   1.130   4.971   0.534  0.5052 -0.2851 -0.3283
 3640SOL    HW211734   1.216   5.090   0.497 -0.9207  1.0765  0.6479
 3641SOL     OW11735   2.887   2.979   4.207 -0.3442  0.2361 -0.1039
 3641SOL    HW111736   2.929   3.060   4.180 -0.2992 -0.3629 -1.9300
 3641SOL    HW211737   2.959   2.916   4.214 -0.9044 -0.9669 -3.8979
 3642SOL     OW11738   2.129   7.578   1.295 -0.3970  0.2793  0.2493
 3642SOL    HW111739   2.168   7.569   1.381 -1.0166  0.0686  0.5146
 3642SOL    HW211740   2.192   7.630   1.245  0.5764 -0.7259  0.4171
 3643SOL     OW11741   7.203   4.261   1.851 -0.0876  0.3583 -0.2586
 3643SOL    HW111742   7.264   4.238   1.922 -4.0028 -5.7187  1.4776
 3643SOL    HW211743   7.140   4.320   1.892  1.1093  1.7825 -0.4239
 3644SOL     OW11744   0.870   4.324   3.089 -0.1873  0.0301 -0.4985
 3644SOL    HW111745   0.821   4.361   3.015 -0.1265  1.7169  0.2679
 3644SOL    HW211746   0.831   4.366   3.166  2.7549  1.7820  0.1055
 3645SOL     OW11747   1.548   5.245   0.505  0.2962  0.1032 -0.4525
 3645SOL    HW111748   1.550   5.322   0.562  2.2421  2.2924 -3.3234
 3645SOL    HW211749   1.460   5.243   0.469 -0.7357 -0.9029  1.9876
 3646SOL     OW11750   6.583   1.831   2.204 -0.0224  0.2190  0.2007
 3646SOL    HW111751   6.637   1.910   2.209  0.3250 -0.1515  2.7918
 3646SOL    HW211752   6.497   1.860   2.238 -0.2756 -0.1925 -0.0926
 3647SOL     OW11753   0.975   3.356   5.091  0.5282  0.4504 -0.1135
 3647SOL    HW111754   0.954   3.431   5.146 -0.1553  0.3593 -0.2455
 3647SOL    HW211755   0.933   3.375   5.007  0.6459  0.0857 -0.2573
 3648SOL     OW11756   0.319   6.733   4.483  0.9758  0.5682 -0.5413
 3648SOL    HW111757   0.232   6.730   4.523  1.1476 -0.9823 -0.2450
 3648SOL    HW211758   0.366   6.799   4.534  0.0851  1.1591 -0.4783
 3649SOL     OW11759   3.563   6.129   0.178 -0.0900 -0.3448  0.0223
 3649SOL    HW111760   3.556   6.056   0.118 -0.3476 -0.7240  0.5099
 3649SOL    HW211761   3.634   6.105   0.238 -0.7464 -0.5769  0.7077
 3650SOL     OW11762   7.670   6.613   6.232 -0.3125 -0.0144 -0.0082
 3650SOL    HW111763   7.610   6.540   6.245  0.0618 -0.4092 -0.4936
 3650SOL    HW211764   7.668   6.630   6.138  1.2026 -0.7807 -0.1909
 3651SOL     OW11765   0.257   4.127   6.806 -0.3522  0.6439 -0.4599
 3651SOL    HW111766   0.184   4.079   6.768 -1.3179 -0.3741  2.5501
 3651SOL    HW211767   0.313   4.059   6.845  2.4243  1.3690 -2.9712
 3652SOL     OW11768   6.713   0.531   3.070  0.3306  0.3215  0.1745
 3652SOL    HW111769   6.675   0.474   3.003  1.9835 -0.8626  0.2040
 3652SOL    HW211770   6.648   0.530   3.141 -1.3131  1.3845 -1.2779
 3653SOL     OW11771   0.519   1.871   2.987 -0.1177 -0.3919  0.2417
 3653SOL    HW111772   0.475   1.926   3.052  0.8963  1.1028 -0.3085
 3653SOL    HW211773   0.488   1.903   2.903  2.5423  1.2054 -0.1903
 3654SOL     OW11774   7.417   2.640   7.806 -0.3786 -0.7685 -0.5087
 3654SOL    HW111775   7.365   2.598   7.874 -1.5933 -1.2829 -1.7196
 3654SOL    HW211776   7.353   2.660   7.737 -0.2695  4.7663  0.7319
 3655SOL     OW11777   7.095   6.522   5.937  0.3382  0.3136 -0.5196
 3655SOL    HW111778   7.014   6.545   5.891  2.1814  2.7113 -2.7046
 3655SOL    HW211779   7.076   6.539   6.029 -1.5220  1.1922 -1.0322
 3656SOL     OW11780   5.187   2.031   2.747 -0.0123 -0.1697  0.3021
 3656SOL    HW111781   5.237   1.960   2.707 -0.7163 -0.1925 -0.5511
 3656SOL    HW211782   5.193   2.103   2.684 -0.7063 -0.0381  0.3811
 3657SOL     OW11783   5.292   4.944   1.770  0.2029 -0.3072 -0.2910
 3657SOL    HW111784   5.366   4.976   1.822  0.7522  0.4579 -1.5284
 3657SOL    HW211785   5.317   4.856   1.744  0.2350 -0.4256  0.1284
 3658SOL     OW11786   6.106   0.350   5.052 -0.6759 -0.0963 -0.4907
 3658SOL    HW111787   6.184   0.305   5.019 -0.1184  0.3279  0.2158
 3658SOL    HW211788   6.033   0.307   5.009 -0.0581 -0.6519 -0.9949
 3659SOL     OW11789   7.995   2.066   2.304 -0.3741 -0.1111 -0.0794
 3659SOL    HW111790   7.991   2.037   2.213 -0.0376 -0.1981 -0.0670
 3659SOL    HW211791   8.068   2.018   2.341 -0.1097  0.3995  0.0678
 3660SOL     OW11792   4.502   6.158   0.577  0.0009  0.1781 -0.2310
 3660SOL    HW111793   4.483   6.073   0.535  3.3871 -0.3592 -0.8378
 3660SOL    HW211794   4.491   6.222   0.506 -0.1343 -0.0222 -0.3942
 3661SOL     OW11795   3.836   6.261   0.292  0.0947  0.2702  0.1969
 3661SOL    HW111796   3.905   6.236   0.353  0.2040 -0.8752 -0.3743
 3661SOL    HW211797   3.880   6.265   0.207  0.0012  2.0948  0.2150
 3662SOL     OW11798   0.008   3.053   4.156  0.1657 -0.3233  0.1328
 3662SOL    HW111799   0.039   3.060   4.247  1.2952 -1.8132 -0.1192
 3662SOL    HW211800  -0.086   3.039   4.164  0.0475  0.9332  1.0351
 3663SOL     OW11801   0.583   5.571   7.528  0.2909  0.0778  0.7608
 3663SOL    HW111802   0.510   5.622   7.562 -1.0440 -0.2881 -1.4736
 3663SOL    HW211803   0.544   5.490   7.497  2.1859 -1.7211  2.8952
 3664SOL     OW11804   1.655   5.773   5.654 -0.6586  0.3316 -0.0083
 3664SOL    HW111805   1.718   5.742   5.720 -1.6900  1.0265  1.3184
 3664SOL    HW211806   1.674   5.719   5.577  0.0662 -1.0224  1.0808
 3665SOL     OW11807   6.143   2.490   0.712  0.3138  0.1309  0.3797
 3665SOL    HW111808   6.134   2.585   0.715 -0.0194  0.2341 -2.1258
 3665SOL    HW211809   6.233   2.473   0.738  0.2671  1.0923  1.1928
 3666SOL     OW11810   4.925   6.720   5.975 -0.1233  0.4244 -0.0953
 3666SOL    HW111811   4.870   6.713   5.897  1.2550  0.8960 -1.1307
 3666SOL    HW211812   4.884   6.789   6.027 -0.7634  0.4743 -0.6558
 3667SOL     OW11813   7.607   0.400   1.415 -0.4614  0.5244  0.2746
 3667SOL    HW111814   7.637   0.406   1.324  1.9722  2.8534  1.1440
 3667SOL    HW211815   7.512   0.410   1.410 -0.4026  0.1198 -2.0415
 3668SOL     OW11816   3.951   3.537   1.586  0.8581  0.0914 -0.9258
 3668SOL    HW111817   3.966   3.495   1.501  0.3504 -0.8697 -0.5393
 3668SOL    HW211818   3.999   3.483   1.648 -1.0754 -0.8463 -0.2016
 3669SOL     OW11819   5.648   1.636   0.633  0.1173  0.1191  0.4030
 3669SOL    HW111820   5.709   1.710   0.644  0.6428 -0.3320  0.5379
 3669SOL    HW211821   5.659   1.585   0.714 -0.2493 -0.1031  0.3097
 3670SOL     OW11822   7.820   5.646   4.136 -0.1423  0.5371  0.4716
 3670SOL    HW111823   7.772   5.716   4.093 -0.9258 -0.4371 -0.2786
 3670SOL    HW211824   7.757   5.607   4.197 -0.9256 -1.9049 -1.8019
 3671SOL     OW11825   4.864   3.244   7.044  0.0844  0.2373 -0.4091
 3671SOL    HW111826   4.783   3.196   7.031 -0.2591  0.2760  1.4090
 3671SOL    HW211827   4.889   3.225   7.135 -0.2023  3.6296  0.4766
 3672SOL     OW11828   7.821   1.668   7.318  0.2562 -0.1194  0.2130
 3672SOL    HW111829   7.840   1.749   7.271 -2.4541 -0.1174 -0.9761
 3672SOL    HW211830   7.750   1.691   7.378 -2.0396 -2.0339 -1.6415
 3673SOL     OW11831   5.771   6.815   5.490 -0.0992  0.4493 -0.3007
 3673SOL    HW111832   5.774   6.911   5.482 -1.5347  0.6427  1.2057
 3673SOL    HW211833   5.775   6.799   5.584  1.0016 -1.0352 -0.5868
 3674SOL     OW11834   1.014   4.930   0.222  0.3154 -0.1728 -0.2822
 3674SOL    HW111835   1.020   4.836   0.206  1.8512 -0.1351  0.0576
 3674SOL    HW211836   1.061   4.945   0.304 -0.7722  0.7647  0.2009
 3675SOL     OW11837   7.864   4.499   6.874 -0.6680 -0.1053 -0.0281
 3675SOL    HW111838   7.797   4.471   6.935  0.4019 -0.1922  1.1325
 3675SOL    HW211839   7.911   4.568   6.920 -0.6565  0.7350 -1.2583
 3676SOL     OW11840   7.258   0.682   1.175 -0.3117  0.1424  0.3116
 3676SOL    HW111841   7.193   0.749   1.195  2.1293  1.8658  2.9082
 3676SOL    HW211842   7.339   0.730   1.161  1.2696 -2.1655  1.1654
 3677SOL     OW11843   1.097   3.851   1.985  0.2282  0.0129 -0.4714
 3677SOL    HW111844   1.126   3.878   1.898  1.6018  2.5862  0.7237
 3677SOL    HW211845   1.084   3.933   2.032 -0.6886 -1.3357  1.6942
 3678SOL     OW11846   4.447   3.833   0.416 -0.1599  0.5533 -0.1839
 3678SOL    HW111847   4.405   3.758   0.373  0.9640 -1.2366  1.7635
 3678SOL    HW211848   4.374   3.890   0.440 -1.2576 -1.1068  0.5050
 3679SOL     OW11849   3.700   7.572   7.090 -0.0500 -1.0501  0.2654
 3679SOL    HW111850   3.687   7.510   7.019  2.6741 -2.1491  0.6308
 3679SOL    HW211851   3.727   7.518   7.165  0.0627  0.3422  1.2601
 3680SOL     OW11852   4.894   3.521   1.089 -0.0475  0.0891 -0.1348
 3680SOL    HW111853   4.813   3.498   1.043  0.5450  0.3030 -1.2968
 3680SOL    HW211854   4.921   3.605   1.051  1.1099 -0.3317 -0.2697
 3681SOL     OW11855   4.778   2.045   3.302 -0.2737 -0.0105 -0.3551
 3681SOL    HW111856   4.786   1.982   3.374 -2.4639  1.2877  1.0675
 3681SOL    HW211857   4.732   2.119   3.340  0.9026  1.8315 -2.4228
 3682SOL     OW11858   3.401   4.382   6.176  0.2367 -0.2015  0.4829
 3682SOL    HW111859   3.362   4.465   6.203  0.7161  0.0606  0.3823
 3682SOL    HW211860   3.368   4.367   6.087  1.5126  0.7602 -0.1742
 3683SOL     OW11861   2.807   4.298   4.330  0.3842  0.5019  0.4301
 3683SOL    HW111862   2.896   4.311   4.363  0.6003  0.6802 -0.2104
 3683SOL    HW211863   2.819   4.273   4.238 -0.2233  0.4054  0.3738
 3684SOL     OW11864   3.260   0.625   5.708  0.2617 -0.3815 -0.4112
 3684SOL    HW111865   3.182   0.570   5.711 -0.5908  0.7906 -0.6542
 3684SOL    HW211866   3.262   0.659   5.618 -0.7230  2.0721  0.4383
 3685SOL     OW11867   1.836   5.864   4.750  0.2750 -0.0270  0.4288
 3685SOL    HW111868   1.822   5.898   4.839  3.3458  0.9320  0.5926
 3685SOL    HW211869   1.923   5.825   4.753  0.2590 -0.3176 -2.0820
 3686SOL     OW11870   6.163   5.570   3.281 -0.1114  0.2292 -0.1569
 3686SOL    HW111871   6.168   5.574   3.186 -0.6144  0.2348 -0.1832
 3686SOL    HW211872   6.070   5.556   3.300 -0.1345  1.0636  0.3599
 3687SOL     OW11873   3.023   7.182   4.614  0.6770  0.6189  0.6445
 3687SOL    HW111874   3.096   7.234   4.648  1.0576 -0.3603  1.3855
 3687SOL    HW211875   2.952   7.244   4.601  1.1313  1.3241  1.4885
 3688SOL     OW11876   6.815   1.913   5.146 -0.7661 -0.3784 -0.0420
 3688SOL    HW111877   6.725   1.945   5.154 -0.3208  0.5798  1.2343
 3688SOL    HW211878   6.844   1.902   5.236  0.3541 -0.8605 -0.4558
 3689SOL     OW11879   6.739   6.310   5.381  0.7374  0.2662  0.3992
 3689SOL    HW111880   6.777   6.234   5.337 -0.0553 -0.7997  1.5123
 3689SOL    HW211881   6.782   6.311   5.467  0.4230  0.8269  0.5497
 3690SOL     OW11882   2.321   7.201   5.541  0.0180  0.5113  0.1216
 3690SOL    HW111883   2.304   7.108   5.549 -1.7284  0.8687  0.8836
 3690SOL    HW211884   2.311   7.236   5.629  0.1894  1.4837 -0.2320
 3691SOL     OW11885   4.500   2.545   1.992  0.4878  0.2769 -0.3472
 3691SOL    HW111886   4.525   2.636   2.006  0.2437  0.5260 -1.4552
 3691SOL    HW211887   4.581   2.496   2.000  1.3292  1.0325 -3.5026
 3692SOL     OW11888   6.660   6.779   6.186  0.8304  0.1313  0.1765
 3692SOL    HW111889   6.599   6.851   6.173  0.7910  0.2889  1.1598
 3692SOL    HW211890   6.611   6.700   6.163  0.8017  0.3980 -0.6755
 3693SOL     OW11891   5.171   7.426   0.100 -0.2400 -0.0309  0.2401
 3693SOL    HW111892   5.182   7.352   0.042 -1.0800  0.5926 -0.7211
 3693SOL    HW211893   5.117   7.393   0.172 -0.2254 -0.4634  0.0515
 3694SOL     OW11894   2.020   7.643   3.410 -0.0993  0.9887  0.0813
 3694SOL    HW111895   1.950   7.584   3.438  0.8923 -1.0880 -1.6293
 3694SOL    HW211896   2.039   7.696   3.488 -1.6394 -0.3465  1.4159
 3695SOL     OW11897   6.708   0.084   2.391 -0.3692  0.4139 -0.6595
 3695SOL    HW111898   6.671   0.131   2.316 -2.9287  0.9056  0.8384
 3695SOL    HW211899   6.768   0.146   2.432 -1.0424  1.1357 -0.7533
 3696SOL     OW11900   1.148   7.104   5.369  0.5553 -0.2650  0.3174
 3696SOL    HW111901   1.147   7.147   5.454 -0.2461  0.3624  0.0104
 3696SOL    HW211902   1.056   7.080   5.353  0.5740  0.2759 -0.6750
 3697SOL     OW11903   0.688   6.582   3.161 -0.5065 -0.1222  0.3077
 3697SOL    HW111904   0.605   6.621   3.188 -0.3091 -0.2645  1.1215
 3697SOL    HW211905   0.720   6.535   3.239  0.0612 -0.5342 -0.1628
 3698SOL     OW11906   4.709   6.837   3.421 -0.7439 -0.1203  0.0660
 3698SOL    HW111907   4.672   6.782   3.491 -0.8646 -0.3659 -0.1907
 3698SOL    HW211908   4.795   6.799   3.404 -1.2530 -0.8636 -0.8358
 3699SOL     OW11909   1.889   0.875   6.546  0.5099 -0.7433  0.6323
 3699SOL    HW111910   1.945   0.944   6.509 -0.3735 -0.8781 -0.9975
 3699SOL    HW211911   1.877   0.901   6.637  0.9984  0.7431  0.2937
 3700SOL     OW11912   4.897   1.864   1.680 -0.2582  0.0623  0.5742
 3700SOL    HW111913   4.907   1.797   1.612  1.2553 -2.0255  2.7866
 3700SOL    HW211914   4.920   1.946   1.636 -1.8769 -0.8769 -2.1091
 3701SOL     OW11915   7.235   7.477   3.377 -0.0724 -0.5146 -0.3288
 3701SOL    HW111916   7.312   7.525   3.346 -0.0899 -0.1038  0.2658
 3701SOL    HW211917   7.161   7.526   3.344 -0.1196  0.8725  1.7345
 3702SOL     OW11918   2.830   7.816   1.018 -0.5924 -0.3572  0.2821
 3702SOL    HW111919   2.746   7.854   1.043 -0.9762 -0.7685 -0.3680
 3702SOL    HW211920   2.873   7.796   1.101 -1.3088 -0.5298  0.6115
 3703SOL     OW11921   7.157   3.028   2.325 -0.1633 -0.9423 -0.3033
 3703SOL    HW111922   7.213   3.090   2.372 -0.6933 -1.1352  0.6078
 3703SOL    HW211923   7.091   3.082   2.282 -0.2656 -0.8226 -0.0000
 3704SOL     OW11924   3.428   5.493   1.329 -0.3814  0.2539  0.1864
 3704SOL    HW111925   3.450   5.580   1.295  0.8528 -0.0457  0.2065
 3704SOL    HW211926   3.410   5.507   1.422  1.3844  0.2387  0.5406
 3705SOL     OW11927   1.925   1.357   3.945 -0.0303  0.1731  0.0476
 3705SOL    HW111928   1.839   1.391   3.920 -0.1810 -2.5773 -3.5610
 3705SOL    HW211929   1.919   1.342   4.039 -3.4038  0.2693 -0.1106
 3706SOL     OW11930   0.406   0.394   1.529  0.2282  0.4943 -0.3145
 3706SOL    HW111931   0.400   0.311   1.480 -1.8147  0.0446  0.6606
 3706SOL    HW211932   0.430   0.459   1.462 -2.1194 -0.1773 -1.8898
 3707SOL     OW11933   7.688   3.084   4.048  0.0704  0.1053 -0.1182
 3707SOL    HW111934   7.724   3.031   3.977 -1.0160  3.9041 -3.7324
 3707SOL    HW211935   7.599   3.052   4.059  0.7862 -1.6455  0.7865
 3708SOL     OW11936   0.457   5.920   5.091  0.2877 -1.3264  0.1347
 3708SOL    HW111937   0.403   5.881   5.022  0.0773 -1.0911  0.1663
 3708SOL    HW211938   0.417   5.892   5.172  0.2411 -1.1885  0.1588
 3709SOL     OW11939   4.944   3.387   5.341 -0.0894  0.5416  0.6129
 3709SOL    HW111940   4.855   3.423   5.336 -0.8885 -1.3403  1.0631
 3709SOL    HW211941   4.981   3.401   5.254  0.1621  3.7747  1.1758
 3710SOL     OW11942   3.729   2.732   4.517  0.6616 -0.5082 -0.3197
 3710SOL    HW111943   3.682   2.694   4.591 -1.0883  1.4443 -0.3902
 3710SOL    HW211944   3.789   2.795   4.555 -0.1057  0.3631 -0.5541
 3711SOL     OW11945   6.240   2.231   0.415 -0.1507 -0.0448  0.4873
 3711SOL    HW111946   6.325   2.232   0.371 -0.8747  0.1278 -0.9256
 3711SOL    HW211947   6.261   2.213   0.507  1.2672 -2.0758 -0.1989
 3712SOL     OW11948   1.475   6.617   1.777 -0.0578  0.1641 -0.0024
 3712SOL    HW111949   1.399   6.625   1.835  1.1264 -0.4641  1.6697
 3712SOL    HW211950   1.460   6.683   1.708 -1.5813  0.7708  0.8880
 3713SOL     OW11951   1.951   2.269   4.048 -0.2578 -0.7509 -0.6588
 3713SOL    HW111952   2.026   2.305   4.095 -0.7217  1.2103 -1.3453
 3713SOL    HW211953   1.988   2.235   3.967  0.1218 -1.3396 -0.2396
 3714SOL     OW11954   7.628   3.037   1.945 -0.2663 -0.3857  0.2876
 3714SOL    HW111955   7.612   3.129   1.921 -1.5186 -0.8824 -0.8712
 3714SOL    HW211956   7.670   3.042   2.030  2.0592  1.3594 -0.8985
 3715SOL     OW11957   0.444   1.217   1.416 -0.1349 -0.1310  0.5302
 3715SOL    HW111958   0.416   1.301   1.380 -2.3638 -1.1813 -0.2587
 3715SOL    HW211959   0.448   1.159   1.340  0.7217 -0.9262  1.1759
 3716SOL     OW11960   1.440   6.782   3.660  0.0095  0.4536  0.1590
 3716SOL    HW111961   1.401   6.840   3.725  0.3699 -0.0431  0.8243
 3716SOL    HW211962   1.406   6.695   3.682 -0.2210  0.3503 -0.5940
 3717SOL     OW11963   7.310   5.850   0.319  0.1831 -0.3053 -0.0717
 3717SOL    HW111964   7.331   5.763   0.353  0.5437  0.1441  0.8492
 3717SOL    HW211965   7.215   5.848   0.307  0.2830 -1.0901 -0.7985
 3718SOL     OW11966   4.329   3.022   1.340 -0.1675 -0.7867 -0.7056
 3718SOL    HW111967   4.417   3.039   1.374  0.0537 -1.6411 -0.8294
 3718SOL    HW211968   4.270   3.061   1.405  0.3109  0.1531 -0.8374
 3719SOL     OW11969   3.189   7.682   7.270 -0.1019  0.6981  0.3140
 3719SOL    HW111970   3.250   7.713   7.204 -1.1036  0.4718 -0.7319
 3719SOL    HW211971   3.106   7.726   7.250 -0.0538  1.7272  2.2849
 3720SOL     OW11972   3.310   3.813   1.484 -0.3584  0.0649  0.3367
 3720SOL    HW111973   3.276   3.755   1.552 -1.5342  0.3146 -0.0257
 3720SOL    HW211974   3.315   3.758   1.406 -0.5544  0.1970  0.2305
 3721SOL     OW11975   2.235   6.829   2.070 -0.1949 -0.0614  0.5734
 3721SOL    HW111976   2.262   6.885   2.143  0.7801 -0.1796  0.3093
 3721SOL    HW211977   2.317   6.797   2.032 -0.7312 -1.6118  0.6705
 3722SOL     OW11978   3.425   3.894   7.853  0.0698 -0.2702  0.1006
 3722SOL    HW111979   3.361   3.862   7.789  1.0936  0.9790 -1.5497
 3722SOL    HW211980   3.382   3.969   7.894  0.4429  0.5578 -0.9961
 3723SOL     OW11981   4.899   2.343   0.066 -0.1072  0.1068  0.1627
 3723SOL    HW111982   4.972   2.344   0.004 -0.4795  0.9169 -0.2663
 3723SOL    HW211983   4.883   2.250   0.084  0.4792 -0.0996 -0.3828
 3724SOL     OW11984   1.045   4.535   1.763  0.4274  0.5803 -0.0396
 3724SOL    HW111985   1.044   4.626   1.792 -0.0938  0.1277  1.3810
 3724SOL    HW211986   1.124   4.497   1.802 -0.6063 -0.1929  1.3594
 3725SOL     OW11987   5.038   7.085   7.828  0.4034  0.5964 -0.3147
 3725SOL    HW111988   5.013   6.996   7.804  0.7945  0.4797 -0.2912
 3725SOL    HW211989   5.066   7.125   7.746  5.6128 -1.0518  0.4794
 3726SOL     OW11990   4.683   2.970   1.689  0.1880  0.2880 -0.3929
 3726SOL    HW111991   4.601   2.960   1.736 -0.2526 -0.3033 -1.2696
 3726SOL    HW211992   4.727   3.043   1.733  0.2989 -0.9696  1.6295
 3727SOL     OW11993   7.116   6.453   4.886 -0.4064 -0.3569 -0.4881
 3727SOL    HW111994   7.103   6.416   4.798  0.3347 -1.9933  0.0823
 3727SOL    HW211995   7.153   6.382   4.937 -1.3748  0.4058  1.3323
 3728SOL     OW11996   0.695   2.329   1.920 -0.5082 -0.2626  0.3035
 3728SOL    HW111997   0.743   2.263   1.870 -1.9906 -2.0316  1.1407
 3728SOL    HW211998   0.755   2.356   1.989 -0.1937 -1.3938  0.4794
 3729SOL     OW11999   4.401   2.109   7.766  0.3353  0.2401 -0.1177
 3729SOL    HW112000   4.400   2.040   7.700 -0.8246  1.0100 -0.9230
 3729SOL    HW212001   4.354   2.182   7.726 -1.0572  0.4552  1.8367
 3730SOL     OW12002   4.494   3.979   1.155 -0.2469  0.2239  0.3766
 3730SOL    HW112003   4.465   3.999   1.066 -0.0704  1.7044  0.6335
 3730SOL    HW212004   4.573   3.925   1.143 -0.0641  0.6511 -0.3664
 3731SOL     OW12005   1.711   7.115   0.019  0.1226  0.0544 -0.2980
 3731SOL    HW112006   1.618   7.134   0.028 -0.3990 -1.7156 -1.6235
 3731SOL    HW212007   1.754   7.201   0.025 -1.5710  0.8763  0.3805
 3732SOL     OW12008   3.397   0.745   7.570  0.1309  0.2917  0.7608
 3732SOL    HW112009   3.423   0.703   7.652  0.4759 -0.9626  0.0117
 3732SOL    HW212010   3.436   0.691   7.501 -0.2479  1.2729 -0.2399
 3733SOL     OW12011   5.999   5.697   0.868  0.2029 -0.1829  0.1838
 3733SOL    HW112012   5.904   5.704   0.876  0.1044 -0.9759 -0.3033
 3733SOL    HW212013   6.029   5.788   0.868 -0.3961  0.0230  2.1188
 3734SOL     OW12014   5.696   1.786   4.952 -0.0655  0.1557 -0.5331
 3734SOL    HW112015   5.634   1.752   5.017  0.7648 -0.4874 -0.0718
 3734SOL    HW212016   5.747   1.852   5.000  0.9544 -0.7461 -0.3442
 3735SOL     OW12017   2.738   2.844   5.529 -0.3486 -1.0434  0.0414
 3735SOL    HW112018   2.745   2.774   5.594 -1.1271 -2.5740 -1.4739
 3735SOL    HW212019   2.828   2.859   5.500 -0.1966 -1.5850  0.2290
 3736SOL     OW12020   4.788   6.716   6.296  0.5391  0.1732  0.1931
 3736SOL    HW112021   4.802   6.776   6.223 -1.5840  0.1729 -0.2577
 3736SOL    HW212022   4.777   6.773   6.372 -1.9402  0.4435 -0.3115
 3737SOL     OW12023   1.222   5.348   2.075 -0.1073  0.4818 -0.3587
 3737SOL    HW112024   1.260   5.434   2.090  0.5348  0.3026 -0.9232
 3737SOL    HW212025   1.192   5.351   1.984  0.3955 -0.0703 -0.5422
 3738SOL     OW12026   5.830   5.176   5.889 -0.0428 -0.0266  0.1012
 3738SOL    HW112027   5.920   5.185   5.919 -0.4951  0.8561  1.2007
 3738SOL    HW212028   5.838   5.135   5.802  1.4656  1.1190 -0.3131
 3739SOL     OW12029   2.214   6.340   7.651  0.4767  0.2812 -0.5499
 3739SOL    HW112030   2.215   6.410   7.586  0.7496  0.1936 -0.6383
 3739SOL    HW212031   2.251   6.380   7.730  0.5903  0.2500 -0.5871
 3740SOL     OW12032   7.675   4.791   6.386 -0.4574  0.6347  0.1465
 3740SOL    HW112033   7.764   4.763   6.363 -0.8480 -0.9774  0.5504
 3740SOL    HW212034   7.635   4.813   6.302 -0.2369 -0.3554 -0.2290
 3741SOL     OW12035   5.990   1.877   6.364  0.1618 -0.2973 -0.2109
 3741SOL    HW112036   6.005   1.784   6.348 -0.8066 -0.6631  0.9032
 3741SOL    HW212037   6.009   1.920   6.280  1.2425 -1.4137 -0.5441
 3742SOL     OW12038   6.749   6.548   4.688  0.3528  0.0118 -0.0440
 3742SOL    HW112039   6.819   6.580   4.745 -0.5615 -1.0793  1.7216
 3742SOL    HW212040   6.720   6.626   4.640  0.5391  1.1380  1.6398
 3743SOL     OW12041   4.130   5.623   2.315  0.3492 -0.5606 -0.2098
 3743SOL    HW112042   4.183   5.672   2.377 -0.0129 -0.8355  0.3164
 3743SOL    HW212043   4.175   5.539   2.305 -0.2085 -0.9559  0.5593
 3744SOL     OW12044   3.223   6.434   1.614  0.6490  0.1276  0.6068
 3744SOL    HW112045   3.173   6.509   1.647  0.0314  0.5264 -1.1885
 3744SOL    HW212046   3.302   6.433   1.667  0.9135  2.3664  0.3111
 3745SOL     OW12047   5.003   3.630   6.633  0.0400 -0.0752  0.3245
 3745SOL    HW112048   5.080   3.683   6.611  0.0081  0.1388  0.7294
 3745SOL    HW212049   4.986   3.579   6.554  1.0610 -0.6858  0.5025
 3746SOL     OW12050   7.159   3.123   0.480 -0.4920 -0.0207  0.5742
 3746SOL    HW112051   7.182   3.138   0.388 -0.3776  0.0543  0.6154
 3746SOL    HW212052   7.071   3.159   0.489 -1.0002 -1.1413  0.1852
 3747SOL     OW12053   5.579   2.760   6.292  0.3258 -0.3780 -0.4694
 3747SOL    HW112054   5.605   2.851   6.283  1.4221 -0.4856  1.2616
 3747SOL    HW212055   5.530   2.757   6.374  0.4345 -1.3621 -0.4300
 3748SOL     OW12056   7.454   5.475   2.704  0.4085 -0.6249  0.1709
 3748SOL    HW112057   7.360   5.472   2.719  0.2091  0.0873 -0.8628
 3748SOL    HW212058   7.476   5.389   2.668  0.1314 -0.7536  0.3139
 3749SOL     OW12059   5.617   7.582   4.948 -0.2013  0.5648 -0.4811
 3749SOL    HW112060   5.628   7.636   4.870  2.1775 -0.3893 -0.8508
 3749SOL    HW212061   5.700   7.591   4.995 -1.5575  1.0355  1.8892
 3750SOL     OW12062   1.840   0.082   4.124  0.5553 -0.4431  0.0506
 3750SOL    HW112063   1.912   0.051   4.179 -1.0431  0.6454  2.8507
 3750SOL    HW212064   1.867   0.169   4.096 -0.7603  1.1434  3.3955
 3751SOL     OW12065   0.984   1.249   6.135  0.4887 -0.0338  0.3308
 3751SOL    HW112066   0.919   1.252   6.064  0.2666  0.1689  0.5391
 3751SOL    HW212067   1.044   1.320   6.116 -1.0664  1.7136  1.7538
 3752SOL     OW12068   7.425   2.564   5.940  0.3448  0.0490  0.4582
 3752SOL    HW112069   7.376   2.512   5.876  1.6503 -1.9434  1.0320
 3752SOL    HW212070   7.377   2.553   6.022  0.9777 -0.8062  0.7228
 3753SOL     OW12071   4.126   3.666   2.029 -0.6976 -0.7034  0.2376
 3753SOL    HW112072   4.154   3.579   2.000  0.2348  0.0099 -1.0505
 3753SOL    HW212073   4.100   3.710   1.948  1.4896  1.1755  0.5341
 3754SOL     OW12074   6.092   1.471   4.752  0.6488  0.5253 -0.1527
 3754SOL    HW112075   6.111   1.437   4.840  0.1810  0.4843 -0.0637
 3754SOL    HW212076   6.100   1.566   4.761 -1.6615  0.6856  0.5129
 3755SOL     OW12077   5.705   3.498   0.669  0.3693 -0.0415 -0.6166
 3755SOL    HW112078   5.761   3.424   0.693 -1.5821 -1.2460  0.2879
 3755SOL    HW212079   5.764   3.558   0.623  2.3033 -1.4794 -0.0818
 3756SOL     OW12080   7.253   0.406   6.586  0.1788 -0.2818  0.6418
 3756SOL    HW112081   7.217   0.483   6.542 -1.3885 -1.4576 -0.1717
 3756SOL    HW212082   7.337   0.436   6.621 -0.3642  1.7692  0.2617
 3757SOL     OW12083   6.991   6.025   7.214 -0.5720  0.0989 -0.1620
 3757SOL    HW112084   6.918   5.970   7.242 -1.0665  1.2060  0.7724
 3757SOL    HW212085   7.049   6.030   7.290  0.4917 -0.7660 -0.8942
 3758SOL     OW12086   5.493   7.714   3.065 -0.0574  0.3025 -0.4477
 3758SOL    HW112087   5.564   7.770   3.093 -0.4296  0.5792 -0.0498
 3758SOL    HW212088   5.504   7.633   3.116 -1.2709  1.1500  1.1910
 3759SOL     OW12089   6.284   5.958   3.983  0.2840 -0.7411 -0.7258
 3759SOL    HW112090   6.269   6.032   3.925  0.5766 -1.0419 -1.1952
 3759SOL    HW212091   6.343   5.992   4.051 -0.7022 -0.1743 -0.1501
 3760SOL     OW12092   4.553   7.712   3.046  0.5170 -0.1983  0.1699
 3760SOL    HW112093   4.637   7.727   3.004  0.8414  0.4659  1.0514
 3760SOL    HW212094   4.567   7.636   3.102  0.5741  0.0051  0.4329
 3761SOL     OW12095   5.531   4.340   1.655  0.3191  0.2130 -0.1814
 3761SOL    HW112096   5.589   4.416   1.657 -1.9563  2.0148  0.0348
 3761SOL    HW212097   5.524   4.313   1.747  0.2507  0.4637 -0.1117
 3762SOL     OW12098   3.176   7.401   5.408 -0.1255 -0.3517 -0.5418
 3762SOL    HW112099   3.115   7.387   5.480 -0.0724 -0.2458 -0.4756
 3762SOL    HW212100   3.232   7.324   5.408 -1.1032 -1.0862 -1.4448
 3763SOL     OW12101   5.851   5.661   1.736  0.5432  0.0641  0.6748
 3763SOL    HW112102   5.931   5.615   1.708  0.8186  1.1361 -0.3667
 3763SOL    HW212103   5.782   5.622   1.683  0.4504 -0.5404  1.2388
 3764SOL     OW12104   0.149   1.628   4.203  0.0792 -0.2125  0.4435
 3764SOL    HW112105   0.144   1.544   4.158 -0.2652  0.3595 -0.5986
 3764SOL    HW212106   0.222   1.618   4.263  0.0071 -1.2780  0.3665
 3765SOL     OW12107   5.219   2.497   1.660  0.4585 -0.4051 -0.7946
 3765SOL    HW112108   5.185   2.572   1.612  1.5688  0.6834  0.0824
 3765SOL    HW212109   5.314   2.506   1.654  0.6216 -0.2477  1.5651
 3766SOL     OW12110   1.726   2.860   4.072 -0.1888  0.1449  0.2646
 3766SOL    HW112111   1.667   2.819   4.135 -0.2583  0.3978  0.3670
 3766SOL    HW212112   1.796   2.796   4.060 -0.2451  0.0374  0.4973
 3767SOL     OW12113   3.399   5.259   0.660 -0.4414 -0.4862 -0.0418
 3767SOL    HW112114   3.352   5.338   0.633 -0.8298 -1.0357 -1.0154
 3767SOL    HW212115   3.331   5.201   0.696 -0.0295 -0.0408  1.4792
 3768SOL     OW12116   2.834   5.704   4.524  0.7635  0.0777  0.1258
 3768SOL    HW112117   2.840   5.798   4.537  1.1613  0.0055  0.4624
 3768SOL    HW212118   2.795   5.694   4.436  0.4796  0.5490  0.1988
 3769SOL     OW12119   4.323   0.212   3.867  0.3022 -0.0405 -0.0865
 3769SOL    HW112120   4.342   0.236   3.776  0.6988 -0.4362 -0.1106
 3769SOL    HW212121   4.400   0.242   3.916  1.1519 -1.9402 -0.2308
 3770SOL     OW12122   3.604   5.809   3.731 -0.0387  0.0734 -0.2119
 3770SOL    HW112123   3.670   5.876   3.750 -0.2421  0.7280 -1.7540
 3770SOL    HW212124   3.650   5.726   3.746  0.9660  0.5245 -0.7012
 3771SOL     OW12125   5.443   6.806   5.130 -0.1913 -0.3451 -0.4684
 3771SOL    HW112126   5.481   6.886   5.093 -0.1996 -0.7326 -1.3139
 3771SOL    HW212127   5.433   6.826   5.223 -0.2368  0.6539 -0.6799
 3772SOL     OW12128   0.306   2.457   4.936 -0.0221  0.0285 -0.0937
 3772SOL    HW112129   0.231   2.435   4.881  0.6482 -1.6975 -0.3577
 3772SOL    HW212130   0.379   2.408   4.898  1.0586  1.0290  0.6565
 3773SOL     OW12131   4.100   6.165   2.368 -0.3232  0.2777  0.1172
 3773SOL    HW112132   4.093   6.153   2.274 -0.9960  1.7750 -0.0276
 3773SOL    HW212133   4.013   6.143   2.402  0.4197 -2.0231  0.5927
 3774SOL     OW12134   1.737   7.291   4.173  0.1775  0.4689 -0.4397
 3774SOL    HW112135   1.712   7.263   4.261 -2.4081  1.1983 -0.9044
 3774SOL    HW212136   1.691   7.231   4.114  1.3206  0.4331 -1.3123
 3775SOL     OW12137   7.441   6.642   2.668  0.2492  0.2879  0.1221
 3775SOL    HW112138   7.512   6.593   2.709  1.7563  1.2369 -1.2758
 3775SOL    HW212139   7.412   6.586   2.596 -0.8017 -0.3418  1.0301
 3776SOL     OW12140   3.373   6.127   6.554 -0.2767  0.3338 -0.7076
 3776SOL    HW112141   3.461   6.101   6.531  0.1888  0.5694  0.7370
 3776SOL    HW212142   3.365   6.106   6.648 -2.1962 -0.9200 -1.1076
 3777SOL     OW12143   4.214   4.605   6.981  0.2187 -0.1267  0.5123
 3777SOL    HW112144   4.174   4.691   6.965  0.9876  0.6385  2.5113
 3777SOL    HW212145   4.147   4.542   6.955 -0.4882  1.0623 -0.6495
 3778SOL     OW12146   1.716   2.523   3.427 -0.6618 -0.2305  0.6012
 3778SOL    HW112147   1.694   2.467   3.501  1.0777 -3.1502 -0.9992
 3778SOL    HW212148   1.812   2.523   3.425 -0.6878 -0.6342 -1.9556
 3779SOL     OW12149   0.941   1.803   0.941  0.1730 -0.6342 -0.6385
 3779SOL    HW112150   0.925   1.719   0.982  0.0145 -0.3288 -0.0807
 3779SOL    HW212151   0.869   1.859   0.969  1.4349  0.3321  0.7745
 3780SOL     OW12152   4.959   5.476   1.957 -0.6145 -0.4327  0.3197
 3780SOL    HW112153   5.015   5.470   2.035 -1.4511  1.1165  1.0533
 3780SOL    HW212154   5.002   5.541   1.902 -2.1349  1.4650  1.2994
 3781SOL     OW12155   7.979   4.694   6.602 -0.4380  0.1817 -0.0454
 3781SOL    HW112156   8.050   4.713   6.663 -1.4132 -1.2168  1.5553
 3781SOL    HW212157   7.970   4.599   6.604 -1.3738  0.2275 -1.3586
 3782SOL     OW12158   7.201   0.076   6.225  1.0015  0.4965 -0.1943
 3782SOL    HW112159   7.266   0.109   6.162  0.1575 -0.4248 -1.5706
 3782SOL    HW212160   7.158   0.004   6.179  0.0322  0.1244  1.2766
 3783SOL     OW12161   0.775   2.730   0.233  0.5429  0.2379 -0.0847
 3783SOL    HW112162   0.824   2.691   0.161 -1.5460 -0.7168 -1.0387
 3783SOL    HW212163   0.735   2.655   0.278 -1.1063  1.0510 -0.1569
 3784SOL     OW12164   1.982   7.446   4.789  0.2765  0.9881 -0.3139
 3784SOL    HW112165   1.900   7.419   4.748  0.4224 -0.7129  0.4621
 3784SOL    HW212166   2.048   7.430   4.721  0.5634 -2.1447  0.6096
 3785SOL     OW12167   7.036   3.344   7.251  0.2461  0.0395  0.1710
 3785SOL    HW112168   7.065   3.359   7.161  0.3615 -1.1284  0.0018
 3785SOL    HW212169   7.056   3.252   7.268 -0.8684 -0.0686  0.9909
 3786SOL     OW12170   3.843   1.860   1.403  0.0730  0.1507 -0.7076
 3786SOL    HW112171   3.823   1.865   1.309  0.6523  0.6169 -0.8095
 3786SOL    HW212172   3.760   1.875   1.446 -0.4764 -1.4513 -1.1541
 3787SOL     OW12173   2.935   4.281   7.916  0.1440  0.3927  0.1358
 3787SOL    HW112174   2.847   4.270   7.952 -0.3708 -0.2468 -1.2937
 3787SOL    HW212175   2.990   4.297   7.993 -0.9539 -0.8472  1.2062
 3788SOL     OW12176   6.960   4.801   0.566 -0.7697 -0.1367 -0.2869
 3788SOL    HW112177   6.885   4.837   0.518 -0.5143  2.8741  1.4814
 3788SOL    HW212178   7.036   4.830   0.517 -0.5759  1.5019  0.9523
 3789SOL     OW12179   5.879   3.910   6.599  0.5045 -0.1246 -0.7955
 3789SOL    HW112180   5.940   3.947   6.662 -1.3620  2.8572 -0.5976
 3789SOL    HW212181   5.934   3.863   6.536  2.5314 -1.5623  1.9813
 3790SOL     OW12182   0.582   0.295   1.742 -0.0263  0.1460 -0.1834
 3790SOL    HW112183   0.517   0.319   1.676  0.3790  0.0630 -0.6150
 3790SOL    HW212184   0.665   0.291   1.694  0.0538 -1.2605  0.0726
 3791SOL     OW12185   2.427   2.245   2.933  0.4587  0.1046 -0.5096
 3791SOL    HW112186   2.349   2.208   2.974  2.4067 -0.4643  2.9230
 3791SOL    HW212187   2.421   2.339   2.950  0.9684 -0.0596  0.6656
 3792SOL     OW12188   2.273   4.054   1.266 -0.7435  0.2064 -0.6812
 3792SOL    HW112189   2.315   3.973   1.296 -0.1899  0.3073 -1.1748
 3792SOL    HW212190   2.181   4.042   1.287 -0.7214 -0.7094 -1.0773
 3793SOL     OW12191   5.723   0.281   1.624  0.0637  0.0306 -0.3527
 3793SOL    HW112192   5.742   0.335   1.701 -1.5620  2.9121 -1.8666
 3793SOL    HW212193   5.787   0.308   1.558  0.3448 -1.1757 -0.5918
 3794SOL     OW12194   1.996   3.824   0.678  0.5533  0.2817 -0.1416
 3794SOL    HW112195   1.932   3.781   0.622  0.7773 -0.8732  0.4699
 3794SOL    HW212196   1.997   3.772   0.758  1.0887  1.2281  0.4836
 3795SOL     OW12197   1.955   7.278   6.747 -0.4392  0.6094 -0.3094
 3795SOL    HW112198   2.010   7.357   6.750  1.4922 -0.6079 -2.2070
 3795SOL    HW212199   1.886   7.300   6.685  0.1610  0.7913 -0.9223
 3796SOL     OW12200   2.624   7.953   3.421 -0.0641  0.3814  0.0408
 3796SOL    HW112201   2.642   7.909   3.505  2.2628 -0.8092 -1.0075
 3796SOL    HW212202   2.693   8.019   3.414 -0.5936  0.8601 -0.6672
 3797SOL     OW12203   3.767   6.286   3.417  0.2501  0.2532  0.8054
 3797SOL    HW112204   3.722   6.327   3.343 -0.4747  0.0117  1.1114
 3797SOL    HW212205   3.842   6.242   3.377 -0.4333 -0.3162  0.1348
 3798SOL     OW12206   1.911   7.570   0.595  0.2411 -0.2402  0.1728
 3798SOL    HW112207   1.933   7.659   0.620 -1.5628  0.1354  0.4592
 3798SOL    HW212208   1.925   7.518   0.674 -1.7389  0.3101  0.8954
 3799SOL     OW12209   3.668   1.740   5.711  0.0686 -0.0069 -0.0504
 3799SOL    HW112210   3.712   1.732   5.796  0.7956 -0.6516 -0.4755
 3799SOL    HW212211   3.656   1.650   5.681  1.1713  0.2414 -1.3023
 3800SOL     OW12212   7.996   2.150   6.646  0.9777 -0.2111 -0.4191
 3800SOL    HW112213   7.951   2.188   6.722 -1.3627 -2.2103 -0.7186
 3800SOL    HW212214   8.016   2.225   6.590 -2.0753  0.8066 -0.2654
 3801SOL     OW12215   2.106   2.504   7.458  0.5544  0.6880  0.2107
 3801SOL    HW112216   2.160   2.511   7.537 -0.4172 -1.4917  1.1153
 3801SOL    HW212217   2.151   2.439   7.404 -0.4302 -0.1626  0.3934
 3802SOL     OW12218   3.021   0.711   4.196 -0.0700 -0.0486  0.2697
 3802SOL    HW112219   3.073   0.791   4.210 -0.5179  0.4530 -0.8535
 3802SOL    HW212220   2.962   0.707   4.271 -0.6200  1.1348 -0.0847
 3803SOL     OW12221   1.697   5.087   5.953  0.0314  0.0224  0.1107
 3803SOL    HW112222   1.635   5.158   5.940  1.0771  1.2153  1.5403
 3803SOL    HW212223   1.643   5.012   5.977 -1.1333  0.1304 -2.0427
 3804SOL     OW12224   4.323   1.896   5.623  0.3475 -0.0292 -0.3303
 3804SOL    HW112225   4.344   1.823   5.682  0.4653  0.4044  0.1666
 3804SOL    HW212226   4.299   1.968   5.681 -2.2736 -0.4154 -0.8788
 3805SOL     OW12227   7.693   1.274   7.126  0.0956 -0.0405  0.0553
 3805SOL    HW112228   7.604   1.244   7.105 -0.7207  1.6539  0.9584
 3805SOL    HW212229   7.738   1.196   7.157 -1.5531 -0.6151  1.0759
 3806SOL     OW12230   1.812   5.560   7.330 -0.3352  0.1969  0.2391
 3806SOL    HW112231   1.865   5.612   7.270  2.0060 -2.5244 -0.1519
 3806SOL    HW212232   1.834   5.593   7.417 -1.0107  1.7158 -0.1574
 3807SOL     OW12233   0.787   1.179   6.678  0.1742 -0.4722 -0.0877
 3807SOL    HW112234   0.802   1.090   6.708  1.1621  0.1577  1.3601
 3807SOL    HW212235   0.827   1.182   6.591  0.5192 -1.3148  0.0386
 3808SOL     OW12236   4.478   6.438   2.715  0.5620  0.0292  0.1217
 3808SOL    HW112237   4.419   6.381   2.665  1.4889 -1.2067  0.4126
 3808SOL    HW212238   4.504   6.386   2.791 -0.0932  1.5599  1.4340
 3809SOL     OW12239   5.135   0.990   6.999  0.1229 -0.6680 -0.0352
 3809SOL    HW112240   5.083   1.046   7.058  1.1082 -0.9753  1.1482
 3809SOL    HW212241   5.184   1.051   6.944  1.2864 -0.3428  1.3305
 3810SOL     OW12242   1.441   5.483   6.834 -0.4184  0.1993  0.5122
 3810SOL    HW112243   1.489   5.463   6.754  0.5970  1.5180  0.7672
 3810SOL    HW212244   1.350   5.466   6.812 -0.0630 -0.2751 -0.6591
 3811SOL     OW12245   5.435   0.586   5.507 -0.2848  0.4829 -0.5223
 3811SOL    HW112246   5.401   0.497   5.497 -2.0824  1.1378 -0.4153
 3811SOL    HW212247   5.518   0.575   5.554 -0.3618 -1.1526 -0.7438
 3812SOL     OW12248   4.705   4.369   2.199 -0.3288 -0.0022  0.4706
 3812SOL    HW112249   4.637   4.430   2.171 -1.2476 -0.5698  1.4266
 3812SOL    HW212250   4.703   4.300   2.132  0.9256  1.1369 -0.7814
 3813SOL     OW12251   0.997   1.855   4.829 -0.1412  0.0399  0.3606
 3813SOL    HW112252   1.029   1.871   4.918 -0.1094  1.4827  0.1059
 3813SOL    HW212253   1.000   1.760   4.819  0.0718 -0.1202  1.8205
 3814SOL     OW12254   0.230   0.764   2.097 -0.2835  0.6039 -0.2075
 3814SOL    HW112255   0.299   0.824   2.126  0.0409  0.8809 -1.5048
 3814SOL    HW212256   0.150   0.818   2.098 -0.3048  0.5608  0.3460
 3815SOL     OW12257   5.871   1.136   0.481  0.2417  0.0904  0.1990
 3815SOL    HW112258   5.857   1.118   0.388  2.0940 -1.0923  0.1090
 3815SOL    HW212259   5.798   1.192   0.507 -0.2754  0.4535 -1.9747
 3816SOL     OW12260   2.123   5.345   5.901  0.5016  0.0685  0.1211
 3816SOL    HW112261   2.086   5.325   5.815 -1.6981  1.4247  0.7177
 3816SOL    HW212262   2.207   5.387   5.882 -0.5763  1.5733 -1.4190
 3817SOL     OW12263   7.518   5.085   4.532 -0.4158 -0.0986 -0.0240
 3817SOL    HW112264   7.502   5.152   4.598 -0.2417 -2.2617  2.3063
 3817SOL    HW212265   7.607   5.103   4.501  0.1447 -0.0570  1.5710
 3818SOL     OW12266   4.359   5.248   1.336 -0.5227 -0.0128 -0.0370
 3818SOL    HW112267   4.277   5.267   1.292 -0.6105 -0.3664 -0.0288
 3818SOL    HW212268   4.380   5.157   1.311 -0.2282  0.0146  0.1019
 3819SOL     OW12269   5.166   1.580   3.466 -0.0295  0.3943  0.6572
 3819SOL    HW112270   5.181   1.645   3.397 -0.9697  0.5154  0.5534
 3819SOL    HW212271   5.159   1.631   3.546 -2.0937  0.5744  0.3953
 3820SOL     OW12272   0.239   1.161   2.535  0.1740 -0.2877 -0.2326
 3820SOL    HW112273   0.331   1.141   2.516  0.5918  1.9608 -0.7466
 3820SOL    HW212274   0.223   1.121   2.621  1.4915 -1.0951 -0.3487
 3821SOL     OW12275   0.011   4.116   7.363  0.2186  0.1206  0.3135
 3821SOL    HW112276  -0.069   4.166   7.345 -0.4460 -1.4631 -1.1970
 3821SOL    HW212277   0.018   4.116   7.458 -1.9042 -0.2197  0.4938
 3822SOL     OW12278   2.463   2.826   3.173 -0.0468 -0.4031 -0.3770
 3822SOL    HW112279   2.496   2.915   3.162 -0.3252 -0.3401 -0.7321
 3822SOL    HW212280   2.385   2.836   3.228 -1.2207 -0.1838 -2.0484
 3823SOL     OW12281   4.066   2.897   6.931 -0.2641  0.5260 -0.9394
 3823SOL    HW112282   4.117   2.851   6.997 -0.9125  1.6375  0.3681
 3823SOL    HW212283   4.130   2.952   6.886  0.2079 -0.3408 -1.3251
 3824SOL     OW12284   7.138   6.572   1.130 -0.1541 -0.7479 -0.4430
 3824SOL    HW112285   7.091   6.493   1.102 -1.0058 -0.7295  0.9168
 3824SOL    HW212286   7.195   6.593   1.056 -0.6375 -2.0732 -1.2088
 3825SOL     OW12287   1.858   3.109   5.977  0.3819  0.0930  0.4524
 3825SOL    HW112288   1.810   3.083   6.056  1.1587 -0.0056  0.8969
 3825SOL    HW212289   1.871   3.028   5.929 -0.3678  0.1974  0.0599
 3826SOL     OW12290   6.371   3.978   1.033 -0.0335  0.0934  0.1937
 3826SOL    HW112291   6.452   4.026   1.015 -0.6606  1.4695  0.9189
 3826SOL    HW212292   6.396   3.886   1.028  1.7246  0.4988  1.0593
 3827SOL     OW12293   6.192   7.905   4.508  0.7404  0.2828  0.1031
 3827SOL    HW112294   6.189   7.811   4.525 -0.6314  0.3073  0.0429
 3827SOL    HW212295   6.248   7.914   4.431  1.8151 -0.3729  0.7892
 3828SOL     OW12296   3.799   3.137   6.056 -0.5674 -0.1181 -0.0821
 3828SOL    HW112297   3.836   3.134   5.968 -1.7498 -0.6413 -0.5836
 3828SOL    HW212298   3.843   3.067   6.103 -0.6754 -0.5233 -0.5727
 3829SOL     OW12299   5.568   1.669   2.539 -0.6023 -0.5410 -0.2960
 3829SOL    HW112300   5.563   1.711   2.453  0.6814 -0.1938 -0.2111
 3829SOL    HW212301   5.517   1.588   2.529 -0.6591 -0.3926 -1.3067
 3830SOL     OW12302   2.846   2.221   2.849 -0.3996 -0.0169  0.3303
 3830SOL    HW112303   2.843   2.222   2.753  0.1931 -1.7319  0.2856
 3830SOL    HW212304   2.766   2.267   2.876 -0.5592  0.4816 -0.9784
 3831SOL     OW12305   0.502   7.628   2.259  0.2855 -0.3067  0.0416
 3831SOL    HW112306   0.506   7.718   2.291  0.7236  0.0163 -0.8988
 3831SOL    HW212307   0.532   7.575   2.333  0.2472  0.3356  0.5225
 3832SOL     OW12308   1.645   1.232   6.573  0.2412  0.1689  0.0031
 3832SOL    HW112309   1.732   1.205   6.543  0.2458 -0.3085  0.4551
 3832SOL    HW212310   1.658   1.259   6.664  0.2320  1.6510 -0.4251
 3833SOL     OW12311   6.074   7.821   0.531 -0.2858 -0.8245  0.1742
 3833SOL    HW112312   6.048   7.867   0.611 -0.7066 -0.2069 -0.3092
 3833SOL    HW212313   6.001   7.837   0.470  0.6700 -0.1203 -0.7882
 3834SOL     OW12314   3.566   4.147   6.534  0.5901 -0.5317 -0.5422
 3834SOL    HW112315   3.541   4.157   6.626  2.3560 -2.7461  0.2214
 3834SOL    HW212316   3.623   4.221   6.516 -0.2889  0.2772 -0.0731
 3835SOL     OW12317   0.097   2.951   3.779  0.1960 -0.4901 -0.1779
 3835SOL    HW112318   0.061   3.023   3.831  1.2109  0.5961 -0.9538
 3835SOL    HW212319   0.172   2.920   3.829  0.0853 -0.6475 -0.1092
 3836SOL     OW12320   7.943   7.051   1.979 -0.5576 -0.0289  0.6683
 3836SOL    HW112321   8.017   6.991   1.975 -0.7903 -0.4539  2.3654
 3836SOL    HW212322   7.960   7.105   2.056 -0.6342  1.7081 -0.5135
 3837SOL     OW12323   5.715   2.104   5.933 -0.1291 -0.0120 -0.8718
 3837SOL    HW112324   5.624   2.091   5.958 -0.0939  1.6270  0.1545
 3837SOL    HW212325   5.740   2.187   5.973  1.6324 -0.1292 -1.6638
 3838SOL     OW12326   0.918   3.148   1.599  0.2797  0.4940  0.0008
 3838SOL    HW112327   1.000   3.105   1.573  0.1921 -0.7369  1.6613
 3838SOL    HW212328   0.850   3.102   1.549  0.4376  0.4070 -0.1365
 3839SOL     OW12329   1.551   0.731   5.883  0.3002  0.3744 -0.0997
 3839SOL    HW112330   1.478   0.669   5.891  0.5938 -0.0464 -0.6725
 3839SOL    HW212331   1.602   0.717   5.963  1.7386 -1.9163 -1.3509
 3840SOL     OW12332   0.525   2.945   6.168 -0.1222  0.0583  0.1210
 3840SOL    HW112333   0.566   3.031   6.177 -4.2660  2.0328  0.9801
 3840SOL    HW212334   0.515   2.914   6.258 -1.0918 -0.0854 -0.0320
 3841SOL     OW12335   1.216   0.996   6.476  0.0478 -0.4507  0.1375
 3841SOL    HW112336   1.291   1.041   6.437  0.7544 -2.7713 -1.2902
 3841SOL    HW212337   1.156   0.982   6.402 -1.9000  1.5356  1.2952
 3842SOL     OW12338   6.254   5.929   1.769  0.4768 -0.3537  0.0428
 3842SOL    HW112339   6.203   5.935   1.850  0.8512 -1.1962  0.3445
 3842SOL    HW212340   6.345   5.927   1.799  0.5829 -1.3861 -0.3647
 3843SOL     OW12341   5.151   1.499   0.418 -0.0958 -0.5485 -0.1264
 3843SOL    HW112342   5.128   1.469   0.330 -0.5823  0.6493 -0.4255
 3843SOL    HW212343   5.070   1.539   0.451  0.2186 -0.5790  0.6802
 3844SOL     OW12344   6.351   3.002   5.544 -0.3634 -0.2735 -0.6194
 3844SOL    HW112345   6.288   3.036   5.481  0.2236 -0.0869 -1.1127
 3844SOL    HW212346   6.431   2.990   5.494  0.1207 -0.1031  0.0920
 3845SOL     OW12347   3.341   4.638   1.824  0.3173  0.5682  0.0919
 3845SOL    HW112348   3.388   4.555   1.818 -2.6474 -1.2439  0.9060
 3845SOL    HW212349   3.387   4.685   1.894  0.8930 -1.1773  0.9374
 3846SOL     OW12350   2.294   3.691   5.488 -0.4866  0.2484 -0.2832
 3846SOL    HW112351   2.380   3.704   5.449 -1.3351  0.9107 -1.9817
 3846SOL    HW212352   2.309   3.702   5.582  1.1994  0.7867 -0.5897
 3847SOL     OW12353   6.315   3.098   5.894  0.0717 -0.5346  0.1977
 3847SOL    HW112354   6.359   3.177   5.864  0.7840 -0.9423  0.1568
 3847SOL    HW212355   6.386   3.036   5.911 -0.3409 -0.4738  2.2630
 3848SOL     OW12356   4.332   6.345   2.261 -0.2767 -0.3918  0.3001
 3848SOL    HW112357   4.254   6.318   2.311 -0.1041  2.0546  1.9466
 3848SOL    HW212358   4.309   6.431   2.226  1.5390  0.1370  0.4023
 3849SOL     OW12359   3.353   0.046   1.574  0.1846  0.1101  0.0191
 3849SOL    HW112360   3.429   0.100   1.597  0.8395 -1.2773  1.1472
 3849SOL    HW212361   3.279   0.091   1.614  0.7157  0.2331  0.8734
 3850SOL     OW12362   4.229   6.889   4.633 -0.4597 -0.0819 -0.1135
 3850SOL    HW112363   4.144   6.930   4.643 -0.3865  0.1492 -0.4432
 3850SOL    HW212364   4.291   6.953   4.669 -0.3765 -0.0382 -0.3341
 3851SOL     OW12365   1.593   0.655   0.960 -0.4456  0.1852  0.6992
 3851SOL    HW112366   1.660   0.603   1.005  0.2812  1.7209  1.4518
 3851SOL    HW212367   1.622   0.657   0.868  1.1594  1.7130  1.2032
 3852SOL     OW12368   1.554   1.396   3.133  0.3764 -0.2429 -0.1718
 3852SOL    HW112369   1.493   1.324   3.147 -1.0104  1.0391  0.6271
 3852SOL    HW212370   1.551   1.413   3.039  0.1674 -0.7568 -0.2594
 3853SOL     OW12371   2.928   4.735   5.032 -0.0590  0.0362  0.3347
 3853SOL    HW112372   2.854   4.731   5.093 -0.7725  0.1412 -0.5094
 3853SOL    HW212373   2.973   4.817   5.054 -0.1904 -0.0305  0.8542
 3854SOL     OW12374   4.805   4.305   7.038  0.2891  0.3767  0.4785
 3854SOL    HW112375   4.751   4.269   6.967  0.1100 -0.8361  1.2067
 3854SOL    HW212376   4.812   4.398   7.019  2.0621 -0.2868 -2.3327
 3855SOL     OW12377   4.777   1.488   5.057 -0.0978 -0.0535  0.5286
 3855SOL    HW112378   4.792   1.527   5.143 -0.9858 -0.7287  0.9982
 3855SOL    HW212379   4.811   1.398   5.065 -0.8204 -0.3409  0.3938
 3856SOL     OW12380   1.297   0.703   4.990  0.4848  0.1072  0.9963
 3856SOL    HW112381   1.238   0.642   5.035 -0.8531  0.4070 -0.2838
 3856SOL    HW212382   1.253   0.721   4.907  2.2207  0.6432  0.1672
 3857SOL     OW12383   1.175   3.842   1.721 -0.5060  0.5512 -0.5446
 3857SOL    HW112384   1.235   3.908   1.685 -0.3333  1.2265  0.9638
 3857SOL    HW212385   1.133   3.804   1.644  0.9270  0.9649 -1.5528
 3858SOL     OW12386   4.532   7.274   3.643 -0.1342 -0.0262  0.3618
 3858SOL    HW112387   4.605   7.215   3.624  0.5956  1.2566 -0.8761
 3858SOL    HW212388   4.459   7.239   3.592  0.4239  0.4057 -0.7417
 3859SOL     OW12389   2.022   5.271   4.513 -0.8344  0.1497  0.1994
 3859SOL    HW112390   2.032   5.322   4.593  0.3066 -0.2979  0.3603
 3859SOL    HW212391   1.994   5.334   4.447  0.4347  0.9590  0.4216
 3860SOL     OW12392   2.997   2.609   0.137  0.1971  0.1776  0.3493
 3860SOL    HW112393   2.988   2.553   0.059 -1.9572  0.6509  0.2220
 3860SOL    HW212394   3.082   2.651   0.126  0.6205 -0.9629 -0.9607
 3861SOL     OW12395   4.710   2.809   3.769  0.1355 -0.3600  0.8070
 3861SOL    HW112396   4.788   2.809   3.825 -0.6380 -0.0896  1.8988
 3861SOL    HW212397   4.738   2.764   3.690  1.8547  1.0479  0.5621
 3862SOL     OW12398   6.367   6.327   5.644  0.1869 -0.4957 -0.1980
 3862SOL    HW112399   6.291   6.276   5.671 -0.6873  0.6372 -0.4553
 3862SOL    HW212400   6.371   6.318   5.549 -0.2389  0.2503 -0.2954
 3863SOL     OW12401   6.596   3.516   2.795  1.1259  0.1511 -0.0251
 3863SOL    HW112402   6.512   3.558   2.779  1.0124 -0.2305 -0.4474
 3863SOL    HW212403   6.661   3.585   2.782  0.7372  1.1626  3.0215
 3864SOL     OW12404   4.279   5.856   3.572  0.1017  0.3837 -0.1811
 3864SOL    HW112405   4.281   5.926   3.507  1.7831  1.9365  1.5255
 3864SOL    HW212406   4.369   5.848   3.603 -0.7981  0.1909  2.5185
 3865SOL     OW12407   0.976   5.516   1.806  0.2464  0.3848 -0.3944
 3865SOL    HW112408   0.992   5.595   1.858 -0.1428  0.7904 -0.8869
 3865SOL    HW212409   1.064   5.482   1.787  0.3701 -0.8973  2.2173
 3866SOL     OW12410   3.688   1.853   0.653  0.1422  0.0840 -0.4119
 3866SOL    HW112411   3.716   1.762   0.665  1.1936  0.2597 -1.5132
 3866SOL    HW212412   3.608   1.846   0.600  0.2830 -0.1922 -0.5897
 3867SOL     OW12413   4.399   7.890   4.553 -0.0594 -0.4551 -0.3545
 3867SOL    HW112414   4.485   7.856   4.530  0.1235  0.4498 -1.0082
 3867SOL    HW212415   4.414   7.981   4.579 -0.5382 -0.8595  1.4634
 3868SOL     OW12416   4.448   3.397   4.780 -0.5214 -0.6479 -0.4442
 3868SOL    HW112417   4.473   3.468   4.839  1.5239 -0.4126 -1.5391
 3868SOL    HW212418   4.384   3.346   4.829 -1.1458  1.2807  0.8024
 3869SOL     OW12419   2.548   1.774   6.528 -0.3959  0.0164 -0.2944
 3869SOL    HW112420   2.538   1.776   6.623 -1.8330  1.1753 -0.4477
 3869SOL    HW212421   2.638   1.746   6.514  0.2637  1.1858  1.4251
 3870SOL     OW12422   4.154   4.921   7.485 -0.3128  0.2627  0.1644
 3870SOL    HW112423   4.200   4.978   7.424 -1.0540  0.0746 -0.5786
 3870SOL    HW212424   4.145   4.973   7.565 -0.1855  0.8589 -0.2079
 3871SOL     OW12425   0.174   1.547   1.445 -0.1942  0.5246  0.3001
 3871SOL    HW112426   0.245   1.519   1.387  0.2613  1.2542  0.5053
 3871SOL    HW212427   0.110   1.475   1.440  0.4618 -0.0480 -0.0360
 3872SOL     OW12428   2.093   0.426   1.890  0.4719 -0.6283  0.5620
 3872SOL    HW112429   2.033   0.431   1.964 -1.4289  2.2597 -1.1166
 3872SOL    HW212430   2.161   0.490   1.911 -0.7637  1.1432 -0.7648
 3873SOL     OW12431   4.408   4.424   6.178 -0.2649  0.4249 -0.2768
 3873SOL    HW112432   4.381   4.499   6.231 -0.1049 -0.8561  1.6385
 3873SOL    HW212433   4.330   4.368   6.172  0.3076 -0.4492  0.3635
 3874SOL     OW12434   4.930   6.435   0.333  0.0028  0.1305  0.5091
 3874SOL    HW112435   4.934   6.437   0.237 -0.8117 -0.2326  0.4623
 3874SOL    HW212436   4.863   6.369   0.353 -1.0832  1.4321  1.2820
 3875SOL     OW12437   0.299   4.762   3.036 -0.5404  0.1867 -0.1252
 3875SOL    HW112438   0.244   4.718   3.100  2.2452  0.0294  2.2332
 3875SOL    HW212439   0.353   4.822   3.087  2.4873 -0.6914 -2.1595
 3876SOL     OW12440   3.274   5.253   1.334  0.1836 -0.4425  0.6531
 3876SOL    HW112441   3.297   5.324   1.275 -0.3774 -1.2253 -0.5318
 3876SOL    HW212442   3.270   5.294   1.421 -0.2985  1.0024 -0.0353
 3877SOL     OW12443   2.808   1.268   4.989 -0.0107 -0.1311  0.3279
 3877SOL    HW112444   2.831   1.356   5.018 -0.3821 -0.2432  0.9563
 3877SOL    HW212445   2.821   1.270   4.894 -2.3268  1.3074  0.0022
 3878SOL     OW12446   3.759   6.428   2.676 -0.3814  0.3417 -0.3287
 3878SOL    HW112447   3.778   6.337   2.652 -0.0041  1.0433 -2.8725
 3878SOL    HW212448   3.840   6.475   2.655 -1.9245  1.9176 -3.0301
 3879SOL     OW12449   0.516   0.852   0.646 -0.0943  0.0314  0.2528
 3879SOL    HW112450   0.558   0.791   0.585 -1.3760 -1.3149  0.6929
 3879SOL    HW212451   0.431   0.870   0.607 -0.2985  0.4091  0.8630
 3880SOL     OW12452   7.018   4.025   5.306  0.4970 -0.5070  0.3990
 3880SOL    HW112453   6.929   4.024   5.341 -0.1941 -1.3780 -1.3198
 3880SOL    HW212454   7.023   3.948   5.250  2.4956 -0.7147  0.8186
 3881SOL     OW12455   5.996   0.972   3.897 -0.2982  0.0029  0.4479
 3881SOL    HW112456   5.921   1.018   3.933 -1.7403  0.9897 -3.5641
 3881SOL    HW212457   5.959   0.890   3.863  0.7004 -0.1270 -0.3290
 3882SOL     OW12458   5.191   7.409   2.749 -0.1592 -0.1671 -0.1175
 3882SOL    HW112459   5.207   7.484   2.691 -2.3565 -2.2072 -3.4962
 3882SOL    HW212460   5.278   7.371   2.763  0.7425  1.9237  0.1404
 3883SOL     OW12461   3.377   2.485   5.885  0.4372 -0.5609 -0.0561
 3883SOL    HW112462   3.349   2.402   5.847 -0.5448  0.6678 -2.1503
 3883SOL    HW212463   3.341   2.485   5.973 -1.5764 -1.3721 -0.8431
 3884SOL     OW12464   3.394   1.644   6.483  0.5285 -0.2577  0.3445
 3884SOL    HW112465   3.353   1.707   6.542 -0.8041 -0.3663 -0.4448
 3884SOL    HW212466   3.324   1.619   6.422  2.0400  0.3207 -1.6767
 3885SOL     OW12467   1.648   2.057   2.759 -0.1539 -0.3144 -0.6356
 3885SOL    HW112468   1.701   2.077   2.836 -3.4333 -0.1232  1.6728
 3885SOL    HW212469   1.622   2.142   2.724 -0.3515 -0.4283 -0.7694
 3886SOL     OW12470   0.475   0.957   2.365  0.4694  0.1515 -0.1831
 3886SOL    HW112471   0.538   0.930   2.433 -0.9658  0.1209  1.1698
 3886SOL    HW212472   0.420   0.880   2.352  0.6175  0.2240 -1.2578
 3887SOL     OW12473   2.794   7.471   3.045  0.2264 -0.1820  0.0593
 3887SOL    HW112474   2.861   7.424   3.094  0.9188  0.2976 -0.4139
 3887SOL    HW212475   2.766   7.409   2.978 -0.5742 -0.7641  0.9250
 3888SOL     OW12476   3.418   2.846   7.811  0.8470  0.2498  0.2303
 3888SOL    HW112477   3.328   2.817   7.802  1.0626  0.0167 -1.3505
 3888SOL    HW212478   3.418   2.904   7.888 -0.2063 -1.4153  1.5015
 3889SOL     OW12479   1.024   6.276   0.334  0.7200 -0.2328 -0.1425
 3889SOL    HW112480   0.997   6.268   0.425  0.4283  1.2294 -0.0753
 3889SOL    HW212481   1.118   6.258   0.335  0.3271 -2.3233  0.1041
 3890SOL     OW12482   0.138   1.735   6.270 -0.4084  0.1810  0.1155
 3890SOL    HW112483   0.175   1.649   6.253  2.4099  0.9752  1.8692
 3890SOL    HW212484   0.089   1.725   6.351 -1.4000 -0.1263 -0.5160
 3891SOL     OW12485   7.945   2.975   0.688 -0.3100 -0.3253 -0.4640
 3891SOL    HW112486   7.870   2.923   0.716 -0.7377  0.1758 -0.6766
 3891SOL    HW212487   8.009   2.910   0.657 -1.5208 -0.6394 -2.3747
 3892SOL     OW12488   7.859   0.986   0.450 -0.2371  0.1824 -0.0485
 3892SOL    HW112489   7.898   1.036   0.378  0.6851  0.2799  0.5013
 3892SOL    HW212490   7.932   0.973   0.511 -0.9822 -0.0201  0.7975
 3893SOL     OW12491   7.897   5.760   3.813 -0.7430 -0.7131 -0.0927
 3893SOL    HW112492   7.815   5.805   3.797 -0.5228 -0.6936 -1.2389
 3893SOL    HW212493   7.910   5.705   3.735  0.4627 -0.4986 -0.0627
 3894SOL     OW12494   3.359   0.410   6.932 -0.1837  0.4884 -0.6388
 3894SOL    HW112495   3.408   0.412   7.014 -0.4502  1.2108 -0.4962
 3894SOL    HW212496   3.391   0.332   6.888  0.8086  0.7326 -0.3745
 3895SOL     OW12497   7.957   1.867   6.825  0.3281 -0.2799 -0.6206
 3895SOL    HW112498   7.931   1.952   6.861  0.6260 -0.6212  0.4039
 3895SOL    HW212499   8.052   1.868   6.826  0.3319 -0.6547 -0.5489
 3896SOL     OW12500   7.472   3.677   3.797  0.7909  0.4547 -0.1486
 3896SOL    HW112501   7.532   3.738   3.840 -0.8144  1.7250  0.3339
 3896SOL    HW212502   7.444   3.618   3.867  0.7320  0.4737 -0.1559
 3897SOL     OW12503   5.354   7.309   7.722 -0.1853  0.7804 -0.3905
 3897SOL    HW112504   5.403   7.379   7.766  0.4959  0.2298 -0.2561
 3897SOL    HW212505   5.300   7.354   7.657 -1.6765  1.6728  1.4044
 3898SOL     OW12506   2.793   0.714   3.335  0.2214 -0.1076  0.0036
 3898SOL    HW112507   2.822   0.805   3.339  0.8710 -0.2080 -1.7530
 3898SOL    HW212508   2.855   0.672   3.276 -0.0243 -1.7234  0.8752
 3899SOL     OW12509   5.111   4.038   0.019 -0.3866  0.1293  0.7700
 3899SOL    HW112510   5.128   4.023   0.112  2.6632 -0.5270  0.1588
 3899SOL    HW212511   5.169   4.110  -0.005 -2.6307  1.6743 -0.2084
 3900SOL     OW12512   7.285   2.596   4.601 -0.7959 -0.1090 -0.3655
 3900SOL    HW112513   7.298   2.669   4.662 -3.0093 -0.4158  0.5514
 3900SOL    HW212514   7.206   2.620   4.552 -1.2577 -1.6420 -0.3954
 3901SOL     OW12515   6.265   1.006   6.986  0.2891  0.1968  0.0523
 3901SOL    HW112516   6.203   1.058   7.036  0.1243  0.4076 -0.3688
 3901SOL    HW212517   6.347   1.012   7.035 -0.0697 -0.2416  0.7104
 3902SOL     OW12518   1.444   7.512   2.011 -0.3081 -0.1704  0.2629
 3902SOL    HW112519   1.365   7.562   1.991 -0.2291 -0.2990 -0.3930
 3902SOL    HW212520   1.514   7.578   2.016 -0.2125 -0.2030 -0.5531
 3903SOL     OW12521   2.662   0.297   3.491 -0.0291 -0.2682  0.2474
 3903SOL    HW112522   2.634   0.247   3.568  1.0886 -0.5915  0.4472
 3903SOL    HW212523   2.624   0.384   3.505  1.3291  0.0959  1.8747
 3904SOL     OW12524   3.940   1.268   6.025  0.1201 -0.4114  0.4176
 3904SOL    HW112525   3.961   1.183   6.064  0.2582 -0.8530 -0.5969
 3904SOL    HW212526   3.863   1.298   6.073  0.3893 -0.8672  1.1371
 3905SOL     OW12527   4.393   1.083   6.532 -0.2089 -0.4148  0.1398
 3905SOL    HW112528   4.434   1.158   6.491  1.1087 -1.0137  0.3414
 3905SOL    HW212529   4.305   1.113   6.554 -0.3314  0.4726 -1.4777
 3906SOL     OW12530   7.542   2.192   6.048 -0.5166  0.0492  0.0697
 3906SOL    HW112531   7.556   2.271   5.996 -0.1745  1.3315  2.0717
 3906SOL    HW212532   7.596   2.125   6.005 -1.5993  0.6124 -2.2366
 3907SOL     OW12533   7.350   0.179   4.548  0.4088  0.1945 -0.6365
 3907SOL    HW112534   7.383   0.267   4.567  0.4432 -0.3158  1.8627
 3907SOL    HW212535   7.427   0.123   4.551  0.3809  0.0527 -2.1835
 3908SOL     OW12536   4.741   7.719   1.145  0.3780 -0.1200 -0.5616
 3908SOL    HW112537   4.661   7.751   1.188  0.4818 -0.5199 -0.0566
 3908SOL    HW212538   4.778   7.797   1.103  0.1695  0.2445 -0.0831
 3909SOL     OW12539   5.335   4.229   5.975  0.3124 -0.0378 -0.0968
 3909SOL    HW112540   5.346   4.177   6.055  0.7332  0.3192  0.0815
 3909SOL    HW212541   5.274   4.299   6.001  0.2368 -0.0789 -0.1632
 3910SOL     OW12542   5.907   4.391   7.329  0.0815  0.2073  0.4076
 3910SOL    HW112543   5.908   4.333   7.405 -1.3916 -0.7483 -0.2909
 3910SOL    HW212544   5.827   4.441   7.338 -0.1866 -0.0362 -0.6101
 3911SOL     OW12545   3.849   2.926   7.066 -0.1915  0.1645 -0.2951
 3911SOL    HW112546   3.913   2.881   7.011 -0.5257 -2.2776  1.2251
 3911SOL    HW212547   3.888   3.013   7.082  2.2685 -0.9023 -0.2189
 3912SOL     OW12548   3.612   5.875   7.203  0.8365  0.6508 -0.4608
 3912SOL    HW112549   3.645   5.794   7.164 -1.6035 -0.2959 -0.6696
 3912SOL    HW212550   3.690   5.929   7.217  2.4596 -1.5636 -0.7049
 3913SOL     OW12551   3.131   5.222   5.848 -0.3916 -0.4833 -0.4345
 3913SOL    HW112552   3.096   5.253   5.765  0.3954 -1.2271 -1.0444
 3913SOL    HW212553   3.185   5.295   5.880 -0.3740 -0.3538 -0.7611
 3914SOL     OW12554   0.664   7.357   4.413  0.2938  0.1815  0.2012
 3914SOL    HW112555   0.592   7.321   4.464 -0.9515  0.6714 -1.1833
 3914SOL    HW212556   0.702   7.282   4.368 -0.0541  0.0872  0.0667
 3915SOL     OW12557   2.204   1.830   4.030  0.3917  0.3076  0.4973
 3915SOL    HW112558   2.266   1.795   3.966 -1.2717 -0.0727 -0.9310
 3915SOL    HW212559   2.236   1.919   4.048 -0.6633  1.4480 -2.9749
 3916SOL     OW12560   1.749   3.048   7.571  0.6071 -0.5327  0.0435
 3916SOL    HW112561   1.840   3.066   7.594  0.6277 -1.2274  0.5140
 3916SOL    HW212562   1.725   2.972   7.623 -1.1272  1.3308  2.0639
 3917SOL     OW12563   2.185   5.626   7.365  0.1178  0.4256 -0.2631
 3917SOL    HW112564   2.177   5.708   7.317  0.3347  0.2620 -0.5804
 3917SOL    HW212565   2.116   5.630   7.432  0.7384  1.2878  0.3417
 3918SOL     OW12566   3.248   1.672   2.971 -0.5438 -0.4704  0.6741
 3918SOL    HW112567   3.309   1.640   2.905  1.1158 -0.1677  2.0178
 3918SOL    HW212568   3.168   1.621   2.957  0.0810 -1.0286 -0.9700
 3919SOL     OW12569   1.464   1.181   4.247 -0.0014 -0.5139 -1.1192
 3919SOL    HW112570   1.450   1.091   4.277  0.4430 -0.9122 -2.0787
 3919SOL    HW212571   1.426   1.236   4.316  1.0864 -1.4001  0.2093
 3920SOL     OW12572   6.809   1.538   7.055 -0.3892  0.1146 -0.5480
 3920SOL    HW112573   6.739   1.577   7.109 -1.1234  0.1186 -1.4920
 3920SOL    HW212574   6.854   1.613   7.017  0.3179  0.1196  0.2885
 3921SOL     OW12575   1.367   1.210   5.927 -0.3408 -0.0118  0.2138
 3921SOL    HW112576   1.345   1.121   5.955  0.7242 -0.3137  0.1037
 3921SOL    HW212577   1.394   1.200   5.836  0.4993  0.3017  0.4229
 3922SOL     OW12578   0.359   0.849   5.760  0.0207 -0.2297  0.3775
 3922SOL    HW112579   0.268   0.876   5.773 -0.0967 -0.3796 -0.0946
 3922SOL    HW212580   0.367   0.839   5.665  1.0515  1.6039  0.2399
 3923SOL     OW12581   4.208   5.258   4.260  0.1339 -0.0088 -0.0986
 3923SOL    HW112582   4.248   5.177   4.292 -1.5293 -0.6729  0.3505
 3923SOL    HW212583   4.274   5.325   4.276  0.8103 -0.9627  1.2433
 3924SOL     OW12584   6.634   6.868   5.445  0.1717 -0.5283 -0.1028
 3924SOL    HW112585   6.716   6.914   5.461  0.8637 -1.7159 -0.1239
 3924SOL    HW212586   6.584   6.880   5.526  0.8410 -0.7513  0.3506
 3925SOL     OW12587   4.435   3.596   5.604 -0.6713 -0.1938  0.1310
 3925SOL    HW112588   4.349   3.637   5.600 -0.2547  0.6962  0.3042
 3925SOL    HW212589   4.495   3.667   5.623  0.2664 -0.6045 -1.2374
 3926SOL     OW12590   0.835   7.617   6.344 -0.3102 -0.2543  0.8554
 3926SOL    HW112591   0.874   7.530   6.352 -1.8395 -1.0554 -0.1547
 3926SOL    HW212592   0.900   7.668   6.294  0.2036 -1.0670  0.6850
 3927SOL     OW12593   4.562   3.835   5.690 -0.6497 -0.0518  0.1624
 3927SOL    HW112594   4.586   3.924   5.664  0.5912 -0.2829  0.4909
 3927SOL    HW212595   4.587   3.830   5.782  1.9992 -1.6482 -0.5813
 3928SOL     OW12596   3.680   2.740   6.253 -0.4766 -0.2353 -0.0435
 3928SOL    HW112597   3.650   2.823   6.215  0.2469 -0.8172 -1.9670
 3928SOL    HW212598   3.658   2.674   6.187  2.1930 -1.0937 -0.1603
 3929SOL     OW12599   3.147   5.097   2.204 -0.0040  0.0376  0.1076
 3929SOL    HW112600   3.230   5.085   2.156 -0.4891  0.5228 -0.8734
 3929SOL    HW212601   3.086   5.037   2.160  0.2021 -1.4797  1.8177
 3930SOL     OW12602   3.267   2.638   7.065  0.1068 -0.2919 -0.5226
 3930SOL    HW112603   3.310   2.711   7.111  0.9312 -0.6499 -0.7088
 3930SOL    HW212604   3.177   2.640   7.095  0.1171  0.8241 -0.5344
 3931SOL     OW12605   1.725   3.383   3.186 -0.1156 -0.7157 -0.3721
 3931SOL    HW112606   1.704   3.467   3.145  0.9140  0.2247  1.0152
 3931SOL    HW212607   1.643   3.356   3.227 -0.3711 -0.2341 -0.5593
 3932SOL     OW12608   7.092   7.489   6.389 -0.0004 -0.1035 -0.4916
 3932SOL    HW112609   7.076   7.577   6.356 -1.1556 -0.7816 -1.7482
 3932SOL    HW212610   7.089   7.433   6.311  3.0300 -0.9707 -0.0464
 3933SOL     OW12611   5.340   3.333   0.160  0.3356 -0.1149  0.1116
 3933SOL    HW112612   5.317   3.359   0.071  0.2765 -1.6705 -0.3273
 3933SOL    HW212613   5.386   3.250   0.151  0.6239 -0.1275  1.5032
 3934SOL     OW12614   3.959   3.097   0.692 -0.4023 -0.1933 -0.3084
 3934SOL    HW112615   4.030   3.128   0.748  1.1863 -2.5847 -0.9229
 3934SOL    HW212616   3.920   3.024   0.741 -0.4707 -0.8131 -1.2703
 3935SOL     OW12617   4.581   3.064   4.018  0.3373  0.0506  0.5641
 3935SOL    HW112618   4.511   3.036   3.959 -0.7975 -0.1521  1.9555
 3935SOL    HW212619   4.638   2.988   4.026 -0.8239 -0.7246  1.6020
 3936SOL     OW12620   0.190   5.814   7.968  0.5456  0.0012 -0.4269
 3936SOL    HW112621   0.243   5.893   7.954  0.0511  0.0199 -2.3687
 3936SOL    HW212622   0.254   5.745   7.986  0.9383  0.9854  2.1153
 3937SOL     OW12623   7.450   2.619   4.276 -0.4155 -0.1319  0.2662
 3937SOL    HW112624   7.487   2.593   4.361 -0.7012 -1.0427  0.1160
 3937SOL    HW212625   7.362   2.583   4.276 -1.2582  1.8703  0.5330
 3938SOL     OW12626   2.647   3.544   1.293 -0.5412 -0.1223 -0.1112
 3938SOL    HW112627   2.671   3.452   1.291 -1.2847 -0.3196  0.0920
 3938SOL    HW212628   2.592   3.556   1.215 -1.4097 -0.1122  0.5068
 3939SOL     OW12629   7.034   2.296   6.631 -0.0568  0.2968  0.3143
 3939SOL    HW112630   7.031   2.275   6.538 -1.9833  0.0752  0.4004
 3939SOL    HW212631   7.126   2.284   6.656  0.3997  0.0178 -1.4686
 3940SOL     OW12632   4.641   4.802   7.776 -1.0239 -0.0038 -0.0784
 3940SOL    HW112633   4.579   4.874   7.761 -0.9142 -0.3064 -2.0087
 3940SOL    HW212634   4.654   4.762   7.690  1.9095  0.0987  0.2693
 3941SOL     OW12635   7.329   0.446   1.378  0.3738  0.2804 -0.1354
 3941SOL    HW112636   7.274   0.413   1.307  0.6584  0.1422 -0.2892
 3941SOL    HW212637   7.305   0.538   1.386 -0.4869  0.0211  0.3501
 3942SOL     OW12638   4.666   3.311   4.153 -0.9089  0.4076  0.4841
 3942SOL    HW112639   4.620   3.245   4.101 -0.1931 -0.1604  0.5700
 3942SOL    HW212640   4.749   3.270   4.177 -0.4405  1.3498  0.5101
 3943SOL     OW12641   5.562   0.333   2.005 -0.2417  0.0867  0.2073
 3943SOL    HW112642   5.647   0.371   1.982 -0.7109  0.6102 -0.7027
 3943SOL    HW212643   5.558   0.338   2.101 -1.0226  4.0365  0.0686
 3944SOL     OW12644   6.156   1.574   3.886  0.3467 -0.5050  0.0181
 3944SOL    HW112645   6.193   1.524   3.813 -0.3628 -0.1462 -0.5900
 3944SOL    HW212646   6.106   1.509   3.936 -1.3631 -0.2398 -1.3003
 3945SOL     OW12647   1.307   5.744   7.518 -0.4251 -0.3221  0.0051
 3945SOL    HW112648   1.282   5.753   7.610 -0.7504  1.7338 -0.2655
 3945SOL    HW212649   1.364   5.819   7.502 -2.6835  0.9785 -2.2212
 3946SOL     OW12650   1.002   3.925   5.713 -0.2994 -0.0905  0.0943
 3946SOL    HW112651   0.917   3.963   5.731 -0.0315  0.8661 -0.6121
 3946SOL    HW212652   0.988   3.830   5.719 -1.9996 -0.0726 -2.4249
 3947SOL     OW12653   7.945   1.268   4.968 -0.1910  0.1489 -0.7704
 3947SOL    HW112654   7.902   1.353   4.956 -0.5289 -0.0483 -0.9800
 3947SOL    HW212655   7.873   1.209   4.992 -0.0371 -0.1842 -1.1224
 3948SOL     OW12656   0.624   5.814   6.974  0.1826 -0.0970 -0.5375
 3948SOL    HW112657   0.575   5.884   6.931 -1.0482 -0.3308  0.4787
 3948SOL    HW212658   0.601   5.821   7.066 -0.0755 -1.9370 -0.4424
 3949SOL     OW12659   6.044   5.149   0.524  0.3212  0.1840 -0.2267
 3949SOL    HW112660   6.057   5.215   0.592  2.3301 -1.1162  0.7080
 3949SOL    HW212661   6.030   5.067   0.572 -0.0523 -0.4486 -1.3781
 3950SOL     OW12662   2.416   0.519   7.705  0.5686 -0.2533 -0.0272
 3950SOL    HW112663   2.342   0.522   7.644 -0.0851 -1.0303  0.7085
 3950SOL    HW212664   2.474   0.589   7.676 -1.3533  1.6398  0.5376
 3951SOL     OW12665   6.313   6.077   0.137 -0.0078  0.0936  0.2109
 3951SOL    HW112666   6.330   6.027   0.057  0.0630  0.1096  0.2152
 3951SOL    HW212667   6.232   6.125   0.118  0.4712  0.7632 -0.1783
 3952SOL     OW12668   6.289   2.467   5.322  0.1111  0.2505 -0.5807
 3952SOL    HW112669   6.207   2.480   5.369  0.4676 -0.2034  0.1773
 3952SOL    HW212670   6.263   2.447   5.232 -0.6448 -1.2502 -0.0369
 3953SOL     OW12671   3.748   6.086   6.053 -0.2093 -0.6439  0.1404
 3953SOL    HW112672   3.796   6.099   6.135  1.6385  1.6171 -1.2270
 3953SOL    HW212673   3.774   5.999   6.024  1.1957 -0.4142  0.6512
 3954SOL     OW12674   4.283   3.371   7.645  0.6028  0.0734 -0.1004
 3954SOL    HW112675   4.374   3.381   7.672  0.8144 -0.5305 -0.5970
 3954SOL    HW212676   4.256   3.286   7.679 -0.8922  1.7315  3.1695
 3955SOL     OW12677   2.910   5.660   0.679  0.3269  0.2414 -0.9956
 3955SOL    HW112678   2.820   5.634   0.659  0.2658  0.2304 -0.7131
 3955SOL    HW212679   2.951   5.579   0.711 -0.5096  0.9743  2.0871
 3956SOL     OW12680   6.152   6.718   2.527 -0.3696 -0.1202  0.2729
 3956SOL    HW112681   6.200   6.693   2.606  1.1065 -0.9915 -0.8700
 3956SOL    HW212682   6.086   6.649   2.516 -3.1188  1.9664  2.7966
 3957SOL     OW12683   4.589   5.439   7.551  0.8006  0.0976 -0.3974
 3957SOL    HW112684   4.556   5.521   7.586  2.8288 -0.8949  4.2327
 3957SOL    HW212685   4.525   5.373   7.579  2.1060 -0.6258  0.9693
 3958SOL     OW12686   0.612   6.633   4.543  0.3276  0.5061  0.1275
 3958SOL    HW112687   0.704   6.657   4.531  0.0400  0.3636 -2.6757
 3958SOL    HW212688   0.565   6.691   4.484 -1.1232 -1.3469 -0.5801
 3959SOL     OW12689   3.217   7.425   4.271  0.6610  0.1770  0.4320
 3959SOL    HW112690   3.171   7.375   4.203 -1.9300  0.5521  1.8554
 3959SOL    HW212691   3.304   7.384   4.275 -0.0696 -1.6429 -1.1758
 3960SOL     OW12692   7.865   1.721   1.510 -0.7040 -0.0231 -0.0251
 3960SOL    HW112693   7.883   1.662   1.437 -1.4207 -1.3142  0.8231
 3960SOL    HW212694   7.943   1.715   1.566  0.0120  1.2659 -0.8683
 3961SOL     OW12695   5.039   1.908   6.768  0.4467 -0.5298 -0.1491
 3961SOL    HW112696   5.128   1.890   6.799  0.3637 -0.8226 -0.0857
 3961SOL    HW212697   4.987   1.835   6.799 -0.1278  0.4165  1.1577
 3962SOL     OW12698   5.565   4.282   0.998 -0.1508 -0.0309 -0.1731
 3962SOL    HW112699   5.516   4.232   0.933 -0.2308 -0.1401 -0.0294
 3962SOL    HW212700   5.550   4.236   1.081 -0.8329  0.6591  0.0923
 3963SOL     OW12701   0.878   7.904   5.179  0.2828 -0.0657  0.5376
 3963SOL    HW112702   0.789   7.901   5.213 -0.3409  0.6311 -0.9644
 3963SOL    HW212703   0.891   7.819   5.137 -1.0591  1.1644 -2.5154
 3964SOL     OW12704   5.117   2.275   4.236 -0.2291  0.2651 -0.2806
 3964SOL    HW112705   5.156   2.276   4.323  0.3896  3.7386 -0.5291
 3964SOL    HW212706   5.060   2.352   4.235  0.1883  0.5718 -3.1197
 3965SOL     OW12707   3.784   7.465   1.385  0.4726  0.0667 -0.3416
 3965SOL    HW112708   3.814   7.416   1.308  1.6332 -0.4056  0.3907
 3965SOL    HW212709   3.860   7.518   1.410  0.1772  0.0507  0.6113
 3966SOL     OW12710   1.505   6.179   3.875 -0.3436  0.5679 -0.5767
 3966SOL    HW112711   1.501   6.222   3.961  1.4682  0.7139 -0.5574
 3966SOL    HW212712   1.559   6.238   3.822  2.7127 -1.9667 -0.3837
 3967SOL     OW12713   4.743   6.945   0.045  0.3969  0.0490  0.0063
 3967SOL    HW112714   4.769   7.037   0.049 -1.6575  0.6125  0.5444
 3967SOL    HW212715   4.650   6.945   0.066  0.2097 -2.0801 -0.7325
 3968SOL     OW12716   4.629   0.685   3.416  0.0552 -0.1160  0.0815
 3968SOL    HW112717   4.602   0.610   3.363  0.9437 -0.4927  0.1633
 3968SOL    HW212718   4.723   0.693   3.401  0.0908  0.5492  0.6285
 3969SOL     OW12719   2.921   6.816   7.617 -0.3594 -0.3788 -0.0625
 3969SOL    HW112720   2.963   6.842   7.699 -1.4426  0.8732  0.1214
 3969SOL    HW212721   2.956   6.729   7.598  2.2407  0.5704  0.1260
 3970SOL     OW12722   7.954   7.050   3.020  0.2555 -0.1275  0.0232
 3970SOL    HW112723   7.977   7.132   2.977 -0.0946  0.2104  0.4917
 3970SOL    HW212724   8.033   7.025   3.068 -0.1492  0.7386  1.1577
 3971SOL     OW12725   7.372   5.672   6.381 -0.1210  0.0620  0.5208
 3971SOL    HW112726   7.452   5.621   6.393 -0.5932 -1.3072 -1.8681
 3971SOL    HW212727   7.372   5.696   6.288 -1.7310  1.3365  0.8244
 3972SOL     OW12728   7.496   7.564   7.402 -0.1275  0.2150  0.1105
 3972SOL    HW112729   7.538   7.478   7.395  1.5929  1.1570 -1.8935
 3972SOL    HW212730   7.436   7.567   7.328  0.2059  0.9258 -0.1375
 3973SOL     OW12731   0.659   2.122   2.163  0.4705  0.4196  0.0354
 3973SOL    HW112732   0.741   2.075   2.148  0.4981  0.8412 -1.1304
 3973SOL    HW212733   0.638   2.163   2.079 -1.0380  0.1610  0.2738
 3974SOL     OW12734   0.876   0.168   4.377  0.3405 -0.2534 -0.0488
 3974SOL    HW112735   0.888   0.082   4.418  1.0745  0.4558  1.2485
 3974SOL    HW212736   0.805   0.209   4.427  0.5733  0.2267 -0.1055
 3975SOL     OW12737   2.771   3.635   7.659  0.5023 -0.1552  0.1292
 3975SOL    HW112738   2.721   3.560   7.691 -0.4245 -0.1501 -1.2528
 3975SOL    HW212739   2.861   3.618   7.687 -0.2991  0.0069  2.9639
 3976SOL     OW12740   4.880   2.907   2.599  0.3998  0.4514  0.4859
 3976SOL    HW112741   4.808   2.968   2.581  1.1194  1.1951  0.1016
 3976SOL    HW212742   4.839   2.821   2.596 -0.3728  0.8318 -0.3213
 3977SOL     OW12743   2.510   3.183   1.388 -0.1462 -0.0312 -0.0066
 3977SOL    HW112744   2.420   3.186   1.420  0.3070  1.2275  1.1811
 3977SOL    HW212745   2.563   3.167   1.466  0.7448  0.0882 -0.5735
 3978SOL     OW12746   1.856   3.847   7.678  0.9147 -0.5499  0.3292
 3978SOL    HW112747   1.838   3.904   7.752 -0.8517 -0.9693  0.2364
 3978SOL    HW212748   1.801   3.881   7.608 -1.5651 -3.4446  0.8004
 3979SOL     OW12749   6.960   6.247   2.990  0.3998  0.4081  0.2502
 3979SOL    HW112750   7.012   6.265   2.911  0.9585 -1.2208  0.2440
 3979SOL    HW212751   6.930   6.157   2.979  1.6228 -0.3112  2.5444
 3980SOL     OW12752   7.338   6.845   4.660 -0.2703 -0.2802 -0.0056
 3980SOL    HW112753   7.387   6.915   4.702 -1.7373  0.1915  0.9279
 3980SOL    HW212754   7.357   6.855   4.567 -0.8983  1.6881  0.0694
 3981SOL     OW12755   0.562   2.787   1.407  0.4376  0.1966  0.4939
 3981SOL    HW112756   0.486   2.817   1.458 -1.3051 -0.7102 -1.4684
 3981SOL    HW212757   0.555   2.834   1.324  0.8459 -1.3909 -0.4689
 3982SOL     OW12758   7.814   2.394   1.781  0.5960 -0.1178  0.2313
 3982SOL    HW112759   7.720   2.398   1.795  0.6190  0.3127  0.2490
 3982SOL    HW212760   7.852   2.442   1.855  0.8470 -0.6325  0.4464
 3983SOL     OW12761   2.259   1.488   4.950  0.2688  0.1577 -0.1807
 3983SOL    HW112762   2.351   1.472   4.970 -0.4281 -1.8461  1.7013
 3983SOL    HW212763   2.226   1.540   5.023 -0.2738  0.1433 -0.4065
 3984SOL     OW12764   4.861   7.975   7.946 -0.1310 -0.2377 -0.7045
 3984SOL    HW112765   4.815   7.891   7.953 -0.0434 -0.3637 -1.5162
 3984SOL    HW212766   4.793   8.037   7.918 -0.0318 -0.2067 -0.8801
 3985SOL     OW12767   1.945   0.742   6.936 -1.0592  0.6497  0.5978
 3985SOL    HW112768   1.953   0.692   6.854 -1.7645  3.0228 -0.9865
 3985SOL    HW212769   1.908   0.680   6.998  1.0193 -1.6908 -0.3947
 3986SOL     OW12770   4.913   6.284   7.603  0.0183  0.4247 -0.3126
 3986SOL    HW112771   4.902   6.316   7.514 -1.0906 -0.2460 -0.4275
 3986SOL    HW212772   4.947   6.360   7.651 -1.0432  1.3209 -0.9324
 3987SOL     OW12773   7.200   3.158   0.201 -0.7360 -0.5640 -0.3947
 3987SOL    HW112774   7.211   3.145   0.106 -1.2075 -0.4141 -0.4721
 3987SOL    HW212775   7.194   3.253   0.212 -1.0202 -0.5954 -0.2576
 3988SOL     OW12776   1.724   4.279   6.898  0.6772  0.3668  0.1084
 3988SOL    HW112777   1.638   4.276   6.939 -0.0094  0.4532 -1.3164
 3988SOL    HW212778   1.718   4.348   6.832  0.5006 -2.4006 -2.8906
 3989SOL     OW12779   0.682   7.804   3.994 -0.6254 -0.2724  0.8258
 3989SOL    HW112780   0.613   7.820   4.058 -0.7347 -2.7043  1.3617
 3989SOL    HW212781   0.659   7.859   3.920 -3.0299 -0.8717  1.0844
 3990SOL     OW12782   6.991   0.893   2.508  0.0612 -0.0695  0.2593
 3990SOL    HW112783   7.022   0.877   2.597 -0.3742 -0.3535  0.3647
 3990SOL    HW212784   6.931   0.967   2.517 -0.0803 -0.1794  0.2240
 3991SOL     OW12785   7.840   3.697   1.611 -0.7684 -0.3073 -0.5916
 3991SOL    HW112786   7.883   3.763   1.666 -2.4960  0.9689 -0.7069
 3991SOL    HW212787   7.911   3.654   1.565  0.5150  0.4267  0.6554
 3992SOL     OW12788   2.154   0.675   2.347 -0.4261  0.0194  0.0449
 3992SOL    HW112789   2.112   0.614   2.286  0.2288 -1.0142  0.6229
 3992SOL    HW212790   2.138   0.638   2.433  0.0818  0.6024  0.3926
 3993SOL     OW12791   5.424   3.611   2.443  0.4835 -0.3476 -0.3096
 3993SOL    HW112792   5.360   3.648   2.505  1.1432  0.5913 -0.1621
 3993SOL    HW212793   5.460   3.535   2.489  0.1262 -0.3489 -0.0225
 3994SOL     OW12794   3.471   2.829   4.960 -0.2994  0.0295 -0.2935
 3994SOL    HW112795   3.446   2.919   4.979 -0.8489  0.1132 -1.3744
 3994SOL    HW212796   3.391   2.787   4.930 -0.1197 -0.9172  0.5154
 3995SOL     OW12797   0.311   5.680   3.245 -0.1547 -0.2430 -0.6202
 3995SOL    HW112798   0.263   5.761   3.231 -0.1892 -0.2968 -0.8019
 3995SOL    HW212799   0.252   5.626   3.299  0.1904  0.1645  0.1770
 3996SOL     OW12800   0.998   0.934   3.247  0.8736 -0.2788  0.5872
 3996SOL    HW112801   1.086   0.918   3.280  1.9831  0.4974 -1.9129
 3996SOL    HW212802   0.997   0.896   3.159  0.4932  4.4157 -1.5904
 3997SOL     OW12803   2.539   4.687   3.032  0.4196  0.0489  0.4137
 3997SOL    HW112804   2.462   4.674   2.976  0.8515 -0.7708  0.0154
 3997SOL    HW212805   2.594   4.611   3.016  1.1294  0.4316  1.0164
 3998SOL     OW12806   2.558   2.108   2.508  0.0526  0.3946  0.0414
 3998SOL    HW112807   2.478   2.120   2.457  0.5455 -1.7469 -1.3236
 3998SOL    HW212808   2.529   2.071   2.591 -0.3688 -0.9581 -0.6817
 3999SOL     OW12809   7.978   2.598   5.358  0.4130  0.1487 -0.0099
 3999SOL    HW112810   7.917   2.526   5.373  0.4089  0.1231 -0.1539
 3999SOL    HW212811   8.042   2.563   5.296  0.2338  0.3684 -0.3205
 4000SOL     OW12812   0.200   6.503   6.898 -0.0263  0.0013 -0.1801
 4000SOL    HW112813   0.168   6.532   6.983  2.2877 -3.0270  1.8282
 4000SOL    HW212814   0.121   6.479   6.850 -1.2124 -1.5266  2.4188
 4001SOL     OW12815   3.586   7.636   4.322  0.0775 -0.1353  0.3134
 4001SOL    HW112816   3.571   7.634   4.228  0.3993  2.1856  0.1786
 4001SOL    HW212817   3.498   7.632   4.361 -0.1466  0.5655 -0.1264
 4002SOL     OW12818   1.688   5.060   6.277 -0.0687 -0.7693 -0.0434
 4002SOL    HW112819   1.716   5.037   6.188 -0.3624 -0.6862 -0.1554
 4002SOL    HW212820   1.723   5.148   6.291 -0.7514 -0.4425 -0.3899
 4003SOL     OW12821   1.813   0.750   5.238 -0.2535 -0.2028 -0.6008
 4003SOL    HW112822   1.754   0.807   5.187 -0.8221 -0.0840  0.1838
 4003SOL    HW212823   1.763   0.727   5.316  1.5363  1.7206  1.1771
 4004SOL     OW12824   7.245   1.522   7.350  0.3649  0.1387  0.0786
 4004SOL    HW112825   7.280   1.468   7.279 -0.3769  0.3582 -0.4516
 4004SOL    HW212826   7.161   1.483   7.371 -0.1579  1.0668 -0.2833
 4005SOL     OW12827   4.853   0.379   2.392  0.3590  0.2749  0.1719
 4005SOL    HW112828   4.886   0.319   2.326 -1.3866  0.3024 -0.7484
 4005SOL    HW212829   4.785   0.429   2.348  0.6916  1.8419  1.3752
 4006SOL     OW12830   4.970   2.417   6.621  0.8338 -0.5555  0.0440
 4006SOL    HW112831   4.984   2.337   6.672  1.3408  0.2801  1.2253
 4006SOL    HW212832   4.994   2.488   6.680  1.5817  0.4230 -1.4200
 4007SOL     OW12833   3.109   2.759   1.957  0.0848 -0.2469  0.0712
 4007SOL    HW112834   3.033   2.807   1.924 -0.3980 -0.5599  0.7148
 4007SOL    HW212835   3.077   2.670   1.972  0.4300 -0.2334  0.9014
 4008SOL     OW12836   2.732   6.917   4.960  0.4019  0.5085 -0.0324
 4008SOL    HW112837   2.728   6.995   4.904 -1.7737  1.3014  1.1722
 4008SOL    HW212838   2.652   6.869   4.941  1.8453 -1.5682 -0.9242
 4009SOL     OW12839   1.697   4.451   1.887  0.0623  0.0152  0.0867
 4009SOL    HW112840   1.694   4.389   1.814 -1.3699 -0.2772  0.3692
 4009SOL    HW212841   1.612   4.495   1.884 -0.6502 -1.1179  2.5318
 4010SOL     OW12842   5.882   2.625   2.766 -0.2491  0.3237 -0.1769
 4010SOL    HW112843   5.884   2.669   2.851 -1.9293 -1.9660  1.1094
 4010SOL    HW212844   5.789   2.627   2.740  0.2976  1.3425 -2.1634
 4011SOL     OW12845   0.477   2.922   3.497 -0.5559 -0.3496  0.3341
 4011SOL    HW112846   0.413   2.889   3.560  0.4060  0.1348  1.5986
 4011SOL    HW212847   0.560   2.923   3.546 -0.2681  2.4945 -0.0973
 4012SOL     OW12848   6.002   5.452   3.923 -0.1612  0.8368  0.0736
 4012SOL    HW112849   6.083   5.449   3.974 -0.7538  0.2219  0.9838
 4012SOL    HW212850   6.012   5.530   3.868  0.9268  0.9294  0.3790
 4013SOL     OW12851   0.329   7.130   0.677  0.3146  0.3129  0.3078
 4013SOL    HW112852   0.256   7.100   0.622 -0.3265  0.6017  0.9930
 4013SOL    HW212853   0.362   7.208   0.632 -0.3653  0.6885  0.4454
 4014SOL     OW12854   0.608   4.324   3.467 -0.3305 -0.1173  0.2961
 4014SOL    HW112855   0.522   4.296   3.500  0.1108 -0.7054  0.9710
 4014SOL    HW212856   0.669   4.260   3.504  0.3503  0.0799 -0.4911
 4015SOL     OW12857   0.784   4.121   1.697 -0.4845 -0.1095  0.1189
 4015SOL    HW112858   0.834   4.048   1.661 -0.9518  0.2835 -1.3632
 4015SOL    HW212859   0.805   4.195   1.640 -0.0142  0.9278  1.6098
 4016SOL     OW12860   7.611   3.941   1.347 -0.2972  0.1025 -0.0387
 4016SOL    HW112861   7.704   3.941   1.324 -0.1514  0.5813  0.5437
 4016SOL    HW212862   7.568   3.895   1.274  0.3018  0.5662 -0.6895
 4017SOL     OW12863   4.182   7.270   6.780 -0.0721 -0.2225  0.6159
 4017SOL    HW112864   4.265   7.284   6.736 -0.3314 -3.1387 -0.9337
 4017SOL    HW212865   4.199   7.292   6.872  2.4889 -1.0934  0.3756
 4018SOL     OW12866   1.219   1.943   6.032 -0.7094  0.3091 -0.7997
 4018SOL    HW112867   1.158   1.917   6.100 -0.0493 -0.9509 -0.6692
 4018SOL    HW212868   1.167   1.948   5.953 -1.1495  0.0990 -0.5224
 4019SOL     OW12869   1.083   2.493   2.141  0.4654  0.5105 -0.6284
 4019SOL    HW112870   1.106   2.581   2.171  3.4617 -0.5490  0.2890
 4019SOL    HW212871   1.135   2.479   2.063 -2.6130  0.8085 -2.8296
 4020SOL     OW12872   0.056   5.922   2.788 -0.0601 -0.0537  0.1068
 4020SOL    HW112873   0.142   5.891   2.761  1.1270  1.6516  1.8368
 4020SOL    HW212874   0.008   5.842   2.811  0.6982 -1.0857 -1.7784
 4021SOL     OW12875   4.946   5.854   5.965  0.3406  0.4290 -0.6747
 4021SOL    HW112876   4.895   5.855   6.046 -0.0998 -0.3415 -0.9399
 4021SOL    HW212877   4.999   5.934   5.969  0.3841  0.3489  0.4139
 4022SOL     OW12878   4.744   7.063   0.592 -0.4080 -0.0982  0.0001
 4022SOL    HW112879   4.662   7.109   0.606 -0.8940 -1.0462  0.3267
 4022SOL    HW212880   4.752   7.006   0.669  0.7315  0.2536  0.1540
 4023SOL     OW12881   2.831   3.730   5.190  0.2840 -0.5698  0.1143
 4023SOL    HW112882   2.893   3.658   5.193 -1.0082 -1.6886  1.5115
 4023SOL    HW212883   2.749   3.690   5.160 -0.8344 -0.0364  2.3227
 4024SOL     OW12884   4.071   4.770   1.048  0.5320 -0.5469  0.4210
 4024SOL    HW112885   4.079   4.788   0.955 -0.7461 -1.0778  0.1956
 4024SOL    HW212886   4.067   4.857   1.089  1.8463 -0.3113  0.0635
 4025SOL     OW12887   4.630   4.587   3.154  0.5433  0.0072 -0.4629
 4025SOL    HW112888   4.547   4.615   3.115 -0.0420  0.2592  0.9167
 4025SOL    HW212889   4.635   4.493   3.134 -1.8814 -0.8575  2.4926
 4026SOL     OW12890   6.082   5.284   1.248  0.4656  0.1941 -0.6150
 4026SOL    HW112891   6.013   5.344   1.219  0.9865  0.9436 -0.2941
 4026SOL    HW212892   6.147   5.340   1.290  1.6753 -0.4031 -1.6550
 4027SOL     OW12893   2.200   7.778   0.094  1.2866 -0.4373  0.8123
 4027SOL    HW112894   2.119   7.774   0.144  1.5796 -1.3417  1.2282
 4027SOL    HW212895   2.269   7.780   0.161  1.6654 -1.3232  0.4489
 4028SOL     OW12896   2.262   7.695   5.230  0.1165 -0.0410 -0.6176
 4028SOL    HW112897   2.264   7.603   5.206  0.9931 -0.0779 -0.4323
 4028SOL    HW212898   2.175   7.726   5.204 -0.4217 -1.0776 -0.0666
 4029SOL     OW12899   6.823   4.580   3.467  0.6982  0.3803  0.4557
 4029SOL    HW112900   6.814   4.666   3.509 -2.4334  0.5307 -0.3894
 4029SOL    HW212901   6.746   4.573   3.411  1.4596 -2.5773 -0.2946
 4030SOL     OW12902   4.912   6.596   5.547 -0.2008 -0.2135 -0.7599
 4030SOL    HW112903   4.867   6.511   5.546  1.9177 -1.3740 -0.6186
 4030SOL    HW212904   4.992   6.581   5.496  1.6638  0.8495  1.7604
 4031SOL     OW12905   3.855   5.203   7.439  0.0537 -0.3426  0.1905
 4031SOL    HW112906   3.773   5.193   7.391  0.1124  2.0787 -0.4497
 4031SOL    HW212907   3.917   5.147   7.393 -0.7798 -0.8127 -0.3770
 4032SOL     OW12908   6.012   5.422   5.540 -0.4591 -0.1985 -0.0015
 4032SOL    HW112909   5.997   5.516   5.547  1.6484  0.1606  0.0287
 4032SOL    HW212910   6.089   5.414   5.484 -0.2875 -1.8909  0.4447
 4033SOL     OW12911   4.022   1.676   2.234 -0.1167 -0.6983 -0.6924
 4033SOL    HW112912   4.067   1.721   2.162 -1.4662  1.4107 -0.2611
 4033SOL    HW212913   3.932   1.709   2.230 -0.4775 -1.3822  1.2737
 4034SOL     OW12914   7.212   1.559   5.046  0.3090  0.1511 -0.0074
 4034SOL    HW112915   7.252   1.509   5.117 -2.2925 -2.2864 -0.1690
 4034SOL    HW212916   7.137   1.602   5.086  2.6245  4.1997  0.1615
 4035SOL     OW12917   7.334   3.438   7.549  0.1214 -0.3836  0.8204
 4035SOL    HW112918   7.391   3.362   7.534 -0.7756 -0.7154 -1.0280
 4035SOL    HW212919   7.307   3.429   7.641  2.3051 -0.7097  1.4591
 4036SOL     OW12920   5.879   7.676   4.519 -0.0060 -0.7387 -0.0030
 4036SOL    HW112921   5.840   7.589   4.525 -0.4755 -0.5484 -0.2811
 4036SOL    HW212922   5.908   7.695   4.608 -0.1763 -1.0514  0.1227
 4037SOL     OW12923   5.734   5.579   7.456 -0.2892 -1.0791 -0.4016
 4037SOL    HW112924   5.720   5.602   7.364 -0.4440  0.4858 -0.0084
 4037SOL    HW212925   5.723   5.662   7.503  0.2038 -1.7817  0.9816
 4038SOL     OW12926   3.194   2.843   5.091  0.5225  0.3097 -0.5031
 4038SOL    HW112927   3.210   2.786   5.167  0.0233  0.8625  0.0234
 4038SOL    HW212928   3.212   2.931   5.124  0.4720  0.5340 -1.0840
 4039SOL     OW12929   0.733   2.310   4.558 -0.2698 -0.3058  0.1454
 4039SOL    HW112930   0.645   2.304   4.595 -0.0552 -0.3144  0.6560
 4039SOL    HW212931   0.791   2.277   4.627  0.1962  0.3393  0.0646
 4040SOL     OW12932   3.381   3.544   6.714  0.8067  0.0037  0.6291
 4040SOL    HW112933   3.316   3.597   6.667 -1.0639 -2.6457  0.1515
 4040SOL    HW212934   3.441   3.514   6.646  0.4101 -0.5554  0.5262
 4041SOL     OW12935   4.229   1.337   6.062 -0.1807 -0.1280 -0.1465
 4041SOL    HW112936   4.262   1.252   6.088  0.3430  0.1614  0.1339
 4041SOL    HW212937   4.137   1.322   6.041 -0.8514 -0.2067  2.6614
 4042SOL     OW12938   5.046   3.444   5.097  0.3642  0.3074 -0.2491
 4042SOL    HW112939   5.137   3.462   5.076 -0.1972  2.5702 -0.8611
 4042SOL    HW212940   5.009   3.409   5.015  0.0077  2.0681 -0.8573
 4043SOL     OW12941   7.894   5.983   0.764  0.3356 -0.3304 -0.1614
 4043SOL    HW112942   7.963   6.042   0.735  0.2568 -1.0308 -1.8292
 4043SOL    HW212943   7.814   6.020   0.727  0.2775 -1.4046 -1.1493
 4044SOL     OW12944   1.208   1.629   0.461 -0.4445 -0.1380 -0.5091
 4044SOL    HW112945   1.190   1.552   0.407  0.2374 -1.5875  1.2483
 4044SOL    HW212946   1.302   1.623   0.480 -0.3070  1.3588 -0.7020
 4045SOL     OW12947   6.071   1.585   6.547  1.1284  0.1819  0.1825
 4045SOL    HW112948   6.026   1.539   6.476 -1.5748  0.8705  1.4037
 4045SOL    HW212949   6.063   1.526   6.622 -0.2247  1.5537  1.1299
 4046SOL     OW12950   2.231   7.000   1.540  0.3052 -0.0248  0.3325
 4046SOL    HW112951   2.217   7.053   1.618  0.2114  0.0727  0.2485
 4046SOL    HW212952   2.188   6.917   1.559  1.9520 -0.7151  1.1783
 4047SOL     OW12953   0.909   6.335   7.873 -0.5595  0.3875 -0.1721
 4047SOL    HW112954   0.917   6.251   7.919  1.1936  0.4571 -0.3048
 4047SOL    HW212955   0.950   6.399   7.932 -1.0671  1.0038 -0.4804
 4048SOL     OW12956   2.145   4.214   1.994  0.4253  0.5241  0.6985
 4048SOL    HW112957   2.136   4.119   1.987 -0.5331  0.6824 -0.1924
 4048SOL    HW212958   2.060   4.249   1.969  0.8641  1.6400  0.7217
 4049SOL     OW12959   5.879   4.778   2.408 -0.0404  0.1975 -0.7068
 4049SOL    HW112960   5.886   4.783   2.504 -0.4560  1.2993 -0.7331
 4049SOL    HW212961   5.835   4.695   2.392  1.5778 -0.8269 -0.0205
 4050SOL     OW12962   0.645   4.529   7.836  0.6065  0.5013 -0.9065
 4050SOL    HW112963   0.606   4.446   7.865  3.5297 -0.1186  1.3840
 4050SOL    HW212964   0.681   4.568   7.915  1.8601  2.5814 -2.4650
 4051SOL     OW12965   5.387   6.705   0.067 -0.2669  0.3051  0.0710
 4051SOL    HW112966   5.429   6.653   0.137 -0.0901 -0.4935 -0.6182
 4051SOL    HW212967   5.295   6.706   0.091 -0.3449 -0.7523 -0.1635
 4052SOL     OW12968   0.836   2.029   3.098  0.2271  0.0915  0.4033
 4052SOL    HW112969   0.789   2.049   3.017 -0.4647 -0.7350  0.5964
 4052SOL    HW212970   0.854   2.115   3.137  0.1918  0.4758 -0.4083
 4053SOL     OW12971   5.224   7.178   3.898 -0.5357 -0.1017  0.2228
 4053SOL    HW112972   5.161   7.123   3.944 -0.6672 -0.2482 -0.1370
 4053SOL    HW212973   5.171   7.237   3.845 -0.3444 -0.8341 -0.7876
 4054SOL     OW12974   7.343   1.486   2.768 -0.1026  0.3717  0.3034
 4054SOL    HW112975   7.368   1.447   2.852 -0.9394 -1.0786 -0.1100
 4054SOL    HW212976   7.423   1.527   2.736  1.2768 -2.4118  0.0034
 4055SOL     OW12977   3.552   1.912   3.270  0.3733 -0.5375  0.1709
 4055SOL    HW112978   3.473   1.959   3.295 -1.6903 -3.4819 -0.5143
 4055SOL    HW212979   3.583   1.958   3.191 -0.3514  0.9230  0.7193
 4056SOL     OW12980   5.798   5.250   3.449 -0.2406  0.0775 -0.0169
 4056SOL    HW112981   5.810   5.243   3.544 -1.5270 -1.0851  0.0853
 4056SOL    HW212982   5.757   5.335   3.437  0.5796  0.5337  0.4058
 4057SOL     OW12983   6.105   5.711   2.253  0.0972 -0.1736 -0.2344
 4057SOL    HW112984   6.059   5.628   2.237 -0.4967  0.2487 -0.7491
 4057SOL    HW212985   6.050   5.756   2.317 -0.8460  0.8360 -1.7145
 4058SOL     OW12986   1.734   2.623   2.430  0.2523 -0.3624  0.0988
 4058SOL    HW112987   1.676   2.639   2.504  1.0493  0.2581  0.5939
 4058SOL    HW212988   1.818   2.601   2.470  1.5634  3.1101 -0.5970
 4059SOL     OW12989   4.553   3.537   1.652 -0.1832  0.4612 -0.3399
 4059SOL    HW112990   4.462   3.565   1.652 -0.7046 -0.9166  3.0061
 4059SOL    HW212991   4.559   3.475   1.580 -2.4026 -0.8753  0.5720
 4060SOL     OW12992   6.885   4.251   4.334 -0.1492 -0.6858 -0.7638
 4060SOL    HW112993   6.953   4.313   4.361 -0.5519 -1.1007  1.2689
 4060SOL    HW212994   6.814   4.307   4.301 -0.4810 -0.0248  0.9927
 4061SOL     OW12995   0.182   3.840   5.632 -0.1442  0.5051  0.2033
 4061SOL    HW112996   0.268   3.802   5.612 -0.6224 -0.2967 -0.3648
 4061SOL    HW212997   0.121   3.793   5.575 -1.3039 -0.6789  2.3811
 4062SOL     OW12998   4.849   6.148   2.232  0.5277  0.0762 -0.0975
 4062SOL    HW112999   4.829   6.230   2.186  0.9707  1.3973  2.0125
 4062SOL    HW213000   4.766   6.100   2.231 -0.4259  1.6402  0.8092
 4063SOL     OW13001   2.491   5.522   7.029  0.5554 -0.3861  0.4932
 4063SOL    HW113002   2.411   5.499   7.076 -0.7133  1.5154 -0.6996
 4063SOL    HW213003   2.480   5.614   7.006  1.2511 -1.1820 -3.3312
 4064SOL     OW13004   3.641   2.247   7.735 -0.2699 -0.4330 -0.1882
 4064SOL    HW113005   3.608   2.169   7.779 -2.6651  1.3140  1.2372
 4064SOL    HW213006   3.627   2.229   7.642 -0.5863 -1.7896  0.1098
 4065SOL     OW13007   3.262   3.921   3.930 -0.1239 -0.1627  0.4616
 4065SOL    HW113008   3.319   3.908   4.006  1.7958 -0.9767 -1.0740
 4065SOL    HW213009   3.320   3.910   3.855 -1.9767  0.7508 -1.1257
 4066SOL     OW13010   1.173   3.186   2.403 -0.4695  0.2553  0.1827
 4066SOL    HW113011   1.079   3.196   2.413 -0.3593  1.9306 -0.2732
 4066SOL    HW213012   1.206   3.171   2.492 -1.2888 -1.5953  0.1867
 4067SOL     OW13013   5.337   6.562   2.099  0.0467 -0.0229  0.0846
 4067SOL    HW113014   5.415   6.612   2.077  1.3113 -1.9475  0.0882
 4067SOL    HW213015   5.347   6.538   2.191 -0.6744 -0.0709  0.1596
 4068SOL     OW13016   5.873   1.918   0.525 -0.4370  0.2601 -0.4460
 4068SOL    HW113017   5.962   1.908   0.558  0.6496  2.0237 -2.7277
 4068SOL    HW213018   5.827   1.963   0.596  0.3043 -1.1555  0.9714
 4069SOL     OW13019   5.841   3.115   4.590  0.2442  0.3829 -0.5961
 4069SOL    HW113020   5.819   3.200   4.553  0.2835  0.4211 -0.5309
 4069SOL    HW213021   5.883   3.135   4.673  1.5087  0.3527 -1.2027
 4070SOL     OW13022   1.376   4.310   0.201 -0.6826  0.9176 -0.3348
 4070SOL    HW113023   1.441   4.250   0.237 -1.0953  0.0717 -0.9714
 4070SOL    HW213024   1.296   4.258   0.197 -0.5787  0.8785 -2.7252
 4071SOL     OW13025   6.053   0.776   5.279  0.6286 -0.3827  0.3811
 4071SOL    HW113026   6.021   0.812   5.196  2.1351  0.8172  0.2969
 4071SOL    HW213027   5.978   0.731   5.316 -0.3103 -0.1878 -1.2261
 4072SOL     OW13028   6.413   2.005   6.823 -0.4441  0.0359  0.2259
 4072SOL    HW113029   6.378   2.080   6.871 -1.4344 -0.1886 -0.1355
 4072SOL    HW213030   6.350   1.934   6.839  0.4163 -0.6946  0.4686
 4073SOL     OW13031   0.880   3.252   4.062 -0.4336 -0.5029  0.5304
 4073SOL    HW113032   0.785   3.261   4.070 -0.2835  0.5600  1.2758
 4073SOL    HW213033   0.896   3.249   3.968 -1.0557  1.2365  0.3552
 4074SOL     OW13034   3.746   4.161   5.824 -0.4243  0.3840  0.1250
 4074SOL    HW113035   3.788   4.163   5.910 -0.4744  0.8085  0.1443
 4074SOL    HW213036   3.666   4.110   5.838  0.6402 -1.3848 -0.1817
 4075SOL     OW13037   4.880   4.766   3.052  1.0117  0.5835  0.6031
 4075SOL    HW113038   4.891   4.671   3.050  3.4556  0.8210  0.9492
 4075SOL    HW213039   4.843   4.789   2.967 -0.7228 -0.7900  0.9719
 4076SOL     OW13040   3.017   7.656   2.132 -0.4098 -0.0849 -0.1540
 4076SOL    HW113041   3.087   7.594   2.151 -1.4697 -1.5966 -0.9929
 4076SOL    HW213042   3.028   7.677   2.039 -1.0813 -0.3509 -0.2951
 4077SOL     OW13043   0.086   7.941   7.280 -0.2073  0.1953 -0.6364
 4077SOL    HW113044   0.066   7.849   7.298 -1.8694  0.6826  0.0531
 4077SOL    HW213045   0.098   7.980   7.367  0.2383  0.6891 -0.9161
 4078SOL     OW13046   0.003   0.215   1.192  0.0043 -0.2227 -0.1533
 4078SOL    HW113047  -0.016   0.178   1.279 -0.4952 -0.3717 -0.3247
 4078SOL    HW213048  -0.075   0.196   1.141 -0.4847  1.5888 -0.0950
 4079SOL     OW13049   4.933   4.172   5.446  0.3269  0.0110  0.2338
 4079SOL    HW113050   4.918   4.151   5.354  0.2791  1.1005 -0.0211
 4079SOL    HW213051   4.913   4.266   5.452  2.4721  0.4604  0.8660
 4080SOL     OW13052   5.556   3.103   2.289 -0.3200 -0.4671 -0.0260
 4080SOL    HW113053   5.493   3.075   2.355 -0.1847 -1.1673 -0.1855
 4080SOL    HW213054   5.630   3.043   2.300 -0.2147 -0.4610 -0.6759
 4081SOL     OW13055   3.777   0.469   5.038 -0.3998 -0.0495 -0.5423
 4081SOL    HW113056   3.872   0.470   5.028 -0.4900  0.6654 -1.5122
 4081SOL    HW213057   3.754   0.561   5.056 -0.9978  0.0104 -1.5210
 4082SOL     OW13058   5.728   0.538   7.424  0.0917 -0.5899 -0.0392
 4082SOL    HW113059   5.733   0.443   7.435  1.2316 -0.2957  2.1147
 4082SOL    HW213060   5.819   0.568   7.427 -0.3334  0.6865  0.3753
 4083SOL     OW13061   6.456   0.729   0.807  0.0711  0.0843 -0.0450
 4083SOL    HW113062   6.368   0.762   0.790  0.1597  0.6593  0.5743
 4083SOL    HW213063   6.514   0.799   0.778  0.3228 -0.2473 -0.3471
 4084SOL     OW13064   6.755   3.816   2.215 -1.1356  0.2056 -0.3219
 4084SOL    HW113065   6.811   3.780   2.146 -0.7608  1.4060 -0.6706
 4084SOL    HW213066   6.700   3.743   2.243  2.2913 -1.6902  1.7627
 4085SOL     OW13067   0.558   0.089   4.927  0.2505  0.3281 -0.3813
 4085SOL    HW113068   0.544  -0.005   4.940  0.8363  0.2891 -0.0376
 4085SOL    HW213069   0.597   0.120   5.009 -0.3887  0.9686 -0.3062
 4086SOL     OW13070   2.332   4.675   6.974 -0.6797  0.8500  0.0317
 4086SOL    HW113071   2.426   4.693   6.983 -0.7194  0.7634  0.7087
 4086SOL    HW213072   2.291   4.761   6.967 -0.3714  0.8379 -2.3683
 4087SOL     OW13073   1.266   0.339   7.528 -0.2851  0.1943  0.1751
 4087SOL    HW113074   1.255   0.244   7.535  0.9978  0.0550  0.2959
 4087SOL    HW213075   1.358   0.354   7.546 -0.4139  1.4399 -0.1801
 4088SOL     OW13076   0.047   2.810   2.605  0.7232  0.1671 -0.0551
 4088SOL    HW113077   0.054   2.772   2.518 -0.8144 -0.8056  0.2259
 4088SOL    HW213078   0.102   2.753   2.660 -0.0267 -0.5155  0.0015
 4089SOL     OW13079   0.031   0.053   2.861 -0.0287 -0.0078  0.0210
 4089SOL    HW113080   0.078   0.135   2.846  0.4258  0.1055  1.9638
 4089SOL    HW213081   0.013   0.052   2.955 -0.7805 -1.7432 -0.1174
 4090SOL     OW13082   5.214   7.501   5.535  0.4910 -0.1640  0.0294
 4090SOL    HW113083   5.223   7.489   5.441  0.0366  0.6575 -0.1202
 4090SOL    HW213084   5.268   7.431   5.573  0.2056 -0.8690 -0.8299
 4091SOL     OW13085   2.206   4.042   4.041 -0.0147  0.2990 -0.5219
 4091SOL    HW113086   2.190   3.955   4.005  1.0099 -0.2939  0.4193
 4091SOL    HW213087   2.237   4.026   4.130  0.7125  1.6070 -0.5227
 4092SOL     OW13088   5.938   6.437   1.462  0.3181 -0.2226  0.1477
 4092SOL    HW113089   5.870   6.374   1.483 -0.1244 -0.0343 -0.6844
 4092SOL    HW213090   5.891   6.517   1.439  0.7325 -0.5552 -1.9821
 4093SOL     OW13091   0.718   3.372   1.011 -0.1857  0.5574  0.2357
 4093SOL    HW113092   0.679   3.299   0.964 -1.1825  1.2052  0.0593
 4093SOL    HW213093   0.732   3.339   1.100  0.1646 -0.1238 -0.0704
 4094SOL     OW13094   0.337   0.326   7.808  0.5876 -0.0869 -0.3364
 4094SOL    HW113095   0.264   0.358   7.862 -0.0597 -0.6636 -0.8556
 4094SOL    HW213096   0.341   0.388   7.735  0.8867  0.1844 -0.0893
 4095SOL     OW13097   0.443   1.314   5.465  0.5030  0.7589  0.1925
 4095SOL    HW113098   0.529   1.303   5.505  1.5442  0.6475 -2.0125
 4095SOL    HW213099   0.462   1.338   5.374 -1.7866 -0.7957 -0.7263
 4096SOL     OW13100   2.905   4.370   3.152 -0.2967  0.3917 -0.3893
 4096SOL    HW113101   2.989   4.379   3.197  0.4153  0.0063 -1.6474
 4096SOL    HW213102   2.897   4.277   3.133  0.1106  0.7551 -2.4171
 4097SOL     OW13103   1.918   7.710   0.187  0.0544  0.2780 -0.1950
 4097SOL    HW113104   1.885   7.659   0.261  1.5748  0.9771  0.9857
 4097SOL    HW213105   1.851   7.777   0.172 -0.1909  0.2309  0.6592
 4098SOL     OW13106   3.670   0.671   1.866 -0.4256  0.5288 -0.3668
 4098SOL    HW113107   3.722   0.750   1.853  1.8673 -0.7390  0.7794
 4098SOL    HW213108   3.730   0.599   1.849 -2.0300 -0.9954  0.1848
 4099SOL     OW13109   1.815   7.184   4.438 -0.5459  0.0268 -0.8706
 4099SOL    HW113110   1.868   7.111   4.406  0.1551  0.1989 -0.1108
 4099SOL    HW213111   1.771   7.150   4.515  0.1994  0.5699 -0.2028
 4100SOL     OW13112   2.357   0.625   5.534  0.3210  0.9423  0.6051
 4100SOL    HW113113   2.391   0.660   5.451 -0.2759  2.8184  1.1259
 4100SOL    HW213114   2.425   0.647   5.598  0.1371  0.7574  0.8623
 4101SOL     OW13115   0.377   7.247   7.229 -0.1297  0.0848  0.3642
 4101SOL    HW113116   0.411   7.330   7.263  0.9854 -0.1999 -0.0496
 4101SOL    HW213117   0.432   7.180   7.268 -0.4004 -0.4022 -0.0894
 4102SOL     OW13118   0.261   3.315   1.547  0.2347  0.5941  0.3817
 4102SOL    HW113119   0.257   3.399   1.502 -2.6315  0.9356  1.1771
 4102SOL    HW213120   0.204   3.258   1.496  2.3375 -1.0029 -0.2890
 4103SOL     OW13121   4.416   6.218   2.005  0.4259 -0.1099  0.2751
 4103SOL    HW113122   4.476   6.286   1.974 -0.6269  0.7347  0.0532
 4103SOL    HW213123   4.348   6.266   2.052 -0.5446 -0.9765 -0.2315
 4104SOL     OW13124   1.989   1.333   3.582  0.4165 -0.2633 -0.1438
 4104SOL    HW113125   2.046   1.261   3.608  1.7615  1.0478  0.5752
 4104SOL    HW213126   1.902   1.305   3.610  0.7908 -1.9552 -0.5971
 4105SOL     OW13127   1.201   6.579   0.951  0.0894 -0.2102 -0.2993
 4105SOL    HW113128   1.168   6.538   1.031  0.4858  1.5835  0.8148
 4105SOL    HW213129   1.270   6.520   0.921 -1.3534 -1.8691 -0.3670
 4106SOL     OW13130   6.527   4.500   2.769 -0.0597 -0.1288  0.3548
 4106SOL    HW113131   6.516   4.405   2.770 -2.7999  0.1631  1.4387
 4106SOL    HW213132   6.509   4.526   2.679 -1.5563 -0.4004  0.5770
 4107SOL     OW13133   2.846   7.106   4.134  0.0796  0.2814  0.3494
 4107SOL    HW113134   2.812   7.055   4.208 -1.3570  1.8734  0.8293
 4107SOL    HW213135   2.927   7.144   4.166 -0.4855  0.8815  1.0759
 4108SOL     OW13136   3.717   1.440   5.276 -0.2903 -0.4487 -0.4091
 4108SOL    HW113137   3.772   1.518   5.286  1.1030 -1.1241 -2.4637
 4108SOL    HW213138   3.717   1.400   5.362  1.4222  0.2480 -0.0548
 4109SOL     OW13139   3.791   0.987   5.055  0.3477 -0.6115  0.1219
 4109SOL    HW113140   3.831   0.987   4.968  1.1655 -0.5106  0.4911
 4109SOL    HW213141   3.763   1.078   5.068 -1.6197 -1.0523 -0.8564
 4110SOL     OW13142   6.334   7.188   2.514 -0.5757 -0.4836 -0.0899
 4110SOL    HW113143   6.299   7.108   2.553  2.2801 -0.7407  2.1136
 4110SOL    HW213144   6.353   7.245   2.589 -0.4564  1.3990 -1.5004
 4111SOL     OW13145   3.684   4.600   3.706  0.2895 -0.3178 -0.7563
 4111SOL    HW113146   3.649   4.595   3.617 -1.2019 -0.3101 -0.1878
 4111SOL    HW213147   3.685   4.693   3.727  0.4509 -0.3326 -0.6935
 4112SOL     OW13148   5.087   3.899   6.870 -0.3345 -0.7095  0.4066
 4112SOL    HW113149   5.022   3.834   6.844  0.0094 -0.7733 -0.2898
 4112SOL    HW213150   5.122   3.867   6.953  0.2816 -1.7254 -0.2463
 4113SOL     OW13151   5.140   1.537   4.322 -0.0614 -0.4516 -0.2467
 4113SOL    HW113152   5.093   1.527   4.405 -1.0037 -0.2305 -0.7487
 4113SOL    HW213153   5.188   1.455   4.312 -0.5344 -0.7826  0.1560
 4114SOL     OW13154   7.264   6.002   4.844  0.3127 -0.0253  0.0046
 4114SOL    HW113155   7.317   6.057   4.786  0.5544 -0.7512 -0.4618
 4114SOL    HW213156   7.327   5.940   4.881 -0.1321 -0.5944 -0.1938
 4115SOL     OW13157   0.846   1.898   7.118 -0.6337  0.0322  0.5580
 4115SOL    HW113158   0.788   1.832   7.081 -0.0815 -0.5923  0.8084
 4115SOL    HW213159   0.849   1.967   7.052 -0.2636 -0.7268 -0.2275
 4116SOL     OW13160   7.394   7.656   2.113  0.2697  0.4986 -0.0400
 4116SOL    HW113161   7.457   7.591   2.083 -0.2227 -0.4170  0.8389
 4116SOL    HW213162   7.344   7.610   2.181  1.3083  2.4598  2.1112
 4117SOL     OW13163   1.197   6.320   3.758  0.3069 -0.1858 -0.1085
 4117SOL    HW113164   1.233   6.368   3.683  0.9677  0.0291  0.3366
 4117SOL    HW213165   1.104   6.341   3.758  0.3645  0.0731 -0.6783
 4118SOL     OW13166   7.668   7.418   0.040 -0.0011 -0.1409  0.1852
 4118SOL    HW113167   7.753   7.411  -0.004  0.7573  0.7591  1.4734
 4118SOL    HW213168   7.690   7.439   0.131 -1.5988 -0.2257  0.5999
 4119SOL     OW13169   1.159   7.806   5.882 -0.3078  0.1973  0.4743
 4119SOL    HW113170   1.202   7.784   5.964 -0.5172 -0.7717  0.3240
 4119SOL    HW213171   1.203   7.753   5.816 -0.7035  0.3392  0.0907
 4120SOL     OW13172   0.270   3.428   5.807 -0.2528  0.1105  0.4107
 4120SOL    HW113173   0.318   3.356   5.765 -0.9056  0.6304 -1.2632
 4120SOL    HW213174   0.178   3.406   5.794 -0.4543  0.9519  0.4175
 4121SOL     OW13175   5.862   7.673   4.246  0.8695  0.0336  0.1878
 4121SOL    HW113176   5.873   7.675   4.341  1.8594  0.1761  0.0816
 4121SOL    HW213177   5.931   7.730   4.213  2.5119 -2.4216 -0.7669
 4122SOL     OW13178   3.543   6.787   3.944 -0.2571 -0.1435  0.0663
 4122SOL    HW113179   3.592   6.832   3.875  0.9359 -1.2778  0.1670
 4122SOL    HW213180   3.451   6.799   3.919  0.1177  0.5775 -1.0046
 4123SOL     OW13181   5.019   5.771   0.570 -0.7499 -0.4070 -0.7099
 4123SOL    HW113182   5.039   5.781   0.477 -1.7426 -0.2462 -0.9090
 4123SOL    HW213183   5.105   5.769   0.612 -0.2812  3.4547 -1.2257
 4124SOL     OW13184   6.405   1.168   0.128 -0.1778 -0.4145 -0.4992
 4124SOL    HW113185   6.430   1.260   0.128 -2.0856  0.1536 -2.9398
 4124SOL    HW213186   6.318   1.166   0.088 -0.5829 -3.1829  0.3819
 4125SOL     OW13187   5.114   5.664   5.405 -0.1463  0.3619 -0.3260
 4125SOL    HW113188   5.094   5.576   5.437 -1.4143  1.1696  1.1569
 4125SOL    HW213189   5.179   5.650   5.336  0.8986 -1.6282  0.9975
 4126SOL     OW13190   4.608   2.251   1.271  0.4540  0.2732 -0.0507
 4126SOL    HW113191   4.652   2.166   1.282 -0.6109 -0.0674  1.6796
 4126SOL    HW213192   4.526   2.242   1.319 -0.7890  1.4590 -1.8890
 4127SOL     OW13193   6.958   0.321   1.793  0.2747 -0.1958  0.1193
 4127SOL    HW113194   7.006   0.293   1.715  0.0179  0.2302 -0.1977
 4127SOL    HW213195   7.010   0.288   1.867  1.3046  0.6692 -0.2052
 4128SOL     OW13196   6.501   2.168   0.012 -0.4954 -0.7144 -0.5580
 4128SOL    HW113197   6.425   2.129  -0.030 -0.5392  0.0421 -1.2014
 4128SOL    HW213198   6.496   2.261  -0.013  0.8447 -0.7371 -0.9279
 4129SOL     OW13199   7.854   7.866   6.218 -0.1135  0.1804  0.0035
 4129SOL    HW113200   7.769   7.893   6.183 -0.3573 -0.7777 -0.1580
 4129SOL    HW213201   7.835   7.838   6.307 -0.0272 -0.3470 -0.1419
 4130SOL     OW13202   2.176   1.034   4.083  0.0891 -0.0416  0.4091
 4130SOL    HW113203   2.117   1.035   4.007  0.6359  0.2783 -0.0211
 4130SOL    HW213204   2.120   1.053   4.158 -0.1248  1.8129 -0.1823
 4131SOL     OW13205   1.127   1.893   4.544 -0.0203 -0.4650  0.7800
 4131SOL    HW113206   1.037   1.891   4.577 -0.4062  1.9872 -0.0023
 4131SOL    HW213207   1.125   1.836   4.467 -1.4999  1.3256 -0.5605
 4132SOL     OW13208   7.846   4.473   6.408  0.3818  0.2990  0.5056
 4132SOL    HW113209   7.794   4.426   6.474  1.3337 -2.2784 -0.5134
 4132SOL    HW213210   7.789   4.479   6.332  0.0802  1.2776  0.8020
 4133SOL     OW13211   1.404   5.477   7.933 -0.0204 -0.7503  0.2345
 4133SOL    HW113212   1.498   5.461   7.919  0.4480 -0.2421  2.5091
 4133SOL    HW213213   1.400   5.566   7.967 -1.4571 -0.3726 -0.8772
 4134SOL     OW13214   6.576   7.832   0.421 -0.0946 -0.2253  0.1973
 4134SOL    HW113215   6.481   7.847   0.415  0.3381  2.7510  0.1801
 4134SOL    HW213216   6.598   7.787   0.340 -1.1637  1.0322 -0.8152
 4135SOL     OW13217   5.728   7.772   2.020  0.0925  0.5464 -0.0333
 4135SOL    HW113218   5.672   7.849   2.008  0.1950  0.5446 -0.5499
 4135SOL    HW213219   5.813   7.798   1.984  0.7068  0.8682  1.5930
 4136SOL     OW13220   4.753   2.756   0.453  0.3555 -0.1270 -0.0054
 4136SOL    HW113221   4.803   2.731   0.376 -0.6675  0.1028 -0.7429
 4136SOL    HW213222   4.670   2.709   0.446  0.4869 -0.5864  1.2645
 4137SOL     OW13223   7.319   4.863   0.583 -0.2791 -0.7686  0.0800
 4137SOL    HW113224   7.335   4.933   0.519 -0.1362  0.0614  1.0173
 4137SOL    HW213225   7.387   4.875   0.649  1.0814 -3.1178 -0.8265
 4138SOL     OW13226   0.020   4.592   4.047 -0.5686  0.4179 -0.4275
 4138SOL    HW113227  -0.065   4.624   4.020  0.2882  2.3903 -0.8397
 4138SOL    HW213228   0.027   4.614   4.140 -0.1044  1.1834 -0.6379
 4139SOL     OW13229   1.703   2.796   2.205 -0.0702  0.3208  0.3598
 4139SOL    HW113230   1.701   2.755   2.291 -1.2315  0.7314  0.5351
 4139SOL    HW213231   1.771   2.748   2.157 -0.5986 -1.0270  0.9426
 4140SOL     OW13232   1.848   5.398   0.357 -0.6213  0.4205  0.4772
 4140SOL    HW113233   1.807   5.478   0.321  0.3442  1.2203  1.1452
 4140SOL    HW213234   1.809   5.389   0.444 -1.1952 -0.1977  0.1622
 4141SOL     OW13235   7.183   3.334   6.289 -0.5342 -0.2422 -0.2614
 4141SOL    HW113236   7.173   3.286   6.372 -1.4968 -1.2525 -0.9419
 4141SOL    HW213237   7.278   3.343   6.278 -0.3884 -0.4897  0.7330
 4142SOL     OW13238   3.611   2.292   0.608 -0.0426 -0.3460  0.7085
 4142SOL    HW113239   3.696   2.323   0.580 -0.3209  0.0091  0.2504
 4142SOL    HW213240   3.602   2.323   0.698 -1.0975  2.5421 -0.3485
 4143SOL     OW13241   5.492   5.414   2.800 -0.2830  0.6831 -0.3449
 4143SOL    HW113242   5.473   5.330   2.841  0.6105  0.4025 -0.5034
 4143SOL    HW213243   5.442   5.412   2.718  0.8160 -0.2615 -1.0029
 4144SOL     OW13244   4.929   5.588   7.033 -0.0269 -0.1945  0.4934
 4144SOL    HW113245   4.851   5.538   7.010  0.0650 -0.5592  0.9658
 4144SOL    HW213246   4.907   5.679   7.012 -1.4505  0.0378  2.8674
 4145SOL     OW13247   7.623   2.857   1.501  0.1758  0.1901  0.8796
 4145SOL    HW113248   7.615   2.874   1.595 -3.4268 -1.7146  0.9877
 4145SOL    HW213249   7.608   2.763   1.493 -2.4525  0.7859 -1.8726
 4146SOL     OW13250   4.509   7.838   5.961  0.1724  0.6287  0.0338
 4146SOL    HW113251   4.546   7.912   6.007  1.1484  0.4933 -0.5068
 4146SOL    HW213252   4.523   7.763   6.019  0.8128  0.5675 -0.1981
 4147SOL     OW13253   7.677   1.203   1.694 -0.1679  0.2000 -0.8436
 4147SOL    HW113254   7.590   1.204   1.735  0.2720  0.7154  0.1002
 4147SOL    HW213255   7.686   1.114   1.659 -0.8855 -0.0063 -0.5090
 4148SOL     OW13256   3.649   6.688   1.910  0.0563 -0.3177 -0.1572
 4148SOL    HW113257   3.691   6.693   1.824  1.1494 -0.6992  0.3429
 4148SOL    HW213258   3.635   6.780   1.935 -0.7196 -0.2104 -0.9482
 4149SOL     OW13259   1.538   0.069   7.321 -0.1082 -0.2726 -0.4575
 4149SOL    HW113260   1.632   0.080   7.333 -0.4982 -0.4258  3.8099
 4149SOL    HW213261   1.525  -0.025   7.314 -0.0240 -0.3764  0.5817
 4150SOL     OW13262   7.427   3.763   6.720 -0.2346 -0.0548 -0.2418
 4150SOL    HW113263   7.443   3.705   6.645  1.5399 -0.1016  0.1531
 4150SOL    HW213264   7.458   3.712   6.795 -2.2730 -0.1241  0.5746
 4151SOL     OW13265   6.600   5.249   0.763  0.0147  0.3248  0.4598
 4151SOL    HW113266   6.558   5.331   0.737  0.2005 -0.0492 -1.0736
 4151SOL    HW213267   6.530   5.198   0.804  0.1445  1.6474  2.3501
 4152SOL     OW13268   3.615   6.797   1.506  0.3085  0.5221 -0.2744
 4152SOL    HW113269   3.633   6.857   1.434 -2.1720  0.7604 -0.7379
 4152SOL    HW213270   3.565   6.849   1.569 -2.6632 -1.2449 -1.0929
 4153SOL     OW13271   3.477   2.922   1.640  0.1333  0.3791  0.2284
 4153SOL    HW113272   3.393   2.876   1.637 -0.4374  1.4154  0.0977
 4153SOL    HW213273   3.534   2.873   1.580 -0.8016  0.5083 -0.7603
 4154SOL     OW13274   6.069   0.551   2.692 -0.0678  0.5152 -0.2768
 4154SOL    HW113275   6.030   0.531   2.777  0.7526 -1.1327 -0.2669
 4154SOL    HW213276   6.094   0.643   2.698 -0.9893  0.7009  0.8792
 4155SOL     OW13277   7.744   3.753   7.130 -0.2018 -0.2868 -0.2529
 4155SOL    HW113278   7.780   3.812   7.196 -1.3214 -1.0165  1.0218
 4155SOL    HW213279   7.684   3.808   7.079 -0.5688 -0.1080  0.3653
 4156SOL     OW13280   3.972   7.934   2.142  0.1288  0.3536 -0.0420
 4156SOL    HW113281   3.910   8.006   2.148 -1.0040 -0.7315  1.7988
 4156SOL    HW213282   3.980   7.916   2.049 -3.2069 -0.2126 -0.2577
 4157SOL     OW13283   0.425   0.207   1.331 -0.3633  0.3608 -0.1084
 4157SOL    HW113284   0.430   0.140   1.263 -2.1082 -0.9594  1.0018
 4157SOL    HW213285   0.362   0.271   1.298  0.7718  1.1328 -0.8530
 4158SOL     OW13286   2.902   6.323   2.266 -0.7593  0.3674  0.5627
 4158SOL    HW113287   2.962   6.272   2.211 -0.2464  0.2802  1.1919
 4158SOL    HW213288   2.959   6.367   2.329 -1.3462  0.4398  1.0466
 4159SOL     OW13289   0.370   0.932   0.951 -0.3541  0.1880  0.2727
 4159SOL    HW113290   0.324   0.874   0.890  1.2785 -1.4266  0.5358
 4159SOL    HW213291   0.419   0.992   0.895 -0.5291  0.0792  0.0024
 4160SOL     OW13292   1.599   0.284   6.683  0.1288 -0.8640  0.0988
 4160SOL    HW113293   1.606   0.189   6.673  1.3694 -0.7032 -0.6249
 4160SOL    HW213294   1.687   0.317   6.665 -0.0931  0.3529  1.2074
 4161SOL     OW13295   4.091   7.031   5.327 -0.1052 -0.1160 -0.4619
 4161SOL    HW113296   4.173   7.066   5.291 -0.7309  2.1793  0.2785
 4161SOL    HW213297   4.118   6.983   5.406  0.6330 -0.2599 -0.7987
 4162SOL     OW13298   4.263   5.476   1.768 -0.3755 -0.2015  0.6712
 4162SOL    HW113299   4.179   5.429   1.772 -0.3166 -0.1979  3.0728
 4162SOL    HW213300   4.322   5.417   1.723 -1.4520 -0.5485 -0.3153
 4163SOL     OW13301   3.975   6.823   6.301 -0.2234  0.1733 -0.1306
 4163SOL    HW113302   4.054   6.787   6.340  0.0691  2.7732  1.8321
 4163SOL    HW213303   4.006   6.883   6.233 -0.6373 -1.4111 -1.7575
 4164SOL     OW13304   6.771   7.139   6.480 -0.2371  0.2942  0.1188
 4164SOL    HW113305   6.691   7.102   6.516  1.1850 -3.0375  0.0317
 4164SOL    HW213306   6.752   7.151   6.387 -0.2348 -1.7169 -0.1537
 4165SOL     OW13307   2.131   1.885   6.989  0.7079 -0.5215 -0.2861
 4165SOL    HW113308   2.058   1.904   6.930  0.4097  1.5274  0.7175
 4165SOL    HW213309   2.209   1.905   6.938  0.5566 -1.6732 -0.9917
 4166SOL     OW13310   0.876   2.653   1.965 -0.2286 -0.3428  0.8721
 4166SOL    HW113311   0.905   2.588   2.029  0.3699 -0.6759  0.2707
 4166SOL    HW213312   0.781   2.657   1.977  0.0013  0.3559  2.4719
 4167SOL     OW13313   5.847   2.861   6.526 -0.3320  0.5868  0.5388
 4167SOL    HW113314   5.778   2.906   6.574 -0.4137  0.1607  0.8297
 4167SOL    HW213315   5.902   2.931   6.490 -0.0514  0.9073  1.5686
 4168SOL     OW13316   2.279   4.365   1.823 -0.1016 -0.5012 -0.3381
 4168SOL    HW113317   2.251   4.449   1.858 -0.0582 -1.1451  1.2879
 4168SOL    HW213318   2.245   4.301   1.885  2.7852 -1.4646  0.3021
 4169SOL     OW13319   3.590   5.978   1.405 -0.1923  0.0448 -0.5663
 4169SOL    HW113320   3.527   6.041   1.439  0.9845  1.6086 -1.2187
 4169SOL    HW213321   3.636   6.025   1.336  1.7731 -1.0243 -0.0134
 4170SOL     OW13322   3.666   1.718   4.383 -0.5372 -0.3534  0.1293
 4170SOL    HW113323   3.700   1.807   4.386  0.3308 -0.6857  0.5239
 4170SOL    HW213324   3.651   1.695   4.474  0.3202 -1.0019  0.1175
 4171SOL     OW13325   6.647   4.235   6.799 -0.5211 -0.4569 -0.1610
 4171SOL    HW113326   6.706   4.168   6.833  0.0553 -0.2021 -0.6427
 4171SOL    HW213327   6.626   4.289   6.876  0.2895 -0.2429 -0.0858
 4172SOL     OW13328   4.043   3.643   5.455 -0.2919  0.0187 -0.3452
 4172SOL    HW113329   3.960   3.684   5.433 -1.3443 -0.6230  2.2415
 4172SOL    HW213330   4.109   3.707   5.427 -1.7240  1.4220 -0.6080
 4173SOL     OW13331   4.519   0.535   1.263  0.4145 -0.3821  0.5862
 4173SOL    HW113332   4.459   0.557   1.191  0.2416 -2.4343  0.0915
 4173SOL    HW213333   4.468   0.549   1.342  0.2798  0.8847  0.3004
 4174SOL     OW13334   3.142   4.390   2.516 -0.2967 -0.0340  0.3159
 4174SOL    HW113335   3.205   4.459   2.496 -1.2290  0.6851 -0.1849
 4174SOL    HW213336   3.058   4.425   2.487 -0.7977 -1.3497  0.1278
 4175SOL     OW13337   2.668   5.460   1.865 -0.1257 -0.0494  0.4309
 4175SOL    HW113338   2.643   5.420   1.782  1.4733 -0.8564  0.3248
 4175SOL    HW213339   2.658   5.390   1.929  1.1596 -0.1737  0.4991
 4176SOL     OW13340   7.628   7.471   6.095 -0.2139  0.3720 -1.0437
 4176SOL    HW113341   7.692   7.404   6.072 -1.4193 -0.9484 -0.5914
 4176SOL    HW213342   7.602   7.450   6.184 -0.9335  1.1893 -1.0514
 4177SOL     OW13343   5.374   6.556   4.322  0.3152 -0.3883  0.0097
 4177SOL    HW113344   5.410   6.603   4.246 -0.2886 -0.5288 -0.3622
 4177SOL    HW213345   5.399   6.465   4.307  1.2506 -0.2361  0.5952
 4178SOL     OW13346   7.381   0.714   0.858 -0.0294  0.4261 -0.2224
 4178SOL    HW113347   7.317   0.644   0.848 -2.1758  2.0626  1.3562
 4178SOL    HW213348   7.329   0.795   0.855  1.6909  1.7583  2.8089
 4179SOL     OW13349   2.491   2.400   0.659  0.4192 -0.6313 -0.4993
 4179SOL    HW113350   2.520   2.348   0.735 -1.7049 -2.4772 -0.8835
 4179SOL    HW213351   2.417   2.451   0.693  0.8583  0.1939 -0.7864
 4180SOL     OW13352   6.934   7.537   4.186  0.1436 -0.4460 -0.2771
 4180SOL    HW113353   6.917   7.630   4.171  0.6340 -0.5940 -1.9346
 4180SOL    HW213354   6.892   7.517   4.269 -1.6988  0.7951 -0.8941
 4181SOL     OW13355   2.056   1.071   5.500 -0.2639 -0.2095  0.3003
 4181SOL    HW113356   2.133   1.128   5.495  1.1094 -2.0296  0.4144
 4181SOL    HW213357   2.091   0.985   5.523 -2.6327 -0.3993  3.6455
 4182SOL     OW13358   4.611   0.178   7.470 -0.0231 -0.2781  0.4004
 4182SOL    HW113359   4.613   0.217   7.382  2.5878 -1.7692 -0.2510
 4182SOL    HW213360   4.538   0.116   7.466 -1.0386  0.9267 -0.1418
 4183SOL     OW13361   7.128   4.965   5.353 -0.1958  0.4656  0.5378
 4183SOL    HW113362   7.055   4.934   5.300  0.7422 -0.1009 -0.4566
 4183SOL    HW213363   7.097   5.046   5.393 -1.9650 -0.6533  1.5148
 4184SOL     OW13364   5.506   0.174   0.170 -0.2702 -0.6456 -0.4271
 4184SOL    HW113365   5.587   0.170   0.119  0.5465  0.5253  0.7429
 4184SOL    HW213366   5.511   0.099   0.229  0.4106 -0.0363  0.2917
 4185SOL     OW13367   0.062   3.857   4.904  0.3704  0.3074 -0.4713
 4185SOL    HW113368   0.156   3.840   4.901  0.2384 -0.4476 -0.3732
 4185SOL    HW213369   0.023   3.789   4.849 -0.1457  0.3958 -0.2213
 4186SOL     OW13370   1.944   3.850   0.359 -0.2006  0.0815  0.2369
 4186SOL    HW113371   2.031   3.883   0.340 -0.6882  0.2938 -1.6941
 4186SOL    HW213372   1.893   3.929   0.379 -0.3174  0.1011 -0.1351
 4187SOL     OW13373   2.759   1.050   7.428 -0.1118  0.0354  0.2670
 4187SOL    HW113374   2.667   1.063   7.407 -0.1902  0.1658  0.6898
 4187SOL    HW213375   2.806   1.088   7.354 -0.3977 -0.0931  0.0182
 4188SOL     OW13376   1.842   4.657   2.776  0.1901 -0.0661  0.0425
 4188SOL    HW113377   1.765   4.684   2.727  0.2501  0.2278  0.1106
 4188SOL    HW213378   1.877   4.582   2.727 -1.2523 -1.4366  1.0875
 4189SOL     OW13379   2.731   2.682   0.192 -0.1360 -0.1719  0.1287
 4189SOL    HW113380   2.810   2.634   0.165  0.2249  0.0050  0.8518
 4189SOL    HW213381   2.764   2.756   0.243 -0.7946 -0.4527  0.9787
 4190SOL     OW13382   6.155   0.795   0.970 -0.7422 -0.0390  0.1601
 4190SOL    HW113383   6.079   0.748   1.005 -1.1281  0.2428 -0.2890
 4190SOL    HW213384   6.156   0.878   1.019 -0.4761 -0.2133  0.4560
 4191SOL     OW13385   5.246   3.229   0.647  0.0177  0.0442 -0.2076
 4191SOL    HW113386   5.167   3.223   0.593 -0.6017 -0.1913  0.7268
 4191SOL    HW213387   5.294   3.304   0.611 -0.9525  0.6117 -0.3330
 4192SOL     OW13388   4.635   6.578   5.434 -0.3638 -0.1560  0.3559
 4192SOL    HW113389   4.695   6.509   5.463 -1.6816 -1.5812 -0.2870
 4192SOL    HW213390   4.614   6.626   5.514  0.3318 -0.6653  0.8511
 4193SOL     OW13391   6.692   1.026   2.326 -0.1024  0.4185  0.1284
 4193SOL    HW113392   6.723   1.093   2.388 -1.6192 -0.9805  2.4467
 4193SOL    HW213393   6.635   1.074   2.266  0.8811  1.6711  0.1642
 4194SOL     OW13394   3.046   2.386   7.967 -0.0803  0.0497  0.4592
 4194SOL    HW113395   2.962   2.360   7.930  0.1535  0.2500 -0.2186
 4194SOL    HW213396   3.111   2.345   7.910  0.2920  1.9340 -0.5021
 4195SOL     OW13397   5.656   0.132   7.897 -0.0119  0.0766  0.0941
 4195SOL    HW113398   5.667   0.160   7.806  1.4049 -0.5988  0.0464
 4195SOL    HW213399   5.661   0.037   7.893 -0.6852  0.0066  0.7977
 4196SOL     OW13400   0.384   2.617   5.331 -0.4973 -0.2678  0.1692
 4196SOL    HW113401   0.327   2.554   5.377 -1.4113  0.7805  0.4875
 4196SOL    HW213402   0.349   2.702   5.355  1.3660  0.4060  0.5385
 4197SOL     OW13403   4.435   4.671   5.056  0.2787 -0.8485 -0.1854
 4197SOL    HW113404   4.491   4.698   5.129 -1.3711  1.4851  0.2824
 4197SOL    HW213405   4.402   4.585   5.081  0.7078 -0.6110  1.2378
 4198SOL     OW13406   5.171   6.564   4.129  0.5807  0.2193  0.2020
 4198SOL    HW113407   5.227   6.623   4.078 -0.3555  1.6030  0.7185
 4198SOL    HW213408   5.146   6.616   4.206 -0.0236 -0.9694  0.8175
 4199SOL     OW13409   7.702   3.795   3.957  0.2006 -0.2104  0.4754
 4199SOL    HW113410   7.757   3.716   3.951 -0.0418 -0.2918 -0.9131
 4199SOL    HW213411   7.711   3.824   4.048  2.0848 -0.5557  0.4268
 4200SOL     OW13412   6.219   0.966   4.715 -0.1465 -0.1308 -0.3880
 4200SOL    HW113413   6.179   1.018   4.785  0.6877 -2.1080  1.6433
 4200SOL    HW213414   6.217   0.876   4.748  2.5803 -0.7679 -1.8072
 4201SOL     OW13415   7.016   0.264   2.957  0.1420 -0.2535 -0.0951
 4201SOL    HW113416   7.066   0.191   2.993 -0.8350 -0.1918  1.4118
 4201SOL    HW213417   6.990   0.234   2.870  0.2161 -1.4858  0.2975
 4202SOL     OW13418   7.076   0.654   7.595  0.4192  0.1923  0.6463
 4202SOL    HW113419   7.093   0.644   7.502  1.2413  1.7040  0.6185
 4202SOL    HW213420   7.162   0.666   7.634  0.2547 -2.3108  1.8674
 4203SOL     OW13421   0.095   7.212   4.680  0.3841 -0.3485  0.1393
 4203SOL    HW113422   0.077   7.201   4.587  0.1399 -1.1461  0.2804
 4203SOL    HW213423   0.153   7.139   4.702 -0.3025 -0.6882  0.8191
 4204SOL     OW13424   3.210   0.499   7.807  0.4628 -0.5447 -0.3481
 4204SOL    HW113425   3.153   0.519   7.882  2.0558 -0.4081  0.8700
 4204SOL    HW213426   3.151   0.496   7.732 -1.2157 -0.8621  0.9396
 4205SOL     OW13427   3.821   3.763   4.476  0.1222  0.5427  0.2685
 4205SOL    HW113428   3.845   3.708   4.401 -0.6280  0.4482  0.0929
 4205SOL    HW213429   3.898   3.761   4.533 -0.5341 -2.1227  1.1173
 4206SOL     OW13430   7.014   2.716   0.885 -1.2647 -0.3291 -0.4857
 4206SOL    HW113431   7.002   2.810   0.897 -0.0774 -0.0319 -1.4895
 4206SOL    HW213432   7.026   2.705   0.791 -0.2484 -1.3401 -0.2537
 4207SOL     OW13433   4.099   0.129   4.995 -0.5830  0.3747 -0.0167
 4207SOL    HW113434   4.139   0.215   4.984  0.9065 -0.4436 -1.2704
 4207SOL    HW213435   4.081   0.100   4.906 -1.4672 -0.4257  0.4197
 4208SOL     OW13436   4.786   6.369   5.568  0.5886  0.3048  0.1483
 4208SOL    HW113437   4.831   6.347   5.650  1.7848  0.3609 -0.4794
 4208SOL    HW213438   4.708   6.314   5.568  0.8353 -0.0570  1.0941
 4209SOL     OW13439   5.800   2.350   3.362 -0.3825  0.0746  0.7773
 4209SOL    HW113440   5.789   2.296   3.284 -0.7249  1.5699 -0.2423
 4209SOL    HW213441   5.725   2.330   3.417  0.1400 -1.3831  0.9616
 4210SOL     OW13442   1.264   7.048   7.334  0.5303  0.2035  0.6304
 4210SOL    HW113443   1.332   7.116   7.336 -1.0037  1.8283 -0.9858
 4210SOL    HW213444   1.186   7.093   7.303 -1.0786 -1.8549  1.5609
 4211SOL     OW13445   5.035   1.710   4.887 -0.0915  0.0912  0.2101
 4211SOL    HW113446   4.993   1.770   4.948 -1.2419  1.1777 -1.5874
 4211SOL    HW213447   5.080   1.646   4.942  0.4406  2.1136  2.1452
 4212SOL     OW13448   3.339   1.951   4.377 -0.3553  0.4865  0.6804
 4212SOL    HW113449   3.305   1.862   4.388  1.1537 -0.0454  1.2733
 4212SOL    HW213450   3.401   1.961   4.449 -1.3709  2.4618  1.3081
 4213SOL     OW13451   0.656   6.443   5.601  0.1077  0.2209 -0.1550
 4213SOL    HW113452   0.595   6.434   5.674  0.2337 -1.7055 -0.2777
 4213SOL    HW213453   0.727   6.497   5.636 -0.8390  1.0626  0.5049
 4214SOL     OW13454   0.197   0.384   6.033 -0.4580 -0.6472  0.3492
 4214SOL    HW113455   0.285   0.382   6.071 -0.3649 -2.7737  0.0797
 4214SOL    HW213456   0.209   0.351   5.944 -1.1666  1.3660 -0.5278
 4215SOL     OW13457   0.442   5.497   5.743  0.0518 -0.5305 -0.0114
 4215SOL    HW113458   0.470   5.434   5.810  0.8711 -0.6431 -0.4433
 4215SOL    HW213459   0.425   5.443   5.666 -0.8124 -0.3936  0.0853
 4216SOL     OW13460   5.505   6.953   1.006 -0.4549 -0.3778 -0.6323
 4216SOL    HW113461   5.579   6.985   1.058 -0.0897 -0.6070 -1.0027
 4216SOL    HW213462   5.485   7.025   0.946 -0.0535 -0.5854 -1.0258
 4217SOL     OW13463   5.480   7.908   6.720  0.0710  0.2072 -0.3170
 4217SOL    HW113464   5.520   7.824   6.744  0.4581  0.2139 -0.9196
 4217SOL    HW213465   5.493   7.914   6.625 -2.6365 -0.4534 -0.7872
 4218SOL     OW13466   4.217   2.563   7.407 -0.0441 -0.6221  0.2164
 4218SOL    HW113467   4.158   2.625   7.365 -0.9563 -1.4766  0.2132
 4218SOL    HW213468   4.304   2.585   7.373 -0.2252  1.2215  0.9130
 4219SOL     OW13469   5.438   2.916   4.846 -0.2392 -0.3690 -0.4707
 4219SOL    HW113470   5.373   2.879   4.787  0.6365 -0.6302 -1.2977
 4219SOL    HW213471   5.473   2.991   4.798 -1.8196  1.4077  1.0778
 4220SOL     OW13472   5.983   2.224   0.970 -0.3658  0.3749 -0.4996
 4220SOL    HW113473   5.900   2.209   1.015 -0.2654  1.3148  0.0090
 4220SOL    HW213474   5.964   2.296   0.910 -0.0215  0.3181 -0.6733
 4221SOL     OW13475   5.420   4.263   2.826  0.2693  0.2611  0.1219
 4221SOL    HW113476   5.431   4.168   2.830  1.5289  0.4379  1.6213
 4221SOL    HW213477   5.326   4.276   2.819  0.1401 -1.1165 -0.8650
 4222SOL     OW13478   5.689   4.616   2.650  0.5942  0.1622 -0.1918
 4222SOL    HW113479   5.748   4.541   2.655  2.0246  1.3113  0.3432
 4222SOL    HW213480   5.746   4.693   2.656 -0.9756  1.2953  0.7020
 4223SOL     OW13481   1.404   0.922   4.310 -0.6071 -0.4905 -0.0731
 4223SOL    HW113482   1.310   0.908   4.321 -0.6308 -0.7213 -0.5424
 4223SOL    HW213483   1.427   0.866   4.236  0.3375 -2.2195  1.4967
 4224SOL     OW13484   7.793   3.517   7.643 -0.3559 -0.1467 -0.1905
 4224SOL    HW113485   7.838   3.586   7.691  0.8654 -0.0921 -1.3817
 4224SOL    HW213486   7.764   3.558   7.562 -0.4956 -0.7693 -0.4622
 4225SOL     OW13487   1.050   2.572   7.100  0.6987 -0.3225  0.0708
 4225SOL    HW113488   1.114   2.637   7.127  0.9715 -1.0532  1.1961
 4225SOL    HW213489   1.098   2.514   7.041  0.7183 -0.0825 -0.1481
 4226SOL     OW13490   4.904   6.066   6.883  0.3348  0.1783  0.4866
 4226SOL    HW113491   4.998   6.051   6.866  0.4379 -0.4787  1.5749
 4226SOL    HW213492   4.903   6.130   6.954 -0.0614  1.0411 -0.2929
 4227SOL     OW13493   5.670   6.956   4.112 -0.2294 -0.1801 -0.1962
 4227SOL    HW113494   5.737   7.001   4.060  1.6812 -0.4155  1.9664
 4227SOL    HW213495   5.608   7.025   4.136  0.4751  0.5069 -0.3147
 4228SOL     OW13496   3.120   1.421   7.270  0.1079 -0.0763  0.1207
 4228SOL    HW113497   3.032   1.457   7.275 -0.2952 -1.1217  0.7099
 4228SOL    HW213498   3.120   1.368   7.190  0.0372 -0.5051  0.4041
 4229SOL     OW13499   2.695   4.446   1.169 -0.2403  0.8213 -0.2698
 4229SOL    HW113500   2.664   4.490   1.249 -0.1325  0.6165 -0.1154
 4229SOL    HW213501   2.614   4.426   1.121 -0.2823  1.2942 -0.3964
 4230SOL     OW13502   5.780   5.387   0.796  0.5898 -0.4279 -0.4403
 4230SOL    HW113503   5.720   5.452   0.760  1.1078 -0.4822 -1.4176
 4230SOL    HW213504   5.729   5.342   0.863  0.1386  0.8060  0.0642
 4231SOL     OW13505   5.562   6.789   2.569 -0.0376  0.6553  0.1594
 4231SOL    HW113506   5.519   6.733   2.506  0.5468  0.0625  0.2874
 4231SOL    HW213507   5.490   6.831   2.617 -0.4864 -0.8596  0.8452
 4232SOL     OW13508   0.579   3.650   4.674  0.9962  0.4240 -0.4242
 4232SOL    HW113509   0.674   3.638   4.675  0.9410 -0.0669 -1.2030
 4232SOL    HW213510   0.544   3.564   4.696  0.7022  0.2160 -1.6617
 4233SOL     OW13511   7.024   7.579   0.845  0.5903  0.8886 -0.0693
 4233SOL    HW113512   6.936   7.616   0.832  0.9456  2.0360  0.6961
 4233SOL    HW213513   7.038   7.584   0.939  1.8926  1.7017 -0.2951
 4234SOL     OW13514   7.037   6.933   1.237 -0.3586  0.5916  0.3312
 4234SOL    HW113515   6.996   6.847   1.248  2.0916 -0.5744  0.4703
 4234SOL    HW213516   7.052   6.940   1.143 -1.0227  1.1242  0.2537
 4235SOL     OW13517   2.783   0.645   5.638 -0.2079 -0.2410 -0.4475
 4235SOL    HW113518   2.699   0.607   5.663  0.4162  0.0455  2.2581
 4235SOL    HW213519   2.761   0.722   5.586 -1.5776 -1.1927 -1.2973
 4236SOL     OW13520   3.068   1.124   3.785  0.0343  0.2120 -0.0493
 4236SOL    HW113521   2.987   1.097   3.828 -0.4515 -1.7979 -2.1105
 4236SOL    HW213522   3.109   1.185   3.846 -2.2529  0.0318  1.7211
 4237SOL     OW13523   0.187   2.909   0.228  0.3646  0.0843 -0.1125
 4237SOL    HW113524   0.206   2.858   0.149 -0.1726  2.6021 -1.9457
 4237SOL    HW213525   0.099   2.943   0.212  0.6639  1.4443  1.1412
 4238SOL     OW13526   7.132   0.603   2.338 -0.6558 -0.3418  0.2936
 4238SOL    HW113527   7.058   0.590   2.278 -0.3248  0.2283 -0.2455
 4238SOL    HW213528   7.183   0.522   2.331 -1.9875 -1.3363  1.7574
 4239SOL     OW13529   2.407   4.641   1.759 -0.3431  0.1585  0.4664
 4239SOL    HW113530   2.449   4.713   1.712  1.8446 -0.9947  0.6240
 4239SOL    HW213531   2.452   4.638   1.843 -1.8226 -0.0975  1.2717
 4240SOL     OW13532   6.363   2.761   7.360  0.1923  0.1683  0.0513
 4240SOL    HW113533   6.349   2.669   7.382 -1.3591 -0.3376 -2.7039
 4240SOL    HW213534   6.432   2.790   7.419 -0.0089 -2.4832  1.6695
 4241SOL     OW13535   4.629   0.082   6.073 -0.7039  0.1791  0.4281
 4241SOL    HW113536   4.596   0.151   6.015  1.1825  1.6242  1.0209
 4241SOL    HW213537   4.713   0.057   6.034  0.2734  0.7070  2.1830
 4242SOL     OW13538   4.834   4.803   3.789 -0.2873  0.1200  0.2585
 4242SOL    HW113539   4.821   4.866   3.717 -0.8980 -1.1484 -0.7656
 4242SOL    HW213540   4.809   4.851   3.868  0.6458  1.6240 -0.3395
 4243SOL     OW13541   6.893   5.453   2.517 -0.0323  0.0869  0.2585
 4243SOL    HW113542   6.864   5.508   2.444  0.3564 -1.9286 -1.4730
 4243SOL    HW213543   6.986   5.476   2.529 -0.2524  0.8448  0.5192
 4244SOL     OW13544   7.830   1.966   6.536  0.0044  0.1955 -0.4330
 4244SOL    HW113545   7.886   2.039   6.564  1.3436 -1.6463  1.9465
 4244SOL    HW213546   7.761   1.963   6.602 -0.7640  0.0984 -1.2428
 4245SOL     OW13547   6.488   0.778   5.472  0.2655 -0.2149 -0.1545
 4245SOL    HW113548   6.399   0.801   5.445  0.5221 -1.8885 -2.5921
 4245SOL    HW213549   6.478   0.745   5.561 -1.5530 -0.3230 -0.3736
 4246SOL     OW13550   1.913   4.584   1.203  0.1579 -0.1787  0.0920
 4246SOL    HW113551   1.895   4.508   1.258 -0.4202  1.0554  1.6390
 4246SOL    HW213552   1.987   4.627   1.244 -1.7579  2.0630  1.3145
 4247SOL     OW13553   2.518   1.431   6.118  0.5737  0.6610 -0.1406
 4247SOL    HW113554   2.501   1.439   6.024 -0.1430 -0.0760 -0.0758
 4247SOL    HW213555   2.611   1.410   6.125  0.3033 -0.7579 -0.7548
 4248SOL     OW13556   3.677   6.722   6.992  0.2774 -0.5434 -0.3623
 4248SOL    HW113557   3.643   6.696   6.907  0.1678 -0.8054 -0.2387
 4248SOL    HW213558   3.605   6.706   7.053 -0.1432  0.9931 -0.4246
 4249SOL     OW13559   5.943   4.907   3.474  0.3349 -0.0746  0.3560
 4249SOL    HW113560   5.965   4.818   3.449  1.8549  1.2374 -3.3174
 4249SOL    HW213561   5.870   4.931   3.417  1.6875  1.8884 -0.6303
 4250SOL     OW13562   5.124   7.900   2.146 -0.0913 -0.4230 -0.2929
 4250SOL    HW113563   5.199   7.861   2.100 -0.1136 -1.3369  0.4256
 4250SOL    HW213564   5.048   7.875   2.093 -0.0654 -1.0477 -0.0451
 4251SOL     OW13565   3.937   6.492   2.947  0.3223 -0.3843 -0.0367
 4251SOL    HW113566   3.850   6.514   2.914  0.1315  0.5962  1.0764
 4251SOL    HW213567   3.997   6.548   2.897  0.0653  0.8438  1.0058
 4252SOL     OW13568   5.359   4.254   7.625 -0.1881  0.3293 -0.3653
 4252SOL    HW113569   5.419   4.287   7.692  1.7363 -0.8345 -1.4995
 4252SOL    HW213570   5.409   4.190   7.576 -1.6858  0.8790 -2.7064
 4253SOL     OW13571   0.287   5.861   1.238 -0.3390  0.1430 -0.0731
 4253SOL    HW113572   0.349   5.907   1.295 -0.1775 -0.2623  0.0767
 4253SOL    HW213573   0.335   5.786   1.204 -0.1584  0.8645 -1.4436
 4254SOL     OW13574   3.247   2.967   6.629 -0.2253  0.4572  0.7831
 4254SOL    HW113575   3.189   2.891   6.624 -1.8489  1.7365 -0.3070
 4254SOL    HW213576   3.301   2.950   6.707 -0.9221 -1.5319  0.8736
 4255SOL     OW13577   6.955   7.745   1.340 -0.1096 -0.4516  0.4893
 4255SOL    HW113578   6.902   7.671   1.369  1.0678 -1.1460  0.8755
 4255SOL    HW213579   6.894   7.818   1.338 -0.9986 -1.1575  1.2992
 4256SOL     OW13580   6.323   7.567   2.264  0.0546  0.0043 -0.4128
 4256SOL    HW113581   6.337   7.520   2.346 -0.8931 -0.9065 -0.7659
 4256SOL    HW213582   6.262   7.512   2.214  0.3518  0.7125 -1.5852
 4257SOL     OW13583   0.982   5.706   0.449 -0.0045  0.8858 -0.2848
 4257SOL    HW113584   0.994   5.786   0.397 -2.1817  1.7770  0.5386
 4257SOL    HW213585   0.939   5.645   0.389 -1.7928  1.6431  0.2104
 4258SOL     OW13586   1.145   3.318   1.772  0.2181  0.0932  0.4936
 4258SOL    HW113587   1.093   3.356   1.701 -0.1910 -1.2138  0.0930
 4258SOL    HW213588   1.093   3.334   1.851  0.2888  0.8205  0.3956
 4259SOL     OW13589   7.050   5.539   1.024  0.5544 -0.4673  0.4334
 4259SOL    HW113590   7.066   5.601   1.096  0.4963 -1.1801  1.0622
 4259SOL    HW213591   7.068   5.590   0.945  2.7906 -0.2817  1.0019
 4260SOL     OW13592   6.093   3.187   3.170  0.2695 -0.9054 -0.3835
 4260SOL    HW113593   6.163   3.233   3.123 -0.4677  0.7183  0.0548
 4260SOL    HW213594   6.134   3.107   3.202  1.8574 -0.1153 -0.3669
 4261SOL     OW13595   3.354   6.868   6.798 -0.2326  0.1683  0.0830
 4261SOL    HW113596   3.416   6.935   6.770  0.2010 -0.2826 -0.0419
 4261SOL    HW213597   3.284   6.871   6.733  0.4246 -0.3851 -0.6632
 4262SOL     OW13598   5.861   4.216   2.364 -0.0121  0.8347 -0.6120
 4262SOL    HW113599   5.825   4.193   2.279  0.7363  0.3448 -0.8079
 4262SOL    HW213600   5.824   4.152   2.424  2.6673 -1.4735 -1.2879
 4263SOL     OW13601   5.167   7.041   5.329  0.2373  0.3420  0.3920
 4263SOL    HW113602   5.248   6.990   5.338 -0.7426 -0.7852  3.6658
 4263SOL    HW213603   5.103   6.979   5.293  0.0972  0.3955  0.5460
 4264SOL     OW13604   3.864   5.621   3.493 -0.6020 -0.4335  0.3240
 4264SOL    HW113605   3.789   5.565   3.473  0.4310 -1.3698 -1.0281
 4264SOL    HW213606   3.889   5.659   3.408 -0.0700  0.5203  0.9020
 4265SOL     OW13607   4.786   4.970   6.153 -0.0521  0.0448  0.3891
 4265SOL    HW113608   4.876   4.994   6.178  0.3296 -2.7002  1.8947
 4265SOL    HW213609   4.752   4.924   6.230 -2.4926  0.3184 -0.4884
 4266SOL     OW13610   5.562   6.064   6.662 -0.5719  0.3417 -0.2056
 4266SOL    HW113611   5.515   5.989   6.625  0.4537 -0.1795 -0.4508
 4266SOL    HW213612   5.574   6.041   6.754  0.8114 -0.3468 -0.5443
 4267SOL     OW13613   1.327   6.191   4.562 -0.1004 -0.3858  0.2789
 4267SOL    HW113614   1.400   6.249   4.587  0.6818 -0.6764 -1.2501
 4267SOL    HW213615   1.308   6.215   4.471 -1.2673 -1.0046  0.3488
 4268SOL     OW13616   7.709   0.304   2.045 -0.1378  0.2294 -0.1977
 4268SOL    HW113617   7.791   0.255   2.039  0.1454  0.5449  0.9661
 4268SOL    HW213618   7.649   0.243   2.089 -1.0405 -0.6284 -2.5383
 4269SOL     OW13619   7.567   3.697   1.589 -0.3897  0.3188 -0.2562
 4269SOL    HW113620   7.548   3.789   1.574  0.9027  0.3940 -1.5466
 4269SOL    HW213621   7.662   3.694   1.602 -0.5053 -0.7481  0.4172
 4270SOL     OW13622   2.821   5.757   6.669 -0.1665 -0.3084 -0.1940
 4270SOL    HW113623   2.755   5.700   6.709 -0.2821 -0.4452 -0.5826
 4270SOL    HW213624   2.860   5.804   6.743  0.0258 -0.9937  0.1413
 4271SOL     OW13625   4.458   2.333   2.622 -0.3551 -0.4866  0.0571
 4271SOL    HW113626   4.478   2.414   2.576  0.1074 -1.2908 -1.2081
 4271SOL    HW213627   4.364   2.336   2.638 -0.3274  0.3220  0.0611
 4272SOL     OW13628   3.131   0.430   7.079  0.2633  0.3608  0.2378
 4272SOL    HW113629   3.074   0.380   7.021  1.0293 -1.9188  1.3836
 4272SOL    HW213630   3.208   0.449   7.027 -0.1386  0.5429 -0.2906
 4273SOL     OW13631   3.980   0.280   7.048  0.0694 -0.1737  0.3520
 4273SOL    HW113632   3.992   0.372   7.074 -0.5646  0.1793 -0.5644
 4273SOL    HW213633   4.048   0.233   7.095  0.0901  0.7054  1.2133
 4274SOL     OW13634   7.926   1.420   2.963 -0.3392  0.2934 -0.1650
 4274SOL    HW113635   7.901   1.329   2.982 -0.2051  0.2840 -0.0355
 4274SOL    HW213636   7.847   1.470   2.982 -0.4083  0.2069 -0.2179
 4275SOL     OW13637   1.494   6.878   4.851  0.2071  0.7396  0.0243
 4275SOL    HW113638   1.535   6.793   4.836  1.1904  1.4202 -1.2409
 4275SOL    HW213639   1.407   6.857   4.886  0.8311 -0.7498  0.7265
 4276SOL     OW13640   1.890   7.030   5.585 -0.0843 -0.2131 -0.4840
 4276SOL    HW113641   1.920   6.948   5.546  1.2793 -0.4460  1.0188
 4276SOL    HW213642   1.943   7.098   5.543  0.4462 -0.3272  0.0121
 4277SOL     OW13643   7.870   1.374   4.091  0.1342 -0.8190 -0.1331
 4277SOL    HW113644   7.819   1.455   4.085 -1.1609 -1.7000 -1.2259
 4277SOL    HW213645   7.856   1.343   4.180 -0.6413 -0.6744 -0.2051
 4278SOL     OW13646   6.611   2.262   5.667 -0.4803  0.0329 -0.2419
 4278SOL    HW113647   6.671   2.336   5.670  0.1889 -0.4864 -0.6181
 4278SOL    HW213648   6.545   2.288   5.603  0.3342 -0.1182 -1.1576
 4279SOL     OW13649   5.745   6.350   7.278  0.1944  0.1207 -0.2876
 4279SOL    HW113650   5.803   6.426   7.275 -1.0159  1.0027 -4.0789
 4279SOL    HW213651   5.669   6.380   7.329  0.5105  0.8375 -0.2332
 4280SOL     OW13652   7.788   3.511   2.251 -0.2026  0.3563 -0.9819
 4280SOL    HW113653   7.755   3.562   2.325  0.1776 -1.5371  0.5503
 4280SOL    HW213654   7.720   3.518   2.184 -1.0812  1.1784 -0.0248
 4281SOL     OW13655   6.793   2.588   5.761  0.7281  0.1086 -0.2621
 4281SOL    HW113656   6.819   2.520   5.700 -0.0360  0.6625 -1.2264
 4281SOL    HW213657   6.737   2.646   5.710 -1.6634 -0.5662  1.5170
 4282SOL     OW13658   3.099   4.945   5.061  0.2103 -0.0633 -0.2863
 4282SOL    HW113659   3.109   5.014   4.997  0.6420  0.1320 -0.0167
 4282SOL    HW213660   3.044   4.982   5.129  2.1779  0.7720  0.9015
 4283SOL     OW13661   2.017   0.999   6.194 -0.1752 -0.8195 -0.3982
 4283SOL    HW113662   2.113   1.006   6.191 -0.1502 -1.6312 -2.2974
 4283SOL    HW213663   1.987   1.090   6.201  0.7487 -0.6059  0.9004
 4284SOL     OW13664   0.363   0.694   5.996 -0.2419 -0.0469 -0.2118
 4284SOL    HW113665   0.345   0.732   5.910 -0.1846 -0.6932 -0.5077
 4284SOL    HW213666   0.435   0.633   5.982 -1.2931 -1.3464 -0.0061
 4285SOL     OW13667   7.628   7.396   3.422  0.0216  0.5948 -0.5597
 4285SOL    HW113668   7.703   7.380   3.366 -0.9844 -0.2369 -1.7012
 4285SOL    HW213669   7.631   7.325   3.486  0.6691  1.0417 -0.0856
 4286SOL     OW13670   1.309   1.650   4.562  0.5280 -0.5123  0.4443
 4286SOL    HW113671   1.348   1.738   4.558 -0.7170  0.0699  1.0103
 4286SOL    HW213672   1.243   1.650   4.493  0.2577 -0.8749  0.7057
 4287SOL     OW13673   1.577   5.896   6.540 -0.8192 -0.6201  0.7483
 4287SOL    HW113674   1.603   5.845   6.464  0.4256  1.3476 -0.2048
 4287SOL    HW213675   1.638   5.870   6.609  0.3373  0.1542  0.0312
 4288SOL     OW13676   6.819   0.768   2.072 -0.4134  0.9118 -0.0990
 4288SOL    HW113677   6.908   0.777   2.040  0.0593 -0.8243  0.6833
 4288SOL    HW213678   6.828   0.747   2.165 -1.5839 -0.7268 -0.3311
 4289SOL     OW13679   0.317   4.068   3.026 -0.3433 -0.6197  0.0533
 4289SOL    HW113680   0.369   3.997   3.062 -1.1985 -0.2656  2.0487
 4289SOL    HW213681   0.240   4.073   3.083 -2.7448 -1.3372 -2.9912
 4290SOL     OW13682   0.610   0.746   5.288  0.1335 -0.0424 -0.0300
 4290SOL    HW113683   0.578   0.661   5.320  0.9504 -0.7017 -0.9406
 4290SOL    HW213684   0.705   0.740   5.294  0.1759  1.0424  0.4678
 4291SOL     OW13685   4.276   6.429   6.747 -0.2830  0.1224  0.2384
 4291SOL    HW113686   4.354   6.373   6.747 -1.0218 -0.9504  1.6110
 4291SOL    HW213687   4.297   6.499   6.685  0.2907 -2.2143 -2.3216
 4292SOL     OW13688   1.296   6.882   2.568  0.5891 -0.0827  0.0367
 4292SOL    HW113689   1.241   6.840   2.634 -1.0508  1.2457 -0.4743
 4292SOL    HW213690   1.340   6.953   2.614  1.1616 -0.5336  0.2043
 4293SOL     OW13691   3.639   3.358   5.865 -0.6959 -0.6914  0.0530
 4293SOL    HW113692   3.610   3.384   5.777  0.3910  0.6105  0.0560
 4293SOL    HW213693   3.734   3.349   5.857 -0.4352  0.6258  1.3619
 4294SOL     OW13694   6.106   3.030   1.558 -0.3717  0.7770  0.0603
 4294SOL    HW113695   6.115   3.081   1.477 -1.6247  1.0282  0.0689
 4294SOL    HW213696   6.146   3.085   1.626  4.0585 -0.9932 -0.9258
 4295SOL     OW13697   7.787   6.013   2.848 -0.2117 -0.2216  0.5230
 4295SOL    HW113698   7.878   6.015   2.818 -0.3664 -1.8982 -0.1055
 4295SOL    HW213699   7.792   5.982   2.938 -0.1744 -0.4263  0.4502
 4296SOL     OW13700   5.132   4.999   0.036  0.7861 -0.0499 -0.1142
 4296SOL    HW113701   5.207   5.049   0.004  0.6995  1.0409  1.3468
 4296SOL    HW213702   5.057   5.036  -0.010  0.9564 -0.0750 -0.4114
 4297SOL     OW13703   0.244   4.017   5.103 -0.1752 -0.5752 -0.1750
 4297SOL    HW113704   0.307   4.020   5.030 -1.2271 -0.8627 -1.1057
 4297SOL    HW213705   0.162   3.990   5.063 -0.9434 -0.0480  1.0052
 4298SOL     OW13706   6.751   3.185   1.714 -0.4814 -0.3634  0.1334
 4298SOL    HW113707   6.753   3.221   1.802  1.9661  1.3361 -0.5841
 4298SOL    HW213708   6.795   3.101   1.721  1.7523  0.7777  0.1236
 4299SOL     OW13709   5.522   5.905   1.777 -0.5504 -0.0165  0.0419
 4299SOL    HW113710   5.441   5.949   1.801 -0.9042 -1.1867  1.0632
 4299SOL    HW213711   5.497   5.849   1.703 -0.7462 -0.5413  0.4944
 4300SOL     OW13712   2.290   6.178   1.318  0.3128  0.4955 -0.1475
 4300SOL    HW113713   2.364   6.206   1.265 -1.1037  0.8418 -1.9908
 4300SOL    HW213714   2.213   6.193   1.263 -0.9898 -1.5948  1.0096
 4301SOL     OW13715   3.726   6.078   1.161 -0.1196  0.6785  0.7647
 4301SOL    HW113716   3.757   5.989   1.178  2.1016  1.8362  3.1538
 4301SOL    HW213717   3.801   6.122   1.121 -0.8824  1.7297  0.4759
 4302SOL     OW13718   0.552   7.409   7.391 -0.4173 -0.3044 -0.4579
 4302SOL    HW113719   0.503   7.365   7.461  0.6446  0.3478  0.7076
 4302SOL    HW213720   0.531   7.501   7.402  1.7357  0.0848  0.5973
 4303SOL     OW13721   0.137   2.593   7.725 -0.1327  0.1930 -0.0735
 4303SOL    HW113722   0.169   2.555   7.643 -0.1604 -0.1038  0.0528
 4303SOL    HW213723   0.121   2.517   7.782 -0.8127  0.3549 -0.0491
 4304SOL     OW13724   4.561   5.603   6.469 -0.1741 -0.2771  0.2001
 4304SOL    HW113725   4.652   5.574   6.474 -0.3056 -0.9327 -0.9462
 4304SOL    HW213726   4.510   5.523   6.484 -0.5530 -0.0880 -0.0617
 4305SOL     OW13727   4.594   5.729   5.259  0.1262  0.1370  0.0273
 4305SOL    HW113728   4.689   5.727   5.243  0.3227 -1.6730  1.2642
 4305SOL    HW213729   4.581   5.805   5.315  0.7302  0.8724 -0.8105
 4306SOL     OW13730   1.249   6.477   7.273  0.2341  0.0823  0.0952
 4306SOL    HW113731   1.160   6.506   7.291  0.5121  0.5954  0.6929
 4306SOL    HW213732   1.304   6.545   7.312  0.8836 -0.1346 -0.4310
 4307SOL     OW13733   4.768   5.386   1.616  0.2711  0.0980 -0.0711
 4307SOL    HW113734   4.678   5.411   1.595  0.0242 -0.4701  0.2816
 4307SOL    HW213735   4.759   5.308   1.671  1.0045 -0.5877 -0.8927
 4308SOL     OW13736   6.796   1.755   5.584 -0.1480 -0.4143  0.2769
 4308SOL    HW113737   6.760   1.680   5.631  0.9123 -1.0181  0.1510
 4308SOL    HW213738   6.747   1.831   5.617 -0.4580 -1.0244  1.2286
 4309SOL     OW13739   1.563   7.633   0.097  0.3634 -0.1878 -0.1426
 4309SOL    HW113740   1.639   7.691   0.100  0.5667 -0.4603  0.0747
 4309SOL    HW213741   1.520   7.645   0.182 -0.6925  1.0953 -0.8436
 4310SOL     OW13742   6.855   1.950   2.230 -0.0339 -0.6785  0.1693
 4310SOL    HW113743   6.816   1.958   2.143  1.3714  0.3756 -0.3820
 4310SOL    HW213744   6.881   1.858   2.236  1.5701 -0.3384 -1.2935
 4311SOL     OW13745   7.194   7.586   7.571  0.1037 -0.7724 -0.6741
 4311SOL    HW113746   7.275   7.593   7.620 -0.2528  0.3321 -0.2183
 4311SOL    HW213747   7.191   7.495   7.540  1.2950 -0.9223 -0.3381
 4312SOL     OW13748   4.753   1.334   5.389 -0.0919  0.3257  0.3638
 4312SOL    HW113749   4.682   1.393   5.416  0.2548  0.8136  0.2187
 4312SOL    HW213750   4.823   1.393   5.361 -0.2977 -0.1666 -1.2065
 4313SOL     OW13751   5.086   0.314   6.708  0.5099 -0.2100  0.3555
 4313SOL    HW113752   5.069   0.280   6.621 -1.0893 -0.3956  0.7147
 4313SOL    HW213753   5.174   0.285   6.730  1.0115  0.0603 -1.2911
 4314SOL     OW13754   7.614   5.488   4.312 -0.0889  0.0620 -0.8844
 4314SOL    HW113755   7.642   5.438   4.388 -0.3283 -1.0012 -1.4911
 4314SOL    HW213756   7.527   5.454   4.290 -0.9710  1.8746 -0.3126
 4315SOL     OW13757   5.197   6.855   5.743  0.0250 -0.1727  0.2152
 4315SOL    HW113758   5.182   6.764   5.767 -0.5789 -0.0252  0.4072
 4315SOL    HW213759   5.137   6.905   5.798  2.1672  0.5551  1.9739
 4316SOL     OW13760   4.635   7.807   7.409 -0.3286 -0.3784  0.3024
 4316SOL    HW113761   4.702   7.838   7.471  1.2068 -1.4266 -0.7737
 4316SOL    HW213762   4.556   7.856   7.431  1.0230  1.4918  1.0977
 4317SOL     OW13763   3.514   7.161   0.174 -0.1092 -0.1771 -0.5485
 4317SOL    HW113764   3.532   7.217   0.098 -0.4216 -1.2946 -1.4613
 4317SOL    HW213765   3.593   7.167   0.228  0.6383 -0.4095 -1.6084
 4318SOL     OW13766   5.908   6.120   2.435 -0.6056  0.1302 -0.2403
 4318SOL    HW113767   5.965   6.118   2.512 -1.0643  3.6570  0.2836
 4318SOL    HW213768   5.968   6.108   2.361  0.6719  2.2419  0.3919
 4319SOL     OW13769   5.975   7.656   6.962 -0.1821  0.1424  0.0765
 4319SOL    HW113770   5.975   7.563   6.983 -0.2575  0.3422  0.9724
 4319SOL    HW213771   6.057   7.689   6.997  0.1235  0.3054 -0.7709
 4320SOL     OW13772   7.745   5.026   5.098  0.2285  0.1269  0.0051
 4320SOL    HW113773   7.816   5.090   5.102  0.7994 -0.5111 -0.1076
 4320SOL    HW213774   7.718   5.015   5.189 -1.6064  2.4787 -0.1818
 4321SOL     OW13775   1.821   4.904   7.057  0.2535 -0.6655 -0.2389
 4321SOL    HW113776   1.830   4.952   7.140 -0.5308  1.2945 -1.2567
 4321SOL    HW213777   1.882   4.831   7.065 -0.8332 -1.3234  2.6421
 4322SOL     OW13778   6.768   0.770   2.372 -0.0786 -0.2672  0.1825
 4322SOL    HW113779   6.723   0.854   2.370 -0.6139 -0.5158  1.3490
 4322SOL    HW213780   6.844   0.785   2.428 -0.1209 -0.5302  0.3113
 4323SOL     OW13781   5.243   5.392   2.105 -0.5298  0.4485  1.0429
 4323SOL    HW113782   5.260   5.481   2.137 -2.6541  1.2161  0.1770
 4323SOL    HW213783   5.274   5.393   2.014 -2.1957  0.8926  0.4571
 4324SOL     OW13784   5.436   7.393   1.583  0.2882 -0.2094  0.2562
 4324SOL    HW113785   5.410   7.422   1.670 -1.4106 -0.3807 -0.1811
 4324SOL    HW213786   5.354   7.382   1.535  1.2058  0.1185 -1.4532
 4325SOL     OW13787   2.018   0.684   5.789  0.2308 -0.4994 -0.4734
 4325SOL    HW113788   2.013   0.759   5.849  0.3973 -1.1812  0.4045
 4325SOL    HW213789   2.074   0.714   5.718  0.9255 -0.0484  0.2548
 4326SOL     OW13790   4.405   7.404   5.267  0.1701 -0.0564  0.2964
 4326SOL    HW113791   4.414   7.463   5.193 -0.4173 -0.9496 -0.5042
 4326SOL    HW213792   4.312   7.405   5.288  0.1204 -0.8404  0.1409
 4327SOL     OW13793   4.608   4.899   6.908 -0.0870 -0.2307 -0.1261
 4327SOL    HW113794   4.564   4.867   6.986  0.8356 -2.5759 -0.5139
 4327SOL    HW213795   4.558   4.863   6.835  0.9453 -0.7776 -0.5800
 4328SOL     OW13796   4.398   7.121   6.151  0.2372 -0.4282  0.3694
 4328SOL    HW113797   4.376   7.112   6.058  2.0463 -0.5510 -0.0598
 4328SOL    HW213798   4.392   7.216   6.167 -2.4137 -0.6039  0.7607
 4329SOL     OW13799   2.987   0.729   3.928 -0.1398 -0.4437 -0.3703
 4329SOL    HW113800   3.060   0.783   3.899 -0.7479  1.5944  1.6927
 4329SOL    HW213801   3.001   0.717   4.022 -1.1765 -2.0712 -0.3957
 4330SOL     OW13802   1.582   3.370   1.588  0.1284  0.1663 -0.4576
 4330SOL    HW113803   1.649   3.313   1.549  1.5435  1.0195  0.7091
 4330SOL    HW213804   1.611   3.459   1.569  0.2979  0.5835  1.6364
 4331SOL     OW13805   5.285   4.321   3.908  0.5781  0.2558  0.0596
 4331SOL    HW113806   5.209   4.272   3.938  0.1733  1.3174  0.7990
 4331SOL    HW213807   5.358   4.286   3.959  0.7188 -1.2012 -1.0980
 4332SOL     OW13808   7.498   2.480   0.619  0.7025 -0.3811 -0.3063
 4332SOL    HW113809   7.429   2.527   0.571 -0.3368  0.5117  2.0006
 4332SOL    HW213810   7.472   2.388   0.614 -0.8606 -0.0262  0.8095
 4333SOL     OW13811   1.732   2.934   2.585  0.0676  0.0196  0.1176
 4333SOL    HW113812   1.700   3.024   2.594  1.2066  0.4503  0.0284
 4333SOL    HW213813   1.755   2.927   2.492  0.8696 -0.0561  0.3213
 4334SOL     OW13814   7.667   4.759   5.033  0.1542 -0.3789 -0.0814
 4334SOL    HW113815   7.710   4.831   5.080 -0.2298 -0.4228  0.3382
 4334SOL    HW213816   7.700   4.766   4.943 -0.0932  0.4838 -0.1048
 4335SOL     OW13817   4.023   1.178   1.793  0.3034 -0.0127  0.0077
 4335SOL    HW113818   3.952   1.118   1.773 -0.7281  0.6291  1.6776
 4335SOL    HW213819   4.032   1.232   1.714 -0.5928 -0.5527 -0.4620
 4336SOL     OW13820   2.547   6.316   4.079 -0.3526  0.3839 -0.2689
 4336SOL    HW113821   2.558   6.248   4.012 -0.2541 -0.1773  0.3031
 4336SOL    HW213822   2.547   6.398   4.030 -1.1141 -0.0628 -1.0435
 4337SOL     OW13823   1.067   6.414   2.156  0.0727 -0.3954 -0.1299
 4337SOL    HW113824   1.131   6.418   2.227 -0.2607  1.9632  0.0727
 4337SOL    HW213825   1.059   6.504   2.126 -1.8452 -0.9438 -1.3341
 4338SOL     OW13826   3.537   7.323   0.784  0.2748 -0.4486  0.1475
 4338SOL    HW113827   3.549   7.405   0.833  0.6976  1.0283 -2.3546
 4338SOL    HW213828   3.463   7.339   0.727  1.8619 -0.9413 -2.1149
 4339SOL     OW13829   0.473   5.752   2.938 -0.2750 -0.8548  0.7702
 4339SOL    HW113830   0.393   5.712   2.972 -1.0749  0.6015  0.6346
 4339SOL    HW213831   0.492   5.825   2.998  0.7483 -0.9635  0.5970
 4340SOL     OW13832   3.714   6.074   4.400 -0.3007  0.1719 -0.2924
 4340SOL    HW113833   3.765   6.007   4.447  1.7115  2.6550  1.1942
 4340SOL    HW213834   3.739   6.063   4.309  1.2362 -0.0891  0.1392
 4341SOL     OW13835   6.526   7.572   0.560 -0.3309 -0.1285 -0.3649
 4341SOL    HW113836   6.519   7.661   0.525 -3.6209 -0.2302 -0.0619
 4341SOL    HW213837   6.503   7.515   0.486 -0.5293 -0.6365  0.0868
 4342SOL     OW13838   1.328   7.630   4.117  0.1863 -0.0081  0.0846
 4342SOL    HW113839   1.312   7.574   4.040 -0.7872 -0.5201  0.6409
 4342SOL    HW213840   1.249   7.683   4.124 -0.0667 -0.5133  1.1819
 4343SOL     OW13841   1.158   6.882   4.658  0.4991  0.1454 -0.2414
 4343SOL    HW113842   1.171   6.921   4.572  0.5514 -0.1424 -0.3619
 4343SOL    HW213843   1.177   6.789   4.647  0.3202  0.0726  0.0360
 4344SOL     OW13844   6.903   3.799   4.583 -0.0701 -0.0282 -0.2020
 4344SOL    HW113845   6.964   3.873   4.585  0.0764 -0.1228 -1.0926
 4344SOL    HW213846   6.841   3.821   4.513 -0.7804 -0.1515  0.3910
 4345SOL     OW13847   2.599   6.896   2.943 -0.1509  0.8990  0.1795
 4345SOL    HW113848   2.556   6.914   2.859  0.9459  0.4128 -0.4976
 4345SOL    HW213849   2.606   6.801   2.947  1.5190  0.9945 -0.0768
 4346SOL     OW13850   7.168   2.554   4.220 -0.1857 -0.0811  0.2655
 4346SOL    HW113851   7.211   2.477   4.256 -0.7190 -0.3224  0.3898
 4346SOL    HW213852   7.096   2.572   4.281 -0.3245  0.2556  0.0034
 4347SOL     OW13853   4.032   7.848   5.108 -0.2969  0.2241  0.0037
 4347SOL    HW113854   3.971   7.786   5.067  0.2373 -0.0542 -0.3745
 4347SOL    HW213855   4.017   7.930   5.061 -0.4830  0.1953  0.0105
 4348SOL     OW13856   3.009   6.926   4.702 -0.5958 -0.4432 -1.0622
 4348SOL    HW113857   2.922   6.887   4.697 -0.3678 -1.2564  1.0722
 4348SOL    HW213858   2.994   7.019   4.684 -2.3375 -0.0554  2.0239
 4349SOL     OW13859   6.610   5.968   2.599  0.0776  0.1263  0.3583
 4349SOL    HW113860   6.634   5.996   2.511 -1.8114 -0.2316 -0.3041
 4349SOL    HW213861   6.682   5.997   2.654  0.2501  2.3530 -0.9677
 4350SOL     OW13862   3.679   6.829   4.192 -0.1695  0.3618  0.1939
 4350SOL    HW113863   3.679   6.740   4.229 -2.3173  0.1568 -0.2453
 4350SOL    HW213864   3.704   6.817   4.101 -2.9558 -0.1523 -0.5600
 4351SOL     OW13865   3.767   6.814   0.121  0.1849  0.3723  0.1000
 4351SOL    HW113866   3.795   6.867   0.047 -1.4029  1.2212  0.0816
 4351SOL    HW213867   3.841   6.817   0.182  0.3579  2.1320 -0.1599
 4352SOL     OW13868   3.852   1.819   0.271 -0.4054  0.4561  0.1820
 4352SOL    HW113869   3.862   1.753   0.202 -2.2450  0.5622 -0.2032
 4352SOL    HW213870   3.808   1.773   0.342 -0.3542  0.8894  0.4968
 4353SOL     OW13871   4.008   6.206   7.223  0.3343 -0.5270  0.1380
 4353SOL    HW113872   4.097   6.177   7.204  0.2153 -1.4847  0.9661
 4353SOL    HW213873   4.017   6.297   7.251  0.7876  0.0706 -1.9272
 4354SOL     OW13874   1.390   4.568   6.717  0.2512  0.4773 -0.0701
 4354SOL    HW113875   1.388   4.614   6.801 -0.2411  0.5862 -0.1410
 4354SOL    HW213876   1.358   4.480   6.738 -2.0251  1.1687 -0.5531
 4355SOL     OW13877   7.973   7.132   6.107  0.4198 -0.1725  0.1925
 4355SOL    HW113878   7.996   7.039   6.108 -1.1255 -0.5551  0.9786
 4355SOL    HW213879   7.919   7.143   6.029 -1.1714 -0.3795  1.2555
 4356SOL     OW13880   4.780   4.229   0.091 -0.1349 -0.4838 -0.6955
 4356SOL    HW113881   4.685   4.221   0.088 -0.5138  2.2629  1.9056
 4356SOL    HW213882   4.808   4.161   0.152 -0.8347  1.0982  1.4439
 4357SOL     OW13883   7.124   0.282   1.580  0.1269 -0.3750  0.2411
 4357SOL    HW113884   7.161   0.362   1.616 -0.4239 -0.1265  0.2605
 4357SOL    HW213885   7.186   0.213   1.604  1.3488  0.2554 -1.0142
 4358SOL     OW13886   1.349   5.031   3.098  0.7506 -0.1748 -0.1484
 4358SOL    HW113887   1.323   5.122   3.091  1.2807 -0.0474 -0.5199
 4358SOL    HW213888   1.307   4.988   3.023  0.9373 -0.1226 -0.2866
 4359SOL     OW13889   1.350   0.695   0.821 -0.7001  0.0636 -0.7441
 4359SOL    HW113890   1.439   0.701   0.854 -0.2196 -3.2795 -1.2150
 4359SOL    HW213891   1.295   0.699   0.900  0.2407 -3.8907  0.2405
 4360SOL     OW13892   6.459   1.355   3.485 -0.3381 -0.2404 -0.2984
 4360SOL    HW113893   6.463   1.400   3.401  0.0876 -0.9493 -0.6629
 4360SOL    HW213894   6.515   1.408   3.543  1.4186 -1.1563 -1.1375
 4361SOL     OW13895   0.280   6.171   3.440  0.0197 -0.3896 -0.4129
 4361SOL    HW113896   0.369   6.190   3.470 -0.2936 -0.4270  0.5576
 4361SOL    HW213897   0.231   6.153   3.520 -0.5352 -1.7397 -1.0401
 4362SOL     OW13898   0.735   0.785   3.657  0.0708  0.6386 -0.0109
 4362SOL    HW113899   0.785   0.763   3.578  0.5699  0.5063  0.3430
 4362SOL    HW213900   0.782   0.859   3.695 -1.0125  1.6673 -0.6361
 4363SOL     OW13901   2.258   6.117   7.493 -0.2809  0.2912  0.6257
 4363SOL    HW113902   2.224   6.185   7.552  0.3886  0.8773  0.3450
 4363SOL    HW213903   2.204   6.040   7.511  1.8690 -0.5094  4.2029
 4364SOL     OW13904   1.955   6.272   0.029 -0.0915  0.1860  0.1791
 4364SOL    HW113905   2.039   6.273  -0.016  0.0686 -0.3862  0.4566
 4364SOL    HW213906   1.924   6.362   0.025  2.1771  1.1819  3.1405
 4365SOL     OW13907   4.505   0.953   2.356 -0.5155 -0.1916  0.6238
 4365SOL    HW113908   4.533   0.906   2.434 -0.0521  0.9553  1.1591
 4365SOL    HW213909   4.587   0.988   2.319 -0.8899  0.4486  0.3979
 4366SOL     OW13910   4.014   7.142   4.914  0.5216 -0.0675 -0.6719
 4366SOL    HW113911   3.920   7.157   4.901  0.5502 -1.1770 -2.2831
 4366SOL    HW213912   4.047   7.226   4.947 -1.1693  0.0809  0.7042
 4367SOL     OW13913   3.681   1.319   1.003  0.1436 -0.6493  0.3822
 4367SOL    HW113914   3.671   1.239   1.055 -0.9959 -0.2298  0.8413
 4367SOL    HW213915   3.722   1.290   0.921  1.6761 -1.3601  1.3895
 4368SOL     OW13916   1.637   4.742   2.589  0.8168  0.2936 -0.0655
 4368SOL    HW113917   1.564   4.686   2.562  0.7618  0.3313  0.0058
 4368SOL    HW213918   1.702   4.731   2.519  0.9311 -0.0986  0.1012
 4369SOL     OW13919   2.981   3.881   5.917 -0.1008 -0.1044  0.0424
 4369SOL    HW113920   2.940   3.798   5.942  0.4401 -0.4077 -0.0717
 4369SOL    HW213921   2.929   3.912   5.843  0.4417 -0.9513 -0.7033
 4370SOL     OW13922   6.270   3.720   0.403  0.0273  0.1862 -0.7593
 4370SOL    HW113923   6.248   3.716   0.496 -1.4992  2.0441 -1.0072
 4370SOL    HW213924   6.324   3.643   0.388  0.7240  0.1270  1.7789
 4371SOL     OW13925   6.149   2.168   2.498 -0.2305  0.3859  0.2142
 4371SOL    HW113926   6.195   2.097   2.453  1.3933  1.0939  0.7178
 4371SOL    HW213927   6.056   2.153   2.478 -0.0765 -2.7565  1.5711
 4372SOL     OW13928   4.075   7.368   5.043  0.3689 -0.3727 -0.0383
 4372SOL    HW113929   4.027   7.432   4.989 -1.4550 -1.3234  0.4303
 4372SOL    HW213930   4.087   7.412   5.127  1.3913  0.3163 -0.5276
 4373SOL     OW13931   0.218   3.141   1.767 -0.7240 -0.4471 -0.4115
 4373SOL    HW113932   0.250   3.200   1.698  1.2045 -1.3805 -0.3490
 4373SOL    HW213933   0.244   3.054   1.738  0.5325 -0.8008  1.7184
 4374SOL     OW13934   6.579   7.900   7.473  0.2172  0.0315  0.2456
 4374SOL    HW113935   6.529   7.822   7.498  0.1235 -0.0923 -0.3148
 4374SOL    HW213936   6.632   7.920   7.550 -0.6007  0.0865  0.7970
 4375SOL     OW13937   2.179   7.645   7.671 -0.7326 -0.1628 -0.2068
 4375SOL    HW113938   2.148   7.708   7.606  0.7875 -1.0234 -1.8041
 4375SOL    HW213939   2.129   7.565   7.652  0.7645 -0.8618 -1.3108
 4376SOL     OW13940   0.917   5.468   6.170  0.7901  0.5616  0.5651
 4376SOL    HW113941   0.867   5.443   6.248 -0.3255 -0.0361 -0.3186
 4376SOL    HW213942   0.981   5.398   6.159  0.9004  0.6084  0.9037
 4377SOL     OW13943   1.608   4.227   1.168 -0.3198 -0.2341  0.2164
 4377SOL    HW113944   1.661   4.226   1.089  0.2894 -3.0222  0.6225
 4377SOL    HW213945   1.645   4.297   1.221 -0.2531  1.1527 -1.6049
 4378SOL     OW13946   3.830   4.674   5.832  0.0864  0.3965  0.6896
 4378SOL    HW113947   3.844   4.616   5.907  0.0675 -0.0073  0.3768
 4378SOL    HW213948   3.822   4.761   5.871 -0.6842  0.0875  1.2175
 4379SOL     OW13949   4.884   5.837   2.045  0.2724  1.1347  0.0442
 4379SOL    HW113950   4.792   5.851   2.023  0.3081  0.0531 -0.8325
 4379SOL    HW213951   4.881   5.784   2.125  0.1225 -0.0271 -0.7242
 4380SOL     OW13952   2.229   5.831   5.838  0.1689 -0.3482  0.6331
 4380SOL    HW113953   2.217   5.746   5.880 -1.2101 -0.2811  0.3929
 4380SOL    HW213954   2.224   5.894   5.910 -0.3177 -0.3707  0.6229
 4381SOL     OW13955   7.083   3.375   3.863 -0.3392 -0.4970  0.0999
 4381SOL    HW113956   7.165   3.327   3.878 -0.7221 -0.9269  0.8212
 4381SOL    HW213957   7.033   3.362   3.943 -0.2953  1.4123  0.4715
 4382SOL     OW13958   3.192   0.545   2.584  0.5096 -0.3652  0.2469
 4382SOL    HW113959   3.106   0.551   2.542 -0.1353 -0.6341  1.5250
 4382SOL    HW213960   3.190   0.611   2.653  1.0619 -0.8878  0.7621
 4383SOL     OW13961   7.800   2.959   3.060  0.1208  0.9234 -0.5192
 4383SOL    HW113962   7.873   2.904   3.032 -1.3441 -1.3313 -0.1296
 4383SOL    HW213963   7.820   2.981   3.151 -0.3924 -1.0525  0.1143
 4384SOL     OW13964   7.348   2.198   0.267 -0.0888 -0.0813 -0.0882
 4384SOL    HW113965   7.345   2.291   0.290 -1.3511 -0.2744  0.5376
 4384SOL    HW213966   7.268   2.183   0.219  0.6392 -0.6130 -1.1503
 4385SOL     OW13967   2.590   2.166   5.245  0.0250 -0.6245 -0.6309
 4385SOL    HW113968   2.657   2.191   5.309 -0.3707 -1.9984  0.3377
 4385SOL    HW213969   2.626   2.193   5.160 -0.3238  3.0756  0.3224
 4386SOL     OW13970   3.552   3.435   3.735 -0.2246  0.1462  0.2178
 4386SOL    HW113971   3.518   3.511   3.688 -0.6455  0.2899  0.7507
 4386SOL    HW213972   3.619   3.399   3.677 -0.0635  0.8859 -0.0656
 4387SOL     OW13973   5.631   5.570   7.182 -0.6163 -0.2274  0.2360
 4387SOL    HW113974   5.688   5.548   7.108  0.9536  1.3757  0.9576
 4387SOL    HW213975   5.575   5.493   7.191  1.1713 -1.6912 -0.7219
 4388SOL     OW13976   2.331   1.579   5.603 -0.1330 -0.5969 -0.0938
 4388SOL    HW113977   2.310   1.672   5.608  2.7706  0.0322  1.1403
 4388SOL    HW213978   2.310   1.554   5.513 -0.4594  1.3541 -0.5726
 4389SOL     OW13979   6.926   0.939   7.228  0.1903 -0.2378 -0.1610
 4389SOL    HW113980   6.856   0.944   7.292 -0.2907  0.1723 -0.7065
 4389SOL    HW213981   6.910   0.857   7.181 -0.4335  0.2719 -0.8532
 4390SOL     OW13982   6.572   0.886   5.225  0.5756  0.7851 -0.2928
 4390SOL    HW113983   6.646   0.937   5.258  1.1362  0.8315 -1.6078
 4390SOL    HW213984   6.537   0.842   5.303  2.4326  0.1668  0.2159
 4391SOL     OW13985   4.823   1.204   7.394 -0.2790  0.1462 -0.6599
 4391SOL    HW113986   4.732   1.233   7.402 -0.3771 -0.1463 -0.7051
 4391SOL    HW213987   4.874   1.285   7.392 -0.4167  0.2851  0.8390
 4392SOL     OW13988   5.239   6.440   7.959  0.1449  0.7142  0.7699
 4392SOL    HW113989   5.175   6.500   7.997  0.1090  0.7943  0.5828
 4392SOL    HW213990   5.319   6.492   7.950 -0.4659  1.3133 -1.2963
 4393SOL     OW13991   1.468   5.166   6.872  0.0048 -0.6082 -0.0260
 4393SOL    HW113992   1.380   5.131   6.887 -0.0354 -0.2301  0.6512
 4393SOL    HW213993   1.517   5.093   6.833 -1.1248 -0.2574 -2.2121
 4394SOL     OW13994   5.933   3.498   2.289  0.3082 -0.7379 -0.3344
 4394SOL    HW113995   5.902   3.422   2.240 -1.3430 -0.2207 -0.1202
 4394SOL    HW213996   5.881   3.498   2.369 -0.2282  1.0250 -0.6623
 4395SOL     OW13997   5.027   4.257   4.197 -0.6169  0.6739  0.2877
 4395SOL    HW113998   4.955   4.273   4.259 -0.2318  1.2286  0.5850
 4395SOL    HW213999   5.102   4.235   4.252  0.0912  2.5429  0.0746
 4396SOL     OW14000   4.119   4.357   1.079 -0.0217 -0.3091  0.1819
 4396SOL    HW114001   4.130   4.275   1.031  0.9862 -0.4033  0.5785
 4396SOL    HW214002   4.206   4.380   1.109 -0.3918  0.6088  0.5759
 4397SOL     OW14003   4.460   5.988   6.799 -0.6079  0.3078  0.5535
 4397SOL    HW114004   4.407   5.950   6.869 -1.0403  0.1999  0.1703
 4397SOL    HW214005   4.409   5.972   6.719  1.1535 -2.0550 -0.1686
 4398SOL     OW14006   6.599   0.035   3.487 -0.5744  0.0661 -0.0449
 4398SOL    HW114007   6.513   0.056   3.451  1.1328  4.1616 -2.0631
 4398SOL    HW214008   6.594   0.062   3.579 -2.3700 -2.7182  0.7326
 4399SOL     OW14009   4.583   0.166   0.119 -0.0089  0.2988 -0.3153
 4399SOL    HW114010   4.539   0.212   0.191  3.0145  1.2346  1.0199
 4399SOL    HW214011   4.577   0.074   0.142 -0.6375  0.4733  0.2401
 4400SOL     OW14012   6.425   6.754   4.987 -0.0636  0.2682  0.5171
 4400SOL    HW114013   6.335   6.748   5.018  0.0255  2.0703  1.1954
 4400SOL    HW214014   6.422   6.724   4.897 -1.0088 -1.4000  1.0825
 4401SOL     OW14015   3.715   3.193   5.445 -0.6667  0.2564 -0.0408
 4401SOL    HW114016   3.759   3.277   5.443 -0.1569 -0.0373 -1.1314
 4401SOL    HW214017   3.754   3.142   5.374 -2.2966 -0.2277 -0.6219
 4402SOL     OW14018   5.914   5.622   3.062 -0.4277 -0.2147 -0.3682
 4402SOL    HW114019   5.873   5.707   3.045  0.5742  0.9205  2.5889
 4402SOL    HW214020   5.840   5.561   3.069 -1.2326  0.6519 -1.0841
 4403SOL     OW14021   0.791   0.053   6.967 -0.0864 -0.8226 -0.1284
 4403SOL    HW114022   0.767  -0.017   6.905 -1.3110  0.7142 -1.4347
 4403SOL    HW214023   0.743   0.130   6.935  0.2992  0.3171  1.9895
 4404SOL     OW14024   6.056   6.061   2.684  0.1265 -0.2555 -0.8929
 4404SOL    HW114025   6.014   5.976   2.695  1.2654 -1.0129 -2.1968
 4404SOL    HW214026   6.150   6.042   2.688  0.3809  1.0283 -0.5848
 4405SOL     OW14027   6.053   1.322   1.369  0.0722 -0.1020 -0.4237
 4405SOL    HW114028   5.975   1.372   1.390 -0.1442 -0.2357 -0.8982
 4405SOL    HW214029   6.072   1.273   1.449 -0.4769 -0.2625 -0.3867
 4406SOL     OW14030   4.492   0.367   6.609 -0.7064 -0.7722  0.0381
 4406SOL    HW114031   4.446   0.412   6.538 -2.7309  1.0460  2.4179
 4406SOL    HW214032   4.560   0.429   6.636  0.6676 -1.8443 -0.8664
 4407SOL     OW14033   3.208   4.268   7.307 -0.0347  0.1392  0.4430
 4407SOL    HW114034   3.177   4.330   7.373 -2.6600  0.2794 -0.8486
 4407SOL    HW214035   3.129   4.223   7.277  1.7480 -3.7127  1.1526
 4408SOL     OW14036   3.479   6.120   2.238  0.0404  0.3766 -0.3974
 4408SOL    HW114037   3.550   6.056   2.227  0.8378  1.3940 -1.3282
 4408SOL    HW214038   3.496   6.161   2.323  1.2879  1.4514 -1.1343
 4409SOL     OW14039   3.184   6.997   0.089 -0.1782  0.2718 -1.0247
 4409SOL    HW114040   3.095   7.003   0.124  0.6682 -1.1848  1.4965
 4409SOL    HW214041   3.180   7.041   0.004 -3.0784  1.0315 -0.5241
 4410SOL     OW14042   2.252   5.089   4.633  0.0159 -0.0680 -0.0845
 4410SOL    HW114043   2.197   5.014   4.610 -1.5559  0.9963  0.1313
 4410SOL    HW214044   2.234   5.154   4.565 -1.7838  1.6613  1.9806
 4411SOL     OW14045   1.805   2.499   2.748  0.3109  0.1032  0.3020
 4411SOL    HW114046   1.840   2.452   2.673  0.7646 -0.8620  1.1095
 4411SOL    HW214047   1.872   2.565   2.768  0.1216  0.4558 -0.2335
 4412SOL     OW14048   2.165   3.894   4.545 -0.1588 -0.6610  0.2438
 4412SOL    HW114049   2.087   3.839   4.555 -2.1417  2.0282 -0.0926
 4412SOL    HW214050   2.190   3.917   4.634 -0.7245 -0.1948  0.2827
 4413SOL     OW14051   7.174   6.402   0.487  0.0356  0.0959 -0.6576
 4413SOL    HW114052   7.151   6.479   0.434 -0.5137  0.2404 -0.2114
 4413SOL    HW214053   7.188   6.437   0.575 -0.2572 -0.3144 -0.4437
 4414SOL     OW14054   2.453   6.218   1.854  0.2781  0.2104 -0.0063
 4414SOL    HW114055   2.533   6.269   1.839  0.3899  0.3771  1.1632
 4414SOL    HW214056   2.396   6.242   1.781  1.3457 -0.0167 -0.9293
 4415SOL     OW14057   2.618   7.514   0.421 -0.3272 -0.0987 -0.1249
 4415SOL    HW114058   2.689   7.532   0.359  1.2492 -0.9408  1.3869
 4415SOL    HW214059   2.582   7.600   0.443  0.5609  0.3795 -0.5349
 4416SOL     OW14060   1.991   3.999   2.351  0.2838 -0.6234 -0.0675
 4416SOL    HW114061   1.975   3.912   2.315  1.4042 -0.9163  0.1104
 4416SOL    HW214062   2.079   3.993   2.389  0.4821  0.6591 -0.3031
 4417SOL     OW14063   6.360   6.423   6.214 -0.3345 -0.5597 -0.0435
 4417SOL    HW114064   6.433   6.465   6.258 -0.4289  1.0334 -1.3436
 4417SOL    HW214065   6.290   6.420   6.280 -0.3278  1.3721  0.0595
 4418SOL     OW14066   6.282   3.905   4.080  0.3049 -0.2176 -0.3331
 4418SOL    HW114067   6.359   3.926   4.134  0.5420  0.8345 -1.0752
 4418SOL    HW214068   6.318   3.889   3.993 -0.1483 -1.3654 -0.3176
 4419SOL     OW14069   7.381   3.171   5.570  0.4037  0.0348  0.2878
 4419SOL    HW114070   7.441   3.216   5.629  1.7244 -1.6173  0.2487
 4419SOL    HW214071   7.370   3.084   5.609  0.3376 -0.6524 -1.2335
 4420SOL     OW14072   2.386   1.753   7.225  0.2736  0.3938  0.2828
 4420SOL    HW114073   2.402   1.803   7.145 -0.6410  0.7704  0.3358
 4420SOL    HW214074   2.291   1.746   7.231  0.2812  1.4258  1.9969
 4421SOL     OW14075   4.860   1.812   4.292 -0.0343  0.1446 -0.5163
 4421SOL    HW114076   4.873   1.902   4.261 -0.5272  0.0908 -0.8727
 4421SOL    HW214077   4.890   1.757   4.220 -0.6261  0.0215 -0.6680
 4422SOL     OW14078   0.734   5.274   0.853  0.2534 -0.0655 -0.4531
 4422SOL    HW114079   0.733   5.301   0.945  1.1046  0.5442 -0.6166
 4422SOL    HW214080   0.809   5.320   0.816  0.8989 -1.5877 -1.0634
 4423SOL     OW14081   5.214   1.809   4.722  0.1808  0.0899 -0.1325
 4423SOL    HW114082   5.139   1.774   4.770  0.4297 -1.1906 -0.6659
 4423SOL    HW214083   5.262   1.860   4.787  0.2175 -1.1731  0.8516
 4424SOL     OW14084   2.904   1.055   0.048  0.1041 -0.0714  0.2241
 4424SOL    HW114085   2.954   1.015  -0.024 -1.2320  0.1670 -0.8655
 4424SOL    HW214086   2.889   0.984   0.109  1.3578 -0.2545  0.3307
 4425SOL     OW14087   3.260   1.982   2.588 -0.4261 -0.8346 -0.1750
 4425SOL    HW114088   3.230   2.038   2.516 -1.9111  0.9523  1.7657
 4425SOL    HW214089   3.324   1.923   2.548 -1.1237  0.2061 -2.9176
 4426SOL     OW14090   1.986   6.243   0.792  0.0007  0.1987 -0.0196
 4426SOL    HW114091   1.896   6.249   0.759  0.1248 -0.5787 -0.5312
 4426SOL    HW214092   1.996   6.318   0.850 -0.3400  1.4391 -1.5191
 4427SOL     OW14093   4.594   0.552   7.444  0.1627  0.0943  0.0274
 4427SOL    HW114094   4.593   0.527   7.536  1.1163  0.5717  0.1741
 4427SOL    HW214095   4.590   0.469   7.397  3.9041 -0.4433  0.5187
 4428SOL     OW14096   0.284   3.005   0.690  0.1314 -0.1171 -0.0360
 4428SOL    HW114097   0.244   3.088   0.666  2.2089  0.9681  0.1934
 4428SOL    HW214098   0.313   3.017   0.780  0.9914 -0.8841 -0.2071
 4429SOL     OW14099   4.998   2.476   0.588 -0.3645  0.4490  0.5992
 4429SOL    HW114100   5.089   2.503   0.572 -0.2591 -1.0014 -1.3515
 4429SOL    HW214101   4.947   2.557   0.579  0.5915  1.0538  0.5661
 4430SOL     OW14102   0.169   0.740   6.169 -0.6240 -0.4822 -0.5225
 4430SOL    HW114103   0.228   0.699   6.106 -0.6585  1.0498 -1.5835
 4430SOL    HW214104   0.170   0.833   6.145 -3.0782 -0.3640 -0.2364
 4431SOL     OW14105   1.864   1.930   4.036  0.2283  0.1463 -0.3391
 4431SOL    HW114106   1.863   1.945   3.941 -0.7994 -1.3166 -0.5677
 4431SOL    HW214107   1.881   1.837   4.046 -0.6206  0.1112  0.8998
 4432SOL     OW14108   0.038   5.755   6.227  0.2340 -0.5204  0.0692
 4432SOL    HW114109  -0.027   5.685   6.227  0.4813 -0.7506  0.3318
 4432SOL    HW214110  -0.013   5.836   6.233 -0.2704 -0.4773 -3.3564
 4433SOL     OW14111   1.109   6.338   1.614  0.0862 -0.5198  0.3095
 4433SOL    HW114112   1.174   6.393   1.570  0.4865 -0.7538  0.6027
 4433SOL    HW214113   1.161   6.274   1.663 -0.3936 -2.0487 -1.1504
 4434SOL     OW14114   6.547   5.284   3.920 -0.0841  0.0068 -0.8090
 4434SOL    HW114115   6.552   5.339   3.842  0.7223  0.8241 -0.1966
 4434SOL    HW214116   6.537   5.346   3.992 -2.2493 -0.8060 -0.3899
 4435SOL     OW14117   2.568   5.070   6.702  0.1968 -0.3530  0.6812
 4435SOL    HW114118   2.538   5.035   6.619 -0.0742  0.1207  0.5772
 4435SOL    HW214119   2.636   5.009   6.731 -0.0876 -0.8130  0.3776
 4436SOL     OW14120   2.195   4.445   1.214 -0.1582 -0.0442  0.0311
 4436SOL    HW114121   2.240   4.367   1.248  0.4864  0.4181  0.2599
 4436SOL    HW214122   2.266   4.504   1.189 -0.6460  0.2073 -0.7600
 4437SOL     OW14123   5.892   3.462   4.582 -0.2525 -0.1893 -0.6862
 4437SOL    HW114124   5.811   3.446   4.629 -0.1747  3.8074  1.0329
 4437SOL    HW214125   5.864   3.500   4.498 -0.2227  0.7885 -0.2671
 4438SOL     OW14126   3.049   7.544   3.416  0.3459  0.2941 -0.0165
 4438SOL    HW114127   3.109   7.577   3.484  2.3791  0.8924 -2.0467
 4438SOL    HW214128   3.090   7.464   3.385 -0.2722  0.3328 -0.9411
 4439SOL     OW14129   3.663   0.418   4.773  0.1614 -0.2656  0.4181
 4439SOL    HW114130   3.570   0.394   4.777 -0.6046  2.2774 -1.5672
 4439SOL    HW214131   3.690   0.423   4.865 -1.5889 -1.2340  1.0067
 4440SOL     OW14132   5.411   7.895   2.897 -0.4463 -1.0106 -0.1307
 4440SOL    HW114133   5.319   7.871   2.883 -0.0988 -1.7638 -1.2135
 4440SOL    HW214134   5.442   7.834   2.963 -0.7219 -0.7606  0.2313
 4441SOL     OW14135   6.058   6.023   1.608 -0.4758 -0.3427 -0.0253
 4441SOL    HW114136   5.996   6.027   1.681 -0.8053 -1.7695 -0.2083
 4441SOL    HW214137   6.139   5.991   1.647 -0.4737 -0.5273 -0.1838
 4442SOL     OW14138   0.376   5.733   5.336 -0.1433 -0.5919 -1.0438
 4442SOL    HW114139   0.368   5.756   5.428 -1.0505 -0.0463 -1.2472
 4442SOL    HW214140   0.469   5.719   5.322  0.2925  1.6155 -0.5625
 4443SOL     OW14141   2.207   0.166   1.846  0.0484  0.4631  0.0985
 4443SOL    HW114142   2.151   0.092   1.819 -1.7448  1.4213  1.1017
 4443SOL    HW214143   2.162   0.243   1.814  0.9972  1.2482  0.6280
 4444SOL     OW14144   1.061   6.965   3.138  0.5986  0.8465 -0.3888
 4444SOL    HW114145   1.138   6.922   3.099 -1.6109 -1.0977 -2.8351
 4444SOL    HW214146   1.008   6.893   3.173 -1.4776  1.8428 -1.3663
 4445SOL     OW14147   7.584   1.039   0.365 -0.6253  0.6813  0.1194
 4445SOL    HW114148   7.671   1.063   0.397 -0.0113 -0.5225 -0.6054
 4445SOL    HW214149   7.557   0.965   0.419 -0.8015  0.4661 -0.2559
 4446SOL     OW14150   7.222   2.990   3.493  0.3827 -0.5580 -0.3023
 4446SOL    HW114151   7.141   3.001   3.542  0.4141 -1.4476 -0.0516
 4446SOL    HW214152   7.226   2.897   3.472  1.2002 -0.4746 -0.5566
 4447SOL     OW14153   3.765   4.566   7.920 -0.2601 -0.0983  0.2091
 4447SOL    HW114154   3.689   4.511   7.936 -0.4198  0.2019  0.5034
 4447SOL    HW214155   3.827   4.542   7.990  1.0895 -2.4094 -1.7189
 4448SOL     OW14156   2.730   6.142   6.104  0.1326 -0.4051  0.6574
 4448SOL    HW114157   2.804   6.125   6.163 -0.5723  0.0905  1.7206
 4448SOL    HW214158   2.692   6.223   6.138 -0.2722 -0.0898 -0.5225
 4449SOL     OW14159   2.124   4.378   7.618  0.3115 -0.0812 -0.2698
 4449SOL    HW114160   2.050   4.328   7.651  0.3203  0.1178  0.0468
 4449SOL    HW214161   2.201   4.334   7.656  0.4025 -0.7576 -1.2059
 4450SOL     OW14162   0.123   7.250   7.144  0.1666  0.4727  0.3288
 4450SOL    HW114163   0.216   7.260   7.165 -0.1105  0.7556  1.4649
 4450SOL    HW214164   0.114   7.284   7.055  1.2974 -0.3272 -0.1031
 4451SOL     OW14165   7.640   0.955   1.460 -0.5184 -0.1134 -0.2696
 4451SOL    HW114166   7.690   0.916   1.531  1.4119  0.9456 -0.9979
 4451SOL    HW214167   7.671   0.910   1.381 -1.3810 -0.0751 -0.6393
 4452SOL     OW14168   4.117   0.934   2.944  0.0000  0.3924  0.0790
 4452SOL    HW114169   4.092   0.850   2.907 -0.0749  1.6904 -2.9991
 4452SOL    HW214170   4.057   0.948   3.017 -1.1829 -1.3774 -0.5450
 4453SOL     OW14171   1.207   7.735   1.350  0.4950 -0.4982  0.2199
 4453SOL    HW114172   1.302   7.727   1.349  0.5542 -0.1421  1.5571
 4453SOL    HW214173   1.189   7.789   1.427 -0.8989 -2.2069  1.1431
 4454SOL     OW14174   6.052   7.362   2.594  0.2403  0.7059  0.3523
 4454SOL    HW114175   6.061   7.268   2.610  1.7702  0.7324 -0.2645
 4454SOL    HW214176   6.043   7.400   2.681 -0.6334 -0.0165  0.5974
 4455SOL     OW14177   4.885   6.057   7.183 -0.1470  0.1015 -0.4178
 4455SOL    HW114178   4.886   5.976   7.234 -1.8866 -0.0357 -0.5773
 4455SOL    HW214179   4.903   6.126   7.247  3.9986 -0.6023 -0.7277
 4456SOL     OW14180   6.408   4.488   3.981 -0.7204  0.2647  0.6983
 4456SOL    HW114181   6.342   4.455   3.920 -0.5199  1.5650 -0.2609
 4456SOL    HW214182   6.481   4.514   3.925 -0.0395  0.3071  1.6104
 4457SOL     OW14183   6.104   6.004   7.593  0.2274 -0.5519 -0.4016
 4457SOL    HW114184   6.146   5.965   7.517  0.9585 -0.8209  0.1406
 4457SOL    HW214185   6.111   6.099   7.579 -2.0909 -0.5806 -2.0189
 4458SOL     OW14186   1.772   3.053   0.331  0.4349 -0.0585  0.2156
 4458SOL    HW114187   1.768   2.969   0.285 -1.2547 -0.5959  1.3021
 4458SOL    HW214188   1.826   3.109   0.275  0.7051 -1.5475 -1.0308
 4459SOL     OW14189   1.695   3.394   5.789 -0.4528  0.0031  0.1205
 4459SOL    HW114190   1.673   3.441   5.709 -2.4307  1.1853  1.3214
 4459SOL    HW214191   1.662   3.450   5.860  1.3694 -0.9562  1.7792
 4460SOL     OW14192   5.682   1.961   7.503 -0.1617  0.1096 -0.6112
 4460SOL    HW114193   5.679   2.056   7.504 -2.2460  0.0645 -0.4521
 4460SOL    HW214194   5.682   1.936   7.596  2.0342 -0.0459 -0.6135
 4461SOL     OW14195   4.944   7.506   6.861 -0.0199  0.1570  0.0705
 4461SOL    HW114196   4.869   7.508   6.920 -0.5227  1.6378 -0.5926
 4461SOL    HW214197   4.914   7.456   6.785  0.1125 -0.3810  0.3642
 4462SOL     OW14198   1.440   3.685   5.114 -0.2437  0.1994  0.1217
 4462SOL    HW114199   1.359   3.637   5.133  0.0063  0.5017  2.0791
 4462SOL    HW214200   1.505   3.646   5.172  0.0701  2.5387  1.4152
 4463SOL     OW14201   3.700   4.923   3.297  0.2197 -0.4244  0.0540
 4463SOL    HW114202   3.746   5.007   3.294  1.5415 -1.1372  0.3607
 4463SOL    HW214203   3.768   4.857   3.289 -0.9400 -1.4817 -1.6600
 4464SOL     OW14204   5.088   1.285   1.735  0.5980  0.3290  0.1388
 4464SOL    HW114205   5.043   1.293   1.819 -1.2044 -0.7296 -0.7010
 4464SOL    HW214206   5.028   1.234   1.680  2.6549 -0.7821 -1.1356
 4465SOL     OW14207   2.740   6.863   4.644 -0.3827 -0.2754 -0.8275
 4465SOL    HW114208   2.668   6.855   4.707  1.9126  0.0955  1.9704
 4465SOL    HW214209   2.773   6.774   4.635  0.5756 -0.0298  0.1204
 4466SOL     OW14210   0.372   5.379   7.584 -0.0107 -0.0070 -0.3945
 4466SOL    HW114211   0.380   5.465   7.625 -0.9282 -0.2068  0.2055
 4466SOL    HW214212   0.355   5.319   7.657  0.0130 -0.6096 -0.8778
 4467SOL     OW14213   4.208   3.485   6.466 -0.1628  0.7134  0.1176
 4467SOL    HW114214   4.176   3.405   6.425  0.0258  0.3866  0.6027
 4467SOL    HW214215   4.138   3.509   6.527 -0.6454  1.4472 -0.7104
 4468SOL     OW14216   1.588   3.361   2.754  0.2474 -0.4009 -0.2882
 4468SOL    HW114217   1.626   3.384   2.669 -1.3593  0.3843 -0.8191
 4468SOL    HW214218   1.495   3.383   2.745  0.4726  1.9509  2.4498
 4469SOL     OW14219   1.150   5.885   4.269 -0.0566 -0.2593 -0.1506
 4469SOL    HW114220   1.083   5.859   4.207 -1.9616  0.5506  1.5053
 4469SOL    HW214221   1.156   5.981   4.260 -1.5499  0.0823  2.0273
 4470SOL     OW14222   1.438   1.305   3.744  0.3248  0.2093 -0.3885
 4470SOL    HW114223   1.409   1.291   3.834 -0.2325 -1.0639 -0.7531
 4470SOL    HW214224   1.357   1.318   3.694  0.4481 -1.8746 -1.1642
 4471SOL     OW14225   5.504   5.624   7.851 -0.4744 -0.6491  0.2907
 4471SOL    HW114226   5.454   5.606   7.772  0.8182 -1.1944 -0.4202
 4471SOL    HW214227   5.505   5.719   7.857 -0.1413 -0.5857 -0.6387
 4472SOL     OW14228   6.830   3.953   3.325 -1.0204  0.2194 -0.1984
 4472SOL    HW114229   6.809   3.988   3.411 -1.1143 -2.1233  0.7650
 4472SOL    HW214230   6.834   3.858   3.337  0.2658 -0.0726 -2.4906
 4473SOL     OW14231   4.673   3.146   7.371  0.2356 -0.4026 -0.2882
 4473SOL    HW114232   4.604   3.204   7.337 -1.0662 -1.1559  0.9961
 4473SOL    HW214233   4.625   3.080   7.422  1.9630 -0.4606  1.3020
 4474SOL     OW14234   3.190   3.931   5.064  0.4372  0.8076  0.4308
 4474SOL    HW114235   3.095   3.922   5.054  0.3173  2.1948  0.3178
 4474SOL    HW214236   3.201   3.990   5.139  1.2026  1.5037 -0.2199
 4475SOL     OW14237   1.411   4.989   2.800 -0.2246  0.4708 -0.3544
 4475SOL    HW114238   1.409   4.894   2.809  0.1868  0.3695 -1.1985
 4475SOL    HW214239   1.505   5.011   2.802 -0.4023  1.1263  2.2953
 4476SOL     OW14240   1.797   4.791   3.562 -0.5049  0.0008  0.4909
 4476SOL    HW114241   1.727   4.727   3.548 -1.5033  1.2514 -0.3782
 4476SOL    HW214242   1.864   4.744   3.612 -2.3507 -0.9859  2.0993
 4477SOL     OW14243   3.623   3.673   5.913 -0.1766  0.3083 -0.2167
 4477SOL    HW114244   3.637   3.709   5.826 -1.7794  1.4079 -0.0422
 4477SOL    HW214245   3.566   3.597   5.900  1.2022 -0.7257 -0.3217
 4478SOL     OW14246   0.248   6.786   3.047 -0.3655  0.1577  0.4626
 4478SOL    HW114247   0.198   6.802   2.968 -0.3100  0.5540  0.5066
 4478SOL    HW214248   0.220   6.854   3.108  0.6227  0.7172  0.2992
 4479SOL     OW14249   2.836   6.630   5.749 -0.0399  0.0242  0.3720
 4479SOL    HW114250   2.814   6.714   5.790  0.2742  0.0355  0.5196
 4479SOL    HW214251   2.931   6.623   5.757 -0.1147 -0.5739  0.8159
 4480SOL     OW14252   1.449   0.943   6.051 -0.2232  0.7296 -0.1649
 4480SOL    HW114253   1.500   1.019   6.080 -1.8065  0.8672  2.3022
 4480SOL    HW214254   1.516   0.880   6.023  1.1405  2.6272 -1.3395
 4481SOL     OW14255   3.870   1.263   2.525 -0.3004 -0.1938 -0.3230
 4481SOL    HW114256   3.866   1.244   2.618 -2.0123 -0.0704 -0.3705
 4481SOL    HW214257   3.921   1.190   2.488  2.4974  0.9965  1.0071
 4482SOL     OW14258   4.092   4.747   0.669 -0.3134 -0.8266  0.4318
 4482SOL    HW114259   4.060   4.803   0.598  1.6592 -2.3936 -1.7750
 4482SOL    HW214260   4.040   4.667   0.661  0.0224 -1.0677  0.6619
 4483SOL     OW14261   5.616   0.475   5.702  0.4524 -0.2844  0.8793
 4483SOL    HW114262   5.665   0.460   5.784  0.4444 -3.9832  0.3026
 4483SOL    HW214263   5.527   0.494   5.731  1.0815  1.4104  1.7899
 4484SOL     OW14264   2.822   6.448   0.231 -0.0851  0.4854  0.1633
 4484SOL    HW114265   2.858   6.489   0.152 -0.4249  1.8772  0.7191
 4484SOL    HW214266   2.894   6.396   0.266  0.6838  1.4255 -0.0004
 4485SOL     OW14267   4.981   3.148   5.476 -0.2390  0.4558 -0.0193
 4485SOL    HW114268   4.999   3.208   5.403  0.1706 -0.0613 -0.3470
 4485SOL    HW214269   4.954   3.205   5.548  1.7154  1.1760  0.1842
 4486SOL     OW14270   3.314   4.545   6.595 -0.6456  0.5167  0.0200
 4486SOL    HW114271   3.405   4.560   6.622 -0.8124  0.1856  0.7913
 4486SOL    HW214272   3.319   4.528   6.501  0.2957 -1.1667  0.3440
 4487SOL     OW14273   5.619   7.704   4.168  0.4033 -0.0658 -0.0260
 4487SOL    HW114274   5.608   7.724   4.075  1.5356  0.5412 -0.0347
 4487SOL    HW214275   5.707   7.668   4.175  0.2637 -0.2652  0.7965
 4488SOL     OW14276   3.149   1.365   3.942 -0.0075  0.1319  0.4465
 4488SOL    HW114277   3.216   1.415   3.897 -1.1079  0.8067 -0.4628
 4488SOL    HW214278   3.083   1.429   3.966 -1.4665 -0.8605 -0.7973
 4489SOL     OW14279   2.682   3.277   4.255  0.3530 -0.0666  0.5827
 4489SOL    HW114280   2.729   3.343   4.305  2.8759 -0.9476 -0.5290
 4489SOL    HW214281   2.700   3.195   4.301  0.9636 -0.5872 -0.5730
 4490SOL     OW14282   2.343   2.501   2.967 -0.2061  0.2854 -0.0085
 4490SOL    HW114283   2.285   2.562   2.921 -2.7258 -1.0024  1.3491
 4490SOL    HW214284   2.295   2.476   3.045  1.9877 -1.2616  0.9094
 4491SOL     OW14285   4.600   6.734   2.716  0.2723  0.5302  0.6398
 4491SOL    HW114286   4.521   6.727   2.663  0.5777  0.1881  0.2322
 4491SOL    HW214287   4.663   6.676   2.674  1.2459  1.9633  0.0510
 4492SOL     OW14288   0.067   4.957   5.341  0.1151  0.3007  0.0927
 4492SOL    HW114289   0.038   4.876   5.300  0.6998  0.2028 -0.1296
 4492SOL    HW214290   0.143   4.984   5.290  0.0889  0.8417  0.3383
 4493SOL     OW14291   1.053   1.151   2.960  0.0453 -0.4033 -0.0866
 4493SOL    HW114292   0.992   1.206   2.910 -1.5647  0.0229  2.2619
 4493SOL    HW214293   1.023   1.061   2.943  0.7475 -0.3975 -1.4407
 4494SOL     OW14294   6.979   0.535   3.033 -0.0440 -0.0879  0.3113
 4494SOL    HW114295   6.997   0.442   3.017 -1.4429 -0.1534 -1.0892
 4494SOL    HW214296   6.888   0.536   3.062 -0.2074  0.8797 -0.2024
 4495SOL     OW14297   5.347   7.564   4.953  0.0605 -0.1741  0.0694
 4495SOL    HW114298   5.441   7.562   4.968  0.0510 -2.1835 -0.0031
 4495SOL    HW214299   5.326   7.476   4.921 -1.4797  0.9461 -2.1726
 4496SOL     OW14300   2.818   5.963   2.224 -0.2651  0.0844  0.3046
 4496SOL    HW114301   2.750   5.896   2.233  1.1602 -1.9070 -2.8404
 4496SOL    HW214302   2.829   5.973   2.130  1.0300  3.2933  0.7493
 4497SOL     OW14303   6.393   3.321   5.268  0.0282 -0.0442 -0.3376
 4497SOL    HW114304   6.450   3.315   5.191 -0.3151  0.0163 -0.5986
 4497SOL    HW214305   6.421   3.248   5.324  0.3667 -0.0099 -0.4603
 4498SOL     OW14306   7.974   1.345   0.430  0.4244  0.0428  0.1009
 4498SOL    HW114307   7.941   1.310   0.347 -0.4906  2.6633 -0.6679
 4498SOL    HW214308   7.896   1.377   0.475  1.0582 -0.3882  1.5301
 4499SOL     OW14309   4.566   3.185   2.773  0.3053 -0.3321 -0.7064
 4499SOL    HW114310   4.585   3.143   2.857 -1.7412 -0.6920 -0.4151
 4499SOL    HW214311   4.584   3.278   2.788 -0.1632 -0.3776  0.1543
 4500SOL     OW14312   3.639   5.170   2.013 -0.5309  0.0022  0.5374
 4500SOL    HW114313   3.580   5.104   1.978  1.4424 -3.0940  2.8654
 4500SOL    HW214314   3.599   5.196   2.096 -0.9408  1.2869 -0.0425
 4501SOL     OW14315   6.061   4.653   1.625  0.1088  0.5258  0.2948
 4501SOL    HW114316   6.132   4.714   1.606  1.7644 -1.1527  0.9508
 4501SOL    HW214317   6.082   4.618   1.712 -0.7836 -1.0003 -0.0925
 4502SOL     OW14318   3.128   4.841   3.885  0.1336 -0.2537  0.3301
 4502SOL    HW114319   3.034   4.827   3.872  0.0403  0.1911  0.5148
 4502SOL    HW214320   3.166   4.832   3.798 -0.0756 -0.4715  0.2603
 4503SOL     OW14321   4.100   3.613   2.514  0.2382  0.0596  0.5763
 4503SOL    HW114322   4.023   3.663   2.487  0.3386  0.2963  0.7375
 4503SOL    HW214323   4.140   3.664   2.584  1.2562  0.5749 -0.3665
 4504SOL     OW14324   7.274   6.352   2.340  0.3144  0.2767  0.3841
 4504SOL    HW114325   7.275   6.346   2.244  0.5359  2.1851  0.2520
 4504SOL    HW214326   7.188   6.388   2.361 -0.8259 -2.6855  1.1173
 4505SOL     OW14327   6.227   7.554   1.481  0.1727 -0.1054 -0.3633
 4505SOL    HW114328   6.217   7.548   1.386  1.3220  1.3034 -0.5864
 4505SOL    HW214329   6.264   7.641   1.496 -0.1635 -0.2491  1.3920
 4506SOL     OW14330   2.120   3.616   0.844  0.4630 -0.4753 -0.5056
 4506SOL    HW114331   2.116   3.657   0.931  0.8169 -0.0255 -0.7028
 4506SOL    HW214332   2.055   3.546   0.848  0.7606 -0.7098  0.2553
 4507SOL     OW14333   5.820   1.677   3.995 -0.1481  0.5014 -0.3722
 4507SOL    HW114334   5.841   1.590   3.963 -0.6707  0.7561 -1.4186
 4507SOL    HW214335   5.779   1.663   4.080  1.4913 -0.1686  0.3152
 4508SOL     OW14336   0.405   7.063   0.986  0.1238 -0.5055 -0.1638
 4508SOL    HW114337   0.485   7.082   0.937  0.1296  1.1720  0.4356
 4508SOL    HW214338   0.335   7.065   0.921  0.5387 -1.7266 -0.6499
 4509SOL     OW14339   6.515   2.900   5.776 -0.0969 -0.2984  0.4883
 4509SOL    HW114340   6.455   2.945   5.717 -0.9088 -0.7055  0.9756
 4509SOL    HW214341   6.554   2.969   5.828  0.9199  0.0937 -0.7890
 4510SOL     OW14342   6.613   1.617   6.594 -0.1462 -0.4209  0.2481
 4510SOL    HW114343   6.526   1.583   6.575 -0.8171  0.9914  0.7782
 4510SOL    HW214344   6.629   1.683   6.526  1.2717 -1.9462 -0.9547
 4511SOL     OW14345   1.295   1.799   7.585  0.4645  0.5892  0.7574
 4511SOL    HW114346   1.352   1.771   7.656  1.9914 -0.5347 -0.8659
 4511SOL    HW214347   1.277   1.719   7.536  0.0627  1.4807 -0.5728
 4512SOL     OW14348   4.393   6.847   0.978 -0.3977 -0.4332 -0.3955
 4512SOL    HW114349   4.375   6.797   1.058  2.7712 -2.3501 -0.8296
 4512SOL    HW214350   4.434   6.785   0.918  2.4069  2.2837 -1.4555
 4513SOL     OW14351   7.382   7.083   3.832 -0.0301 -0.2626 -0.2320
 4513SOL    HW114352   7.345   7.029   3.762  0.6573  0.8586 -1.4694
 4513SOL    HW214353   7.411   7.019   3.898  1.2425 -1.4538 -1.9015
 4514SOL     OW14354   4.580   7.102   6.611 -0.2694 -0.4555 -0.1770
 4514SOL    HW114355   4.561   7.023   6.663 -1.6330 -1.1298 -1.6480
 4514SOL    HW214356   4.519   7.168   6.645 -0.0884 -0.4353  0.1133
 4515SOL     OW14357   0.685   1.912   2.495  0.0604 -0.1974  0.3958
 4515SOL    HW114358   0.761   1.905   2.552 -2.3342  0.5516  3.8683
 4515SOL    HW214359   0.642   1.826   2.501 -0.2622 -0.0844 -0.2231
 4516SOL     OW14360   2.249   7.667   5.916  0.0509  0.7194  0.3923
 4516SOL    HW114361   2.324   7.641   5.863 -0.6923  0.9997 -0.8111
 4516SOL    HW214362   2.198   7.587   5.926 -0.0028  0.7513  0.3721
 4517SOL     OW14363   4.052   2.758   0.513  0.3794  0.5599  0.2150
 4517SOL    HW114364   4.068   2.692   0.580 -1.1725 -1.8768 -1.7065
 4517SOL    HW214365   3.983   2.813   0.549 -0.8119 -1.0511  0.4462
 4518SOL     OW14366   0.167   2.245   0.423  0.5372 -0.1149 -0.1335
 4518SOL    HW114367   0.072   2.256   0.416  0.5482 -1.1578 -2.4292
 4518SOL    HW214368   0.180   2.150   0.426  1.5869 -0.0585 -1.9528
 4519SOL     OW14369   4.476   3.846   4.520  0.1356  0.1362 -0.1617
 4519SOL    HW114370   4.451   3.759   4.492  1.0844 -0.8876  2.0157
 4519SOL    HW214371   4.538   3.877   4.454 -0.3858 -0.7424 -1.0560
 4520SOL     OW14372   2.776   2.070   6.225 -0.6038 -0.0456  0.0844
 4520SOL    HW114373   2.743   2.011   6.157 -2.8279  1.5969 -0.3306
 4520SOL    HW214374   2.779   2.156   6.182 -0.3411  0.6970  1.5611
 4521SOL     OW14375   1.245   3.043   3.504  0.2611 -0.1082 -0.6909
 4521SOL    HW114376   1.220   2.963   3.549  1.2279  1.4933  2.8716
 4521SOL    HW214377   1.340   3.046   3.509  0.3819  0.2798 -2.6196
 4522SOL     OW14378   7.646   3.687   0.644  0.2563  0.7908  0.1610
 4522SOL    HW114379   7.561   3.727   0.630  0.5626  0.7955 -1.9607
 4522SOL    HW214380   7.709   3.751   0.609  1.0269  0.2523  0.5353
 4523SOL     OW14381   7.442   2.687   1.841  0.5975  0.0714 -0.0980
 4523SOL    HW114382   7.358   2.672   1.884  0.8695 -0.8858  0.1155
 4523SOL    HW214383   7.465   2.601   1.803  2.4478 -0.2121  1.5779
 4524SOL     OW14384   3.823   3.708   0.967 -0.0714 -0.3414 -0.0932
 4524SOL    HW114385   3.877   3.646   1.016  1.1660 -0.3070 -1.3623
 4524SOL    HW214386   3.734   3.691   0.995  0.4624 -1.3977  0.9777
 4525SOL     OW14387   0.851   6.411   2.403 -0.4401  0.5333 -0.6291
 4525SOL    HW114388   0.912   6.417   2.477  1.6186  0.1137 -2.2200
 4525SOL    HW214389   0.852   6.318   2.380 -1.2649  0.6245 -1.0231
 4526SOL     OW14390   2.947   7.279   4.354  0.0694 -0.1617 -0.2651
 4526SOL    HW114391   3.020   7.219   4.344  0.9674  0.5055  2.0757
 4526SOL    HW214392   2.874   7.224   4.383  0.5184 -0.3607  0.5055
 4527SOL     OW14393   3.287   1.313   7.511  0.1589  0.7386 -0.1279
 4527SOL    HW114394   3.364   1.369   7.503 -0.5187  1.7045  0.1270
 4527SOL    HW214395   3.213   1.373   7.520 -0.1326 -0.1134  4.6891
 4528SOL     OW14396   5.883   7.361   2.374 -0.3658 -0.3325 -0.3325
 4528SOL    HW114397   5.913   7.433   2.318 -2.2692  0.9176  0.2371
 4528SOL    HW214398   5.942   7.363   2.449 -0.1557  0.3572 -0.5194
 4529SOL     OW14399   6.579   5.450   6.144  0.0859 -0.0664  0.6075
 4529SOL    HW114400   6.589   5.389   6.216 -1.4339 -1.0798 -0.0075
 4529SOL    HW214401   6.597   5.536   6.182  0.6895 -0.7332  1.8432
 4530SOL     OW14402   7.298   6.643   6.802 -0.7389  0.0950  0.2048
 4530SOL    HW114403   7.268   6.552   6.799 -1.5467  0.3698 -0.3147
 4530SOL    HW214404   7.239   6.686   6.865 -0.5531  0.3198  0.2247
 4531SOL     OW14405   1.097   4.115   3.024 -0.1994  0.1915  0.1542
 4531SOL    HW114406   1.010   4.099   2.986  0.5154  0.0574 -1.4634
 4531SOL    HW214407   1.118   4.205   2.999 -0.1350  0.4297  1.0729
 4532SOL     OW14408   1.954   3.693   2.406  0.1958  0.0014  0.5311
 4532SOL    HW114409   2.026   3.737   2.450  0.1249 -0.7004  1.3654
 4532SOL    HW214410   1.994   3.618   2.362  0.8071  2.5112 -3.4086
 4533SOL     OW14411   5.184   5.116   3.566 -0.1023 -0.6713 -0.3930
 4533SOL    HW114412   5.111   5.133   3.506  0.1118 -0.6900 -0.6616
 4533SOL    HW214413   5.232   5.045   3.525  0.2609 -0.4265 -0.3912
 4534SOL     OW14414   4.508   3.658   7.404 -0.0884 -0.5014 -0.2913
 4534SOL    HW114415   4.584   3.716   7.409 -0.4190 -0.1861  1.6113
 4534SOL    HW214416   4.441   3.704   7.454 -1.4295 -0.9549 -1.6423
 4535SOL     OW14417   0.114   7.605   7.029  0.2564  0.3227  0.2005
 4535SOL    HW114418   0.056   7.676   7.003 -0.3061  0.2611  1.2998
 4535SOL    HW214419   0.116   7.608   7.124  1.7198  0.0548  0.1898
 4536SOL     OW14420   5.741   3.224   7.876 -0.2654  0.2439  0.1948
 4536SOL    HW114421   5.719   3.242   7.785  0.2648 -2.9723 -0.6452
 4536SOL    HW214422   5.836   3.213   7.876 -0.5254 -2.4042  0.5721
 4537SOL     OW14423   7.199   4.611   1.786  0.1500 -0.3573  0.6969
 4537SOL    HW114424   7.192   4.700   1.821  1.4499 -0.4546  1.2192
 4537SOL    HW214425   7.225   4.624   1.694 -0.4640 -0.1854  0.5425
 4538SOL     OW14426   6.032   1.272   3.625 -0.0667  0.1218  0.4281
 4538SOL    HW114427   6.059   1.360   3.597  1.3079 -0.1172  0.9680
 4538SOL    HW214428   5.990   1.235   3.547 -0.4998  1.1822  0.1337
 4539SOL     OW14429   0.870   1.297   7.843  0.2968  0.0826  0.7803
 4539SOL    HW114430   0.916   1.261   7.767 -0.4818  0.6369  0.0357
 4539SOL    HW214431   0.777   1.292   7.819  0.0775  0.7019  1.5046
 4540SOL     OW14432   4.218   1.098   3.251  0.0240 -0.1618  0.0635
 4540SOL    HW114433   4.182   1.140   3.329  0.7397 -1.8666  1.3496
 4540SOL    HW214434   4.142   1.083   3.194 -0.6153  0.3721  0.7653
 4541SOL     OW14435   5.009   6.971   6.536 -0.1120 -0.2547 -0.3993
 4541SOL    HW114436   4.924   6.927   6.538 -0.5899  0.6513  3.7595
 4541SOL    HW214437   5.068   6.911   6.582  0.6362  0.7756  0.0040
 4542SOL     OW14438   5.034   1.218   1.297  0.2843 -0.1261  0.1835
 4542SOL    HW114439   5.063   1.255   1.213 -0.9743  2.5156  0.8685
 4542SOL    HW214440   4.944   1.190   1.280 -0.1599  0.9161  0.7803
 4543SOL     OW14441   7.392   3.736   4.210  0.6269  0.3115 -0.3827
 4543SOL    HW114442   7.420   3.828   4.207  2.0428 -0.0184  1.6696
 4543SOL    HW214443   7.313   3.737   4.264 -0.4685  0.5627 -1.9653
 4544SOL     OW14444   1.754   0.156   1.122 -0.1659  0.2992  0.4261
 4544SOL    HW114445   1.662   0.130   1.129  0.3552 -0.9529  2.8805
 4544SOL    HW214446   1.787   0.105   1.048 -1.0552 -0.3326  0.4490
 4545SOL     OW14447   7.024   7.678   0.089  0.3798  0.2013  0.0797
 4545SOL    HW114448   6.939   7.650   0.054  1.3294 -0.9597 -1.3987
 4545SOL    HW214449   7.053   7.604   0.142  0.6517  0.4128  0.2258
 4546SOL     OW14450   1.629   0.755   3.041 -0.2685  0.2105 -0.0054
 4546SOL    HW114451   1.689   0.825   3.067  0.5263 -0.7336  0.7892
 4546SOL    HW214452   1.672   0.675   3.073 -2.2375 -0.4327  1.1238
 4547SOL     OW14453   5.898   4.179   7.090  0.3975  0.0558  0.5978
 4547SOL    HW114454   5.930   4.124   7.161  2.4270  2.4727  1.6465
 4547SOL    HW214455   5.949   4.260   7.097 -1.5442  1.5758 -1.6924
 4548SOL     OW14456   7.840   4.750   6.144 -0.2591  0.0928 -0.0757
 4548SOL    HW114457   7.917   4.780   6.192 -1.0114 -0.0236  1.2400
 4548SOL    HW214458   7.871   4.734   6.055  1.5397 -1.2668  0.7677
 4549SOL     OW14459   5.600   7.718   1.075 -0.1858  0.0390 -0.0678
 4549SOL    HW114460   5.600   7.736   0.981  1.3090  0.7349  0.0501
 4549SOL    HW214461   5.641   7.795   1.114 -1.4073  0.0636  1.2268
 4550SOL     OW14462   7.393   6.903   2.159  0.5007  0.2614  0.0071
 4550SOL    HW114463   7.426   6.904   2.249 -0.8899 -0.0584  0.5183
 4550SOL    HW214464   7.464   6.863   2.108 -0.2849 -3.2414  1.5636
 4551SOL     OW14465   4.473   4.826   7.178  0.7867  0.0731 -0.1233
 4551SOL    HW114466   4.449   4.879   7.255  1.8633  0.4346 -0.0318
 4551SOL    HW214467   4.411   4.754   7.179  1.3547 -0.4169  1.6143
 4552SOL     OW14468   7.451   3.301   2.668 -0.3936 -0.1448  0.4086
 4552SOL    HW114469   7.416   3.221   2.707 -0.8670  0.5851  1.5170
 4552SOL    HW214470   7.545   3.296   2.684 -0.4688 -0.3039  0.8037
 4553SOL     OW14471   3.358   2.843   7.424 -0.1944  0.0124 -0.2243
 4553SOL    HW114472   3.449   2.830   7.399 -0.2740  0.6544 -0.8413
 4553SOL    HW214473   3.360   2.912   7.490 -0.3856  1.0621 -1.3175
 4554SOL     OW14474   0.722   3.651   6.775  0.0871  0.1470  0.2344
 4554SOL    HW114475   0.711   3.746   6.783 -2.5299 -0.0994  0.0011
 4554SOL    HW214476   0.801   3.640   6.721 -0.0761  2.1888 -0.4520
 4555SOL     OW14477   0.195   3.015   1.411 -0.3439  0.3362 -0.3595
 4555SOL    HW114478   0.121   3.026   1.471 -0.0431 -1.2376  0.3082
 4555SOL    HW214479   0.155   3.011   1.324 -1.1049 -1.0783  0.0429
 4556SOL     OW14480   2.392   7.648   4.050  0.0676 -0.2537  0.0172
 4556SOL    HW114481   2.308   7.679   4.017  0.0164 -0.2425  0.1577
 4556SOL    HW214482   2.414   7.709   4.120 -0.5897 -1.2074  1.0772
 4557SOL     OW14483   6.895   0.491   6.871  0.9162 -0.4843  0.1710
 4557SOL    HW114484   6.950   0.433   6.818  0.1793 -0.3866 -0.7162
 4557SOL    HW214485   6.832   0.528   6.809 -0.4315 -0.9287  1.2303
 4558SOL     OW14486   3.961   0.022   5.580 -0.0647  0.5720 -0.1774
 4558SOL    HW114487   3.969  -0.025   5.663  2.2727  0.5309 -0.3921
 4558SOL    HW214488   3.915  -0.039   5.522  0.9257 -0.5643  0.2101
 4559SOL     OW14489   6.398   0.938   2.682  0.0470 -0.2007 -0.1324
 4559SOL    HW114490   6.460   0.990   2.733  0.5680 -0.2168 -0.7450
 4559SOL    HW214491   6.407   0.970   2.592 -1.9214  0.8428  0.0184
 4560SOL     OW14492   4.943   1.161   7.143 -0.2061  0.3966 -0.1944
 4560SOL    HW114493   4.880   1.165   7.071 -0.3735  0.2697 -0.0562
 4560SOL    HW214494   4.892   1.182   7.221 -0.5298 -1.6456  0.1788
 4561SOL     OW14495   7.277   2.997   1.790 -0.1585 -0.3402 -0.4235
 4561SOL    HW114496   7.294   3.091   1.801 -0.4340 -0.4076  0.6467
 4561SOL    HW214497   7.364   2.957   1.790 -0.0195 -0.0497 -1.2690
 4562SOL     OW14498   7.014   0.307   6.688  0.1760 -0.3309  1.0131
 4562SOL    HW114499   6.958   0.257   6.630 -0.0597 -1.1792  1.9691
 4562SOL    HW214500   7.092   0.328   6.635 -1.0858  0.9944 -0.3613
 4563SOL     OW14501   3.116   0.519   2.892  0.8123  0.2660  0.1673
 4563SOL    HW114502   3.075   0.442   2.931  1.3939 -1.4111 -2.4434
 4563SOL    HW214503   3.042   0.572   2.860  0.5662 -1.4726 -2.1853
 4564SOL     OW14504   3.116   7.723   3.179  0.1585 -0.2564  0.2038
 4564SOL    HW114505   3.078   7.673   3.252  1.2886 -0.3354  0.7622
 4564SOL    HW214506   3.043   7.771   3.142 -0.6146 -0.9564  0.7965
 4565SOL     OW14507   6.674   6.288   6.999  0.3036 -0.3770 -0.2697
 4565SOL    HW114508   6.614   6.353   6.963  2.6827  2.4400  0.6709
 4565SOL    HW214509   6.645   6.277   7.090  1.7204  1.6667  0.4533
 4566SOL     OW14510   7.301   2.047   7.379  0.2661  0.1354  0.0327
 4566SOL    HW114511   7.263   1.960   7.382 -0.2929  0.3934  0.4884
 4566SOL    HW214512   7.268   2.091   7.458  3.3055 -0.3869  1.6575
 4567SOL     OW14513   1.420   3.480   0.707  0.0075 -0.0210  0.0182
 4567SOL    HW114514   1.375   3.529   0.776 -0.9734 -0.3684 -0.3727
 4567SOL    HW214515   1.350   3.453   0.647  0.6822 -0.9389 -0.3573
 4568SOL     OW14516   1.521   6.388   2.685 -0.2226  0.0518 -0.5025
 4568SOL    HW114517   1.541   6.413   2.595  0.5666  0.9131 -0.1012
 4568SOL    HW214518   1.531   6.293   2.687  3.0036  0.3440 -0.5482
 4569SOL     OW14519   1.121   1.755   2.760 -0.3522 -0.2369 -0.3132
 4569SOL    HW114520   1.080   1.785   2.841  0.1994  0.6053 -0.3460
 4569SOL    HW214521   1.162   1.671   2.784 -1.6546 -0.8357 -0.1621
 4570SOL     OW14522   7.236   7.133   5.310 -0.5803  0.0421 -0.0439
 4570SOL    HW114523   7.192   7.216   5.288  0.7526  0.7120 -0.2524
 4570SOL    HW214524   7.230   7.127   5.405 -1.6690 -0.1956 -0.1163
 4571SOL     OW14525   3.165   4.134   1.802 -0.2701  0.2267 -0.4307
 4571SOL    HW114526   3.187   4.099   1.888  0.0696 -1.2120 -1.0975
 4571SOL    HW214527   3.113   4.212   1.821 -0.6283 -0.3602  1.0647
 4572SOL     OW14528   2.648   1.481   2.937 -0.0705 -0.1038 -0.4880
 4572SOL    HW114529   2.584   1.547   2.961 -0.2353 -0.0609 -1.0320
 4572SOL    HW214530   2.730   1.529   2.924 -0.3838  0.1276 -1.7246
 4573SOL     OW14531   4.596   7.661   7.957  0.0092 -0.1285 -0.2031
 4573SOL    HW114532   4.683   7.626   7.977 -0.4638 -0.8600  0.6098
 4573SOL    HW214533   4.543   7.583   7.939 -0.7342  0.2406  0.3547
 4574SOL     OW14534   3.595   7.311   1.518 -0.5718 -0.0282  0.0070
 4574SOL    HW114535   3.609   7.230   1.470 -1.3111  0.9442 -1.9548
 4574SOL    HW214536   3.665   7.369   1.488 -1.3780  0.7765 -0.3619
 4575SOL     OW14537   4.271   6.179   7.174  0.2978 -0.0979  0.1108
 4575SOL    HW114538   4.311   6.239   7.111 -2.1497  0.0159 -1.4022
 4575SOL    HW214539   4.317   6.096   7.161  0.1315  0.0463 -1.5620
 4576SOL     OW14540   6.622   4.353   3.632  0.3422 -0.3877 -0.3959
 4576SOL    HW114541   6.551   4.377   3.573 -0.4688 -0.3831  0.5730
 4576SOL    HW214542   6.664   4.278   3.589  0.1021 -0.0470 -1.2350
 4577SOL     OW14543   2.219   2.455   5.386  0.9158  0.4055  0.6234
 4577SOL    HW114544   2.153   2.499   5.332  1.6341  1.7095  0.7743
 4577SOL    HW214545   2.302   2.470   5.339  1.3762  0.4836  1.4466
 4578SOL     OW14546   7.803   6.830   2.113  0.4456 -0.2475 -0.5725
 4578SOL    HW114547   7.895   6.851   2.129  0.9302 -1.3958 -1.7650
 4578SOL    HW214548   7.760   6.845   2.198  1.7281  0.2671  0.0008
 4579SOL     OW14549   1.315   5.225   0.360 -0.2649  0.8070 -0.5261
 4579SOL    HW114550   1.337   5.162   0.291 -0.0256  1.1701 -0.7853
 4579SOL    HW214551   1.280   5.301   0.313 -2.4599  0.0952 -0.0922
 4580SOL     OW14552   4.395   7.800   1.603  0.2993 -0.1896  0.2418
 4580SOL    HW114553   4.481   7.757   1.596 -0.0314 -0.8363  0.1660
 4580SOL    HW214554   4.347   7.769   1.526  0.8533  2.1241 -1.0828
 4581SOL     OW14555   5.930   7.226   4.928 -0.0783 -0.1462  0.0056
 4581SOL    HW114556   5.941   7.131   4.928  1.6255  0.0326  0.7446
 4581SOL    HW214557   5.994   7.257   4.864 -0.7201  0.4869 -0.3263
 4582SOL     OW14558   2.354   0.403   0.942 -0.0113  0.1520  0.5127
 4582SOL    HW114559   2.432   0.388   0.996  1.4332  1.7847 -1.0914
 4582SOL    HW214560   2.281   0.391   1.003  1.4056 -2.3107  1.8426
 4583SOL     OW14561   3.052   5.943   5.153  0.6070  0.5153  0.1831
 4583SOL    HW114562   3.118   5.935   5.085 -0.5395 -2.1389 -0.6955
 4583SOL    HW214563   3.075   5.876   5.217 -1.7478 -1.0935 -0.6143
 4584SOL     OW14564   4.769   4.653   2.628 -0.3762  0.7053 -0.6247
 4584SOL    HW114565   4.802   4.698   2.550  2.0053 -0.8917 -0.6060
 4584SOL    HW214566   4.720   4.579   2.594  0.2145  0.3102 -0.6256
 4585SOL     OW14567   7.836   3.257   0.627 -0.0968 -0.9640 -0.2118
 4585SOL    HW114568   7.896   3.293   0.562  1.0882 -2.5410 -0.0470
 4585SOL    HW214569   7.844   3.162   0.616 -2.8710 -1.2080 -0.4416
 4586SOL     OW14570   5.047   5.199   7.148 -0.1856 -0.0907  0.6423
 4586SOL    HW114571   5.065   5.180   7.056 -0.3801 -1.3806  0.8605
 4586SOL    HW214572   4.953   5.184   7.158 -0.4090  1.3182  0.7580
 4587SOL     OW14573   6.744   5.168   1.128  0.1156  0.2734 -0.5161
 4587SOL    HW114574   6.736   5.136   1.038  0.2982 -1.0765 -0.0602
 4587SOL    HW214575   6.837   5.187   1.138  0.0463  0.7265 -0.7077
 4588SOL     OW14576   0.688   6.891   3.360  0.4556 -0.4104  0.5290
 4588SOL    HW114577   0.602   6.850   3.373  0.3227  0.3380  2.1435
 4588SOL    HW214578   0.697   6.899   3.265  0.0110 -3.1768  0.1991
 4589SOL     OW14579   4.554   3.351   4.548 -0.9111  0.4527 -0.0409
 4589SOL    HW114580   4.567   3.258   4.564  0.1693  0.3952 -1.2123
 4589SOL    HW214581   4.490   3.378   4.614 -0.0386 -0.7615  1.3176
 4590SOL     OW14582   7.686   7.835   0.514 -0.3220 -0.1222 -0.1679
 4590SOL    HW114583   7.741   7.809   0.440  1.0983  0.4508  0.6631
 4590SOL    HW214584   7.598   7.804   0.491  0.6563 -2.5428 -0.7782
 4591SOL     OW14585   3.083   4.804   1.511  0.0530 -0.1148  0.4141
 4591SOL    HW114586   3.038   4.763   1.437  0.1684 -0.8109  0.7259
 4591SOL    HW214587   3.090   4.897   1.487 -1.3272 -0.0465  0.2550
 4592SOL     OW14588   2.813   2.527   2.680  0.3904 -0.1259 -0.7817
 4592SOL    HW114589   2.771   2.602   2.640  1.2449  0.1268 -1.2237
 4592SOL    HW214590   2.747   2.490   2.739  0.0419  1.0883 -0.4094
 4593SOL     OW14591   3.178   1.514   1.175 -0.1906 -0.1782 -0.4688
 4593SOL    HW114592   3.177   1.596   1.126  0.8376 -0.4589 -0.9674
 4593SOL    HW214593   3.154   1.448   1.110  0.2623 -0.4387 -0.3694
 4594SOL     OW14594   2.523   3.980   5.153 -0.3721  0.5574 -0.5169
 4594SOL    HW114595   2.608   4.015   5.127 -1.5333  2.9454 -1.3139
 4594SOL    HW214596   2.511   4.012   5.243  0.0861 -0.8050  0.0384
 4595SOL     OW14597   1.586   7.732   5.611  0.2428  0.0346  0.1157
 4595SOL    HW114598   1.651   7.723   5.680  0.7119 -0.2972 -0.3598
 4595SOL    HW214599   1.637   7.757   5.533  0.0751 -2.2709 -0.7665
 4596SOL     OW14600   4.639   1.499   6.977 -0.1399  0.6400 -0.5974
 4596SOL    HW114601   4.687   1.519   7.057 -2.0760 -0.8511  1.0119
 4596SOL    HW214602   4.638   1.581   6.928  0.1488  1.8944  1.4342
 4597SOL     OW14603   0.077   6.171   0.165 -0.6194  0.1631  0.1632
 4597SOL    HW114604   0.157   6.119   0.170 -1.5966 -1.5285 -1.3868
 4597SOL    HW214605   0.106   6.260   0.185  1.7130 -0.3816 -0.6075
 4598SOL     OW14606   0.613   4.816   7.143  0.1564 -0.0077  0.1002
 4598SOL    HW114607   0.660   4.766   7.077 -1.0187  0.0071 -0.7648
 4598SOL    HW214608   0.532   4.768   7.158  0.1684  0.2749  1.1404
 4599SOL     OW14609   1.178   4.826   6.239 -0.2824 -0.4596  0.1193
 4599SOL    HW114610   1.179   4.730   6.241 -0.9963 -0.4656  0.0924
 4599SOL    HW214611   1.270   4.850   6.229 -0.2066 -1.1725 -1.0298
 4600SOL     OW14612   0.968   2.703   0.964 -0.3178 -0.1586 -0.5932
 4600SOL    HW114613   1.001   2.733   1.049 -1.1442 -0.3633 -0.1902
 4600SOL    HW214614   1.046   2.684   0.913  0.1856 -1.6543  0.7083
 4601SOL     OW14615   4.428   7.780   2.097  0.0329 -0.4632  0.1263
 4601SOL    HW114616   4.460   7.701   2.055 -0.5513  0.5279 -2.3214
 4601SOL    HW214617   4.398   7.835   2.024 -1.2261  1.2599  1.8812
 4602SOL     OW14618   3.924   6.044   3.826 -0.5817  0.3570 -0.0618
 4602SOL    HW114619   3.928   5.985   3.750  0.2132  0.6346 -0.2448
 4602SOL    HW214620   3.979   6.118   3.801 -0.4424  0.5216  0.7236
 4603SOL     OW14621   4.395   1.218   1.361  0.0369  0.2686  0.2713
 4603SOL    HW114622   4.342   1.297   1.354 -3.0711 -1.6692  0.9598
 4603SOL    HW214623   4.409   1.207   1.455 -1.0163 -0.8910  0.3092
 4604SOL     OW14624   6.014   4.511   4.818 -0.2418 -0.4605  0.2136
 4604SOL    HW114625   6.058   4.570   4.878  0.3862  0.2135 -0.8913
 4604SOL    HW214626   6.076   4.439   4.805 -0.0639 -0.2380 -0.1939
 4605SOL     OW14627   5.208   1.364   2.366  0.0563  0.5270 -0.3987
 4605SOL    HW114628   5.219   1.291   2.305  1.6493 -0.0234  0.5178
 4605SOL    HW214629   5.138   1.416   2.328 -0.7599 -1.2026 -1.3488
 4606SOL     OW14630   4.187   7.938   7.833 -0.0463  0.1112 -0.1420
 4606SOL    HW114631   4.280   7.941   7.811 -0.5278 -0.6462 -2.4198
 4606SOL    HW214632   4.179   7.866   7.895  1.0812  1.0476  1.0967
 4607SOL     OW14633   3.549   4.526   2.127  0.3388 -0.3495  0.3491
 4607SOL    HW114634   3.497   4.460   2.082 -0.1792  1.8440 -2.4389
 4607SOL    HW214635   3.623   4.542   2.068 -0.6019  2.9483 -0.0314
 4608SOL     OW14636   6.622   3.431   6.850  0.4687 -0.5082 -0.1365
 4608SOL    HW114637   6.583   3.486   6.783  3.0110  2.6972  0.9119
 4608SOL    HW214638   6.696   3.389   6.806 -0.2643 -1.5649 -0.3838
 4609SOL     OW14639   0.436   2.336   1.634 -0.9108 -0.5904  0.2602
 4609SOL    HW114640   0.495   2.266   1.660 -1.3800 -1.3234 -0.6228
 4609SOL    HW214641   0.481   2.416   1.660  0.2789 -1.1604 -0.0375
 4610SOL     OW14642   5.939   2.601   5.828 -0.1339 -0.6600 -0.4607
 4610SOL    HW114643   5.946   2.696   5.814 -3.0448 -0.3274 -0.0106
 4610SOL    HW214644   5.963   2.588   5.920 -1.4773 -0.0939 -0.0143
 4611SOL     OW14645   1.518   4.509   5.283  0.0144 -0.3878  0.3991
 4611SOL    HW114646   1.598   4.467   5.314  0.2494 -0.9075 -0.8714
 4611SOL    HW214647   1.451   4.484   5.346  0.4746 -1.4563  0.4726
 4612SOL     OW14648   0.238   2.008   2.960  0.2807 -0.2291 -0.6113
 4612SOL    HW114649   0.164   2.067   2.946  0.6716  0.2916 -0.5343
 4612SOL    HW214650   0.212   1.953   3.033  0.2103  0.3586 -0.1912
 4613SOL     OW14651   3.127   3.812   3.323  0.5283  0.3894  0.2444
 4613SOL    HW114652   3.073   3.823   3.245 -0.4990  1.0009  1.0295
 4613SOL    HW214653   3.069   3.772   3.387  1.5368 -0.6915  0.5128
 4614SOL     OW14654   2.595   4.498   3.801  0.0700 -0.0306 -0.2068
 4614SOL    HW114655   2.588   4.403   3.794 -0.0340 -0.0108 -0.3928
 4614SOL    HW214656   2.644   4.513   3.882  0.5096 -0.2595 -0.4263
 4615SOL     OW14657   2.635   6.726   6.606 -0.0761  0.5883  0.1351
 4615SOL    HW114658   2.589   6.665   6.664 -2.4415  0.8943 -1.3642
 4615SOL    HW214659   2.615   6.813   6.641 -0.8806  0.7357 -0.6805
 4616SOL     OW14660   3.316   1.249   1.346  0.3728  0.3690 -0.0214
 4616SOL    HW114661   3.409   1.244   1.323  0.7553  1.6406  1.2144
 4616SOL    HW214662   3.282   1.163   1.322  1.8232 -0.0645 -0.6443
 4617SOL     OW14663   6.076   3.447   0.482 -0.5101  0.0552 -0.4657
 4617SOL    HW114664   6.066   3.431   0.388  0.2410  0.7391 -0.6637
 4617SOL    HW214665   6.138   3.380   0.511  0.4529  0.8092 -0.7582
 4618SOL     OW14666   1.097   4.744   0.528 -0.1191 -0.2578 -0.9134
 4618SOL    HW114667   1.083   4.721   0.437  0.6659  0.4438 -1.2226
 4618SOL    HW214668   1.014   4.783   0.556 -1.0422 -2.2934 -0.7243
 4619SOL     OW14669   6.905   1.638   0.471 -0.7627  0.6772 -0.3322
 4619SOL    HW114670   6.829   1.628   0.527  0.8040  0.4543  1.7927
 4619SOL    HW214671   6.924   1.550   0.440 -1.0398  0.6538 -0.4371
 4620SOL     OW14672   1.388   7.462   0.822 -0.7197 -0.0209  0.8112
 4620SOL    HW114673   1.432   7.435   0.742  0.4424 -2.7336  2.2879
 4620SOL    HW214674   1.341   7.542   0.798 -0.7069 -0.9728 -2.6315
 4621SOL     OW14675   3.520   3.403   0.438 -0.1246 -0.7933 -0.1416
 4621SOL    HW114676   3.498   3.382   0.347  0.8525 -2.2278 -0.0640
 4621SOL    HW214677   3.436   3.405   0.483 -0.6557  0.4256 -1.1741
 4622SOL     OW14678   1.163   5.254   3.154 -0.1459  0.6051 -0.3264
 4622SOL    HW114679   1.080   5.298   3.173  0.2215  0.4221  1.7360
 4622SOL    HW214680   1.212   5.258   3.236  0.8694 -1.5215 -0.8015
 4623SOL     OW14681   2.815   1.567   1.620 -0.1206  0.1228  0.2628
 4623SOL    HW114682   2.792   1.568   1.713  1.4771 -2.4020  0.7439
 4623SOL    HW214683   2.888   1.630   1.613  1.0733 -1.1216  1.1316
 4624SOL     OW14684   6.577   0.013   3.952  0.1483  0.0709  0.7056
 4624SOL    HW114685   6.542   0.051   4.033 -1.5288 -1.1406  0.5680
 4624SOL    HW214686   6.629  -0.062   3.981  0.3969  0.2485  0.7229
 4625SOL     OW14687   1.125   4.627   2.987  0.5636 -0.1861  0.6099
 4625SOL    HW114688   1.156   4.544   3.024  1.3966  0.8960  2.4304
 4625SOL    HW214689   1.068   4.663   3.054  0.8987  1.1193  0.2074
 4626SOL     OW14690   3.316   6.322   5.694  0.3441 -0.0912  0.4316
 4626SOL    HW114691   3.368   6.387   5.647  0.9440 -0.6491  0.3018
 4626SOL    HW214692   3.290   6.259   5.627 -0.3156  0.0626  0.5377
 4627SOL     OW14693   5.487   6.638   0.569 -0.2697 -0.0195  0.4251
 4627SOL    HW114694   5.557   6.671   0.626  0.1022  2.1578 -1.2274
 4627SOL    HW214695   5.450   6.563   0.616 -0.0993  1.8345  3.6332
 4628SOL     OW14696   0.441   6.487   6.758  0.1637 -0.6124 -0.1292
 4628SOL    HW114697   0.431   6.449   6.671  0.1910 -2.7805  0.7866
 4628SOL    HW214698   0.351   6.509   6.785  0.0604 -0.7576 -0.3507
 4629SOL     OW14699   2.016   1.313   4.905 -0.2322  0.0101  0.2133
 4629SOL    HW114700   2.047   1.232   4.946  0.9665 -0.2935 -1.2276
 4629SOL    HW214701   2.092   1.371   4.907 -0.8592  0.8282  0.5344
 4630SOL     OW14702   7.822   5.385   5.588 -0.2408  0.2952  0.5742
 4630SOL    HW114703   7.880   5.441   5.639  0.4700  0.9786 -0.9487
 4630SOL    HW214704   7.880   5.320   5.548 -0.5278  0.8185 -0.7417
 4631SOL     OW14705   2.146   1.181   5.121 -0.1082  0.1939  0.0377
 4631SOL    HW114706   2.231   1.172   5.077  0.5688  0.8379  1.1844
 4631SOL    HW214707   2.122   1.092   5.146  0.5629  0.0872  0.3102
 4632SOL     OW14708   3.925   7.772   0.817  0.0385  0.2183  0.5356
 4632SOL    HW114709   3.889   7.776   0.729 -0.3160 -0.1744  0.6608
 4632SOL    HW214710   3.991   7.842   0.820  0.2336  0.0578 -0.1143
 4633SOL     OW14711   7.787   6.738   7.927  0.1089 -0.1791 -0.4485
 4633SOL    HW114712   7.836   6.704   7.853 -0.5852  0.3395 -1.1547
 4633SOL    HW214713   7.801   6.674   7.997  3.4961  1.0344  0.0338
 4634SOL     OW14714   6.254   7.656   4.570  0.6962  0.1495  0.6903
 4634SOL    HW114715   6.203   7.580   4.544  0.4012  0.4750  0.3133
 4634SOL    HW214716   6.335   7.649   4.521  1.1514 -0.5391  1.5295
 4635SOL     OW14717   0.278   1.185   3.535  0.1836  0.4747 -0.1315
 4635SOL    HW114718   0.257   1.165   3.626  1.9346 -0.8046  0.0289
 4635SOL    HW214719   0.264   1.102   3.489 -0.4409  1.0460 -0.9945
 4636SOL     OW14720   7.021   7.712   4.912 -0.1908  0.2202 -0.4824
 4636SOL    HW114721   6.960   7.707   4.986  0.2129  0.4230 -0.1345
 4636SOL    HW214722   6.986   7.650   4.848 -0.6810  0.2280 -0.2225
 4637SOL     OW14723   1.844   5.517   1.597  0.3027  0.4423  0.1039
 4637SOL    HW114724   1.883   5.431   1.613  0.3478  0.5117  0.3690
 4637SOL    HW214725   1.842   5.525   1.502 -0.3869 -0.1704  0.0593
 4638SOL     OW14726   5.709   7.215   6.706 -0.5729 -0.8330 -0.3527
 4638SOL    HW114727   5.798   7.241   6.685 -0.0917 -1.1499  1.1919
 4638SOL    HW214728   5.659   7.296   6.705  0.2952 -0.2489  1.4125
 4639SOL     OW14729   5.982   7.630   2.164  0.2261  0.5347 -0.0182
 4639SOL    HW114730   6.023   7.692   2.224  1.6865  0.5590 -1.0081
 4639SOL    HW214731   5.923   7.682   2.110  2.0942  1.2500 -1.4310
 4640SOL     OW14732   7.935   5.468   3.923 -0.3284  0.4318  0.8772
 4640SOL    HW114733   7.912   5.527   3.852 -0.7283 -0.9518 -0.1563
 4640SOL    HW214734   7.897   5.508   4.001 -2.1901  0.6009 -0.0911
 4641SOL     OW14735   6.329   3.042   6.655  0.0208  0.5689  0.0761
 4641SOL    HW114736   6.239   3.055   6.625  0.1297 -2.7875 -1.8674
 4641SOL    HW214737   6.320   2.989   6.735  0.3086 -0.8625 -0.8287
 4642SOL     OW14738   7.230   4.211   7.723  0.6447 -0.2826 -0.1706
 4642SOL    HW114739   7.299   4.220   7.788 -1.7497 -3.5283  3.0310
 4642SOL    HW214740   7.255   4.133   7.672 -0.6567 -1.5529  1.0915
 4643SOL     OW14741   4.877   0.559   0.312 -0.0648  0.1198  0.0194
 4643SOL    HW114742   4.899   0.650   0.329  0.1220  0.1408 -0.3185
 4643SOL    HW214743   4.957   0.511   0.330  0.0970  0.1279 -0.6513
 4644SOL     OW14744   6.277   1.145   1.865  0.8228 -0.4616  0.2267
 4644SOL    HW114745   6.236   1.061   1.845  0.9615 -0.7091  1.0038
 4644SOL    HW214746   6.370   1.131   1.849  0.6657  0.0133 -1.2348
 4645SOL     OW14747   0.410   7.588   4.694  0.0412  0.3232  0.6306
 4645SOL    HW114748   0.474   7.532   4.738  0.7043  1.0339  0.5670
 4645SOL    HW214749   0.375   7.532   4.624  0.2275 -0.2285  0.9725
 4646SOL     OW14750   5.152   0.124   6.943  0.3671 -0.2347  0.1378
 4646SOL    HW114751   5.088   0.194   6.932 -1.3034 -1.1759  3.2314
 4646SOL    HW214752   5.159   0.084   6.856 -1.5875  1.2940 -0.7641
 4647SOL     OW14753   5.663   2.669   3.567  0.5486  0.1222 -0.2156
 4647SOL    HW114754   5.684   2.598   3.627  1.3195  0.0005 -0.6152
 4647SOL    HW214755   5.592   2.634   3.513  0.5051 -0.1210 -0.0013
 4648SOL     OW14756   7.246   7.934   0.500  0.1213  0.1979  0.3545
 4648SOL    HW114757   7.175   7.990   0.529 -2.5177 -1.7338 -2.0495
 4648SOL    HW214758   7.289   7.983   0.430 -0.4906  0.2997  0.0540
 4649SOL     OW14759   6.125   1.742   0.594 -0.1585  0.1339  0.2288
 4649SOL    HW114760   6.096   1.659   0.557 -1.1198  1.4568 -2.0484
 4649SOL    HW214761   6.213   1.754   0.559  0.1404 -0.0942  0.8859
 4650SOL     OW14762   6.584   6.128   5.568 -0.8773  0.1869 -0.0638
 4650SOL    HW114763   6.544   6.047   5.536 -1.7058  0.8364 -0.6991
 4650SOL    HW214764   6.544   6.197   5.515 -1.7842  1.2165  1.9182
 4651SOL     OW14765   6.113   0.662   3.931 -0.4290 -0.6860  0.7730
 4651SOL    HW114766   6.143   0.729   3.993  0.7173 -1.5692  1.1893
 4651SOL    HW214767   6.047   0.707   3.878 -0.4882  0.4538  1.7811
 4652SOL     OW14768   2.493   2.655   0.337  0.4254  0.0115  0.1965
 4652SOL    HW114769   2.571   2.604   0.315  0.6878  1.0603 -1.3304
 4652SOL    HW214770   2.524   2.717   0.403  0.1885 -1.5131  1.7900
 4653SOL     OW14771   6.568   5.053   2.462 -0.4716 -0.0184 -0.1589
 4653SOL    HW114772   6.551   5.043   2.369  1.6847  0.8957 -0.6739
 4653SOL    HW214773   6.610   5.139   2.469  1.9826 -1.3099  1.3016
 4654SOL     OW14774   2.659   4.128   7.619  0.0394 -0.5312 -0.5052
 4654SOL    HW114775   2.608   4.087   7.689  0.4933  0.2576  0.2909
 4654SOL    HW214776   2.750   4.108   7.640  0.3876  2.1276  0.7405
 4655SOL     OW14777   4.388   4.074   4.018 -0.1915  0.7243 -0.1681
 4655SOL    HW114778   4.455   4.017   3.981 -1.5141 -1.1824  0.2879
 4655SOL    HW214779   4.420   4.094   4.106  0.6617  1.3489 -0.6158
 4656SOL     OW14780   1.009   2.088   3.735  0.8868 -0.0703 -0.5177
 4656SOL    HW114781   1.099   2.113   3.759  0.3307 -0.0147  1.5840
 4656SOL    HW214782   1.002   1.997   3.763 -0.2376  0.4319  0.8930
 4657SOL     OW14783   4.999   5.068   3.346  0.7191  0.0975  0.6054
 4657SOL    HW114784   4.921   5.123   3.341 -0.3249 -1.5650 -1.8057
 4657SOL    HW214785   4.973   4.994   3.401  0.5082 -0.5650 -0.3761
 4658SOL     OW14786   1.521   4.183   7.712  0.0198 -0.0818 -0.5109
 4658SOL    HW114787   1.540   4.118   7.780  2.0773  1.3215  0.3058
 4658SOL    HW214788   1.427   4.196   7.717  0.4548  2.3514  4.2950
 4659SOL     OW14789   4.979   5.440   7.795 -0.1646  0.0992 -0.1728
 4659SOL    HW114790   4.897   5.487   7.784 -0.2561 -0.0260 -0.0248
 4659SOL    HW214791   4.963   5.354   7.755  0.3217  0.5389 -1.3375
 4660SOL     OW14792   1.473   7.192   5.179 -0.8537  0.5789 -0.1366
 4660SOL    HW114793   1.556   7.190   5.227 -0.4076  2.9792 -0.7445
 4660SOL    HW214794   1.453   7.100   5.163  1.0645 -0.0929  1.0850
 4661SOL     OW14795   0.295   1.958   1.534 -0.8414  0.5263  0.7983
 4661SOL    HW114796   0.371   1.983   1.483 -1.5067  0.0218 -0.4657
 4661SOL    HW214797   0.224   2.012   1.500 -1.3841 -0.1176  0.8802
 4662SOL     OW14798   4.663   3.966   4.030  0.1325  0.7936 -0.1341
 4662SOL    HW114799   4.653   3.922   4.115 -1.5693 -1.3700 -1.3989
 4662SOL    HW214800   4.689   4.055   4.052 -2.2687  0.8589  2.7523
 4663SOL     OW14801   2.398   7.307   1.751  0.4269  0.3341  0.3799
 4663SOL    HW114802   2.380   7.321   1.844 -1.5377 -0.0657  0.0849
 4663SOL    HW214803   2.311   7.308   1.709  1.2887  0.5691 -1.4541
 4664SOL     OW14804   7.806   6.884   4.063 -0.2281  0.0744  0.0577
 4664SOL    HW114805   7.791   6.824   3.990 -0.0350 -0.4577  0.4495
 4664SOL    HW214806   7.893   6.920   4.048  0.0394 -0.4529  0.3120
 4665SOL     OW14807   6.642   0.252   0.327 -0.0374 -0.4546 -0.5065
 4665SOL    HW114808   6.592   0.290   0.400  0.1059 -0.9283 -0.1536
 4665SOL    HW214809   6.700   0.322   0.299 -1.2919  0.2821 -1.2875
 4666SOL     OW14810   3.128   0.684   4.857  0.1080 -0.8028 -0.0089
 4666SOL    HW114811   3.075   0.692   4.778 -0.7046 -0.3634  0.5730
 4666SOL    HW214812   3.085   0.741   4.921  2.2451  0.9642 -0.0359
 4667SOL     OW14813   0.472   3.383   0.575  0.8252  0.4140 -0.6403
 4667SOL    HW114814   0.544   3.321   0.562  0.1529  0.0358 -2.7473
 4667SOL    HW214815   0.397   3.327   0.595  0.1154  0.4768 -3.0003
 4668SOL     OW14816   6.234   3.381   3.483  0.2059 -0.0984 -0.3830
 4668SOL    HW114817   6.156   3.406   3.532  0.4162  0.6586 -0.4258
 4668SOL    HW214818   6.302   3.442   3.512  0.5776 -0.2431 -0.9224
 4669SOL     OW14819   0.202   5.281   1.326 -0.2214 -0.4068  0.3274
 4669SOL    HW114820   0.261   5.294   1.401 -0.8806  0.0485  0.7783
 4669SOL    HW214821   0.155   5.201   1.346 -1.6079  0.6029  1.2347
 4670SOL     OW14822   3.477   6.548   5.582  0.1384 -0.2876  0.3041
 4670SOL    HW114823   3.480   6.609   5.508  1.7436 -1.0381 -0.2745
 4670SOL    HW214824   3.436   6.598   5.653 -1.3556  0.4678 -1.0510
 4671SOL     OW14825   3.176   4.493   5.804  0.0760 -0.2221 -0.1204
 4671SOL    HW114826   3.241   4.552   5.766  0.7437 -0.2663  0.9272
 4671SOL    HW214827   3.162   4.527   5.892  0.5780 -1.7044  0.5454
 4672SOL     OW14828   0.516   0.052   1.916 -0.2733 -0.3112  0.1154
 4672SOL    HW114829   0.543  -0.036   1.888  3.0875 -0.2065  2.6136
 4672SOL    HW214830   0.555   0.111   1.852  0.9658 -0.4527  0.7285
 4673SOL     OW14831   5.479   4.221   6.624 -0.4486 -0.0344  0.0020
 4673SOL    HW114832   5.488   4.277   6.701  1.5441 -0.1560 -0.1168
 4673SOL    HW214833   5.433   4.143   6.656  0.8502 -0.3281  1.2214
 4674SOL     OW14834   4.251   1.055   7.998  0.0576  0.4549 -0.5035
 4674SOL    HW114835   4.184   1.091   7.940  0.1983  1.3584 -0.1020
 4674SOL    HW214836   4.205   1.043   8.082  0.5934  1.8126 -0.0028
 4675SOL     OW14837   7.680   3.927   5.412 -0.2300  0.5410 -0.2074
 4675SOL    HW114838   7.596   3.938   5.456 -0.7455  1.4772 -1.3906
 4675SOL    HW214839   7.657   3.900   5.323  0.7343  0.5137 -0.4505
 4676SOL     OW14840   2.530   5.644   5.967  0.1770  0.7165  0.2319
 4676SOL    HW114841   2.500   5.733   5.948  1.7805  1.6165  1.8182
 4676SOL    HW214842   2.515   5.596   5.885  0.8329  2.8542 -1.1899
 4677SOL     OW14843   1.441   4.863   4.936  0.1995 -0.7424 -0.1323
 4677SOL    HW114844   1.414   4.815   5.014  2.3463  0.5131  1.4363
 4677SOL    HW214845   1.477   4.795   4.878  0.2586 -1.4676  0.7407
 4678SOL     OW14846   4.439   0.368   4.561 -0.4337  0.2164 -0.1779
 4678SOL    HW114847   4.452   0.396   4.652  0.7988  1.1682 -0.6378
 4678SOL    HW214848   4.390   0.440   4.521 -0.7764 -0.1006 -0.3298
 4679SOL     OW14849   2.666   6.636   1.844 -0.4566 -0.1619  0.7689
 4679SOL    HW114850   2.701   6.724   1.827  1.0098 -1.0598 -0.9986
 4679SOL    HW214851   2.702   6.612   1.929  0.9709  0.0572  0.2366
 4680SOL     OW14852   2.591   4.597   4.489  0.3804  0.0431  0.1184
 4680SOL    HW114853   2.623   4.644   4.412  0.5993 -1.0020 -0.4514
 4680SOL    HW214854   2.497   4.614   4.490  0.7008  1.7894  0.8487
 4681SOL     OW14855   3.512   6.591   0.107 -0.2138 -0.2036  0.3475
 4681SOL    HW114856   3.587   6.562   0.056  0.7448  1.0890  0.9949
 4681SOL    HW214857   3.520   6.687   0.109 -1.6737 -0.0699  0.7375
 4682SOL     OW14858   7.640   6.635   3.166  0.7461  0.5191 -0.3784
 4682SOL    HW114859   7.718   6.675   3.127  0.7694 -0.7696 -1.7021
 4682SOL    HW214860   7.581   6.620   3.092 -0.1136  0.0506  0.3940
 4683SOL     OW14861   7.556   4.722   1.870 -0.2486  0.7152 -0.4839
 4683SOL    HW114862   7.517   4.809   1.876 -0.1152  0.6133  2.5320
 4683SOL    HW214863   7.644   4.737   1.835 -0.8720  1.5646 -1.7231
 4684SOL     OW14864   7.571   3.406   3.011  0.1147 -0.1924 -0.1011
 4684SOL    HW114865   7.647   3.396   3.068  1.5088  0.8039 -1.7408
 4684SOL    HW214866   7.517   3.472   3.054  1.4617  1.0096 -0.2158
 4685SOL     OW14867   2.738   4.917   4.846  0.3515 -0.4190  0.4123
 4685SOL    HW114868   2.747   4.822   4.831 -0.7539 -0.6983  1.4828
 4685SOL    HW214869   2.644   4.930   4.861  0.4364  0.9188 -0.1642
 4686SOL     OW14870   3.614   3.004   3.352  0.0576 -0.0954  0.3978
 4686SOL    HW114871   3.688   2.950   3.326  1.0014  0.9485  0.8675
 4686SOL    HW214872   3.599   2.982   3.444 -1.9468 -2.2625 -0.4086
 4687SOL     OW14873   3.978   7.949   3.833  0.0979  0.2134 -0.0366
 4687SOL    HW114874   4.016   7.897   3.903  0.8563  0.3599 -0.3300
 4687SOL    HW214875   4.005   8.039   3.853 -2.2188  0.6706  1.1357
 4688SOL     OW14876   1.363   4.304   6.811 -0.2110 -0.3010  0.0452
 4688SOL    HW114877   1.405   4.222   6.786 -1.6281 -1.4391  1.3217
 4688SOL    HW214878   1.270   4.282   6.817 -0.6710  1.5334 -0.1105
 4689SOL     OW14879   7.066   0.504   6.209  0.1345  0.4084  0.4712
 4689SOL    HW114880   7.158   0.482   6.223  0.4283  0.6162 -1.0962
 4689SOL    HW214881   7.018   0.431   6.247  0.9708 -0.1464  0.4692
 4690SOL     OW14882   0.724   0.377   1.963  0.2099 -0.0864  0.4466
 4690SOL    HW114883   0.681   0.362   1.878  1.3755 -1.0665  0.0191
 4690SOL    HW214884   0.651   0.387   2.025 -0.6465  0.2120 -0.5915
 4691SOL     OW14885   3.458   4.461   1.441 -0.0058 -0.2073 -0.0136
 4691SOL    HW114886   3.401   4.407   1.497 -0.3584 -1.4470 -1.5229
 4691SOL    HW214887   3.443   4.550   1.471 -0.6425 -0.7922  1.4802
 4692SOL     OW14888   2.423   7.853   4.235  0.4811 -0.2710 -0.2731
 4692SOL    HW114889   2.469   7.885   4.313 -2.0052  0.5264  0.9174
 4692SOL    HW214890   2.414   7.931   4.179  0.8335 -0.4869 -0.6299
 4693SOL     OW14891   7.549   2.011   4.021  0.1822 -0.0594 -0.6531
 4693SOL    HW114892   7.465   1.987   3.981  0.2390 -0.6615 -0.4194
 4693SOL    HW214893   7.525   2.053   4.103  0.1085 -0.3468 -0.5255
 4694SOL     OW14894   4.097   7.416   0.860  0.0378  0.4431  0.1241
 4694SOL    HW114895   4.118   7.327   0.889 -1.1811  1.0819  3.2065
 4694SOL    HW214896   4.175   7.467   0.882  0.2198  0.3869 -0.3938
 4695SOL     OW14897   0.297   6.507   2.233  0.3047  0.0151  0.4301
 4695SOL    HW114898   0.254   6.579   2.279  0.8446  1.0169 -0.6270
 4695SOL    HW214899   0.380   6.495   2.279  0.8205  0.9808 -0.2404
 4696SOL     OW14900   5.714   7.348   1.785  0.5494  0.0292  0.4356
 4696SOL    HW114901   5.805   7.332   1.759 -0.1157 -0.8745 -1.4083
 4696SOL    HW214902   5.676   7.398   1.713 -0.1943  1.1125  1.5704
 4697SOL     OW14903   0.761   7.855   2.906  0.3841  0.4203  0.1579
 4697SOL    HW114904   0.675   7.880   2.939  0.5325  1.2021 -0.0521
 4697SOL    HW214905   0.743   7.817   2.819  0.0025 -1.5759  1.0648
 4698SOL     OW14906   6.274   0.308   2.123 -0.4447 -0.0256  0.2642
 4698SOL    HW114907   6.256   0.276   2.211 -1.3050  1.0543  0.4987
 4698SOL    HW214908   6.245   0.400   2.124  1.9972  0.8138 -0.3542
 4699SOL     OW14909   6.555   4.627   5.130  0.0139 -0.3995  0.5171
 4699SOL    HW114910   6.557   4.645   5.036 -0.3983 -2.2333  0.1450
 4699SOL    HW214911   6.476   4.574   5.143 -2.6648  3.8194  2.6523
 4700SOL     OW14912   5.885   7.063   0.833 -0.2113 -0.7447 -0.2649
 4700SOL    HW114913   5.934   7.049   0.752 -0.1156 -2.4192  0.0768
 4700SOL    HW214914   5.938   7.021   0.901 -0.2371  0.7333  0.6949
 4701SOL     OW14915   6.612   7.687   1.816 -0.2948 -0.0040  0.9485
 4701SOL    HW114916   6.540   7.629   1.789 -0.2300  0.6278 -0.6916
 4701SOL    HW214917   6.681   7.628   1.846 -0.1953 -0.8037 -0.7821
 4702SOL     OW14918   2.562   0.004   0.029 -0.1121 -0.0576 -0.1352
 4702SOL    HW114919   2.645   0.044   0.003  0.6592 -0.0258  2.2622
 4702SOL    HW214920   2.524  -0.028  -0.053  1.1980  1.9101 -1.5688
 4703SOL     OW14921   4.331   1.907   7.986 -0.0101  0.3711 -0.1503
 4703SOL    HW114922   4.327   1.965   7.910 -0.7085  1.2489  0.5512
 4703SOL    HW214923   4.305   1.962   8.060  0.7538 -0.4534  0.7413
 4704SOL     OW14924   7.923   7.448   5.851 -0.2408  0.0957  0.3840
 4704SOL    HW114925   7.905   7.495   5.770  0.3606 -1.1391 -0.4675
 4704SOL    HW214926   7.964   7.514   5.908  1.6747  0.3310 -1.2118
 4705SOL     OW14927   2.019   4.345   5.238  0.5731  0.0845 -0.5899
 4705SOL    HW114928   2.052   4.355   5.328 -1.1189 -0.0549  0.0671
 4705SOL    HW214929   2.039   4.255   5.215  0.1517 -0.1650  0.0114
 4706SOL     OW14930   6.659   4.608   3.761 -0.4730  0.2038 -0.0126
 4706SOL    HW114931   6.653   4.520   3.725  1.5503 -0.1513  0.4380
 4706SOL    HW214932   6.690   4.661   3.688 -1.5059  0.5210 -0.2308
 4707SOL     OW14933   1.701   4.101   6.309 -0.4436  0.1028 -0.1586
 4707SOL    HW114934   1.614   4.124   6.343 -1.4364 -2.8747 -0.5340
 4707SOL    HW214935   1.695   4.118   6.215 -1.2842 -1.7988 -0.4874
 4708SOL     OW14936   5.090   5.149   7.488 -0.5357  0.1291 -0.3269
 4708SOL    HW114937   5.067   5.058   7.471  0.2337  0.0091 -0.7573
 4708SOL    HW214938   5.185   5.153   7.476 -0.8639  1.5356 -2.9020
 4709SOL     OW14939   7.989   7.646   6.370  0.1582  0.2818 -0.1326
 4709SOL    HW114940   7.911   7.696   6.392  0.5612  1.0573 -0.4287
 4709SOL    HW214941   8.000   7.585   6.443  0.9765  2.2312  1.4396
 4710SOL     OW14942   6.662   1.573   0.289 -1.0359  0.2573  0.0355
 4710SOL    HW114943   6.677   1.667   0.281  0.7824  0.0736  0.9376
 4710SOL    HW214944   6.657   1.557   0.383 -0.1603 -0.7046 -0.0644
 4711SOL     OW14945   4.042   1.674   6.700 -0.0745 -0.3131  0.0026
 4711SOL    HW114946   4.027   1.753   6.649  0.7763 -1.0238 -1.3972
 4711SOL    HW214947   3.983   1.609   6.661  1.3681 -1.1583 -0.8379
 4712SOL     OW14948   6.020   3.396   5.941  1.0148  0.5325 -0.4639
 4712SOL    HW114949   6.059   3.456   5.878  0.0224  0.0336 -1.5682
 4712SOL    HW214950   5.963   3.339   5.889  0.8697 -0.4732  0.7484
 4713SOL     OW14951   0.160   7.221   7.728 -0.1561 -0.2030  0.1592
 4713SOL    HW114952   0.078   7.193   7.769 -1.3221 -0.6984 -2.4457
 4713SOL    HW214953   0.226   7.163   7.766 -1.5315 -2.0876 -0.2116
 4714SOL     OW14954   1.653   3.394   0.254 -0.1247 -0.0593 -0.0298
 4714SOL    HW114955   1.699   3.337   0.192  0.3975  0.0094  0.2934
 4714SOL    HW214956   1.671   3.483   0.224 -2.4941 -0.0676 -1.6594
 4715SOL     OW14957   6.894   6.014   2.694  0.1012  0.1134  0.4031
 4715SOL    HW114958   6.944   6.095   2.682 -0.4906  0.4958  0.5191
 4715SOL    HW214959   6.934   5.952   2.632  0.8268  0.3644  0.6162
 4716SOL     OW14960   2.513   5.787   7.540 -0.4374 -0.7320 -0.6792
 4716SOL    HW114961   2.477   5.776   7.628  1.1303 -1.1796 -0.0723
 4716SOL    HW214962   2.518   5.881   7.528 -3.1314 -0.6470 -1.3429
 4717SOL     OW14963   4.639   6.830   4.592 -0.1971 -0.1400  0.1130
 4717SOL    HW114964   4.596   6.913   4.571  0.1910  0.5309  1.8826
 4717SOL    HW214965   4.566   6.769   4.605 -0.4766 -0.1854 -1.5407
 4718SOL     OW14966   5.003   0.776   3.768 -0.1255 -0.0616  0.0959
 4718SOL    HW114967   5.062   0.847   3.745 -0.2636 -0.3370 -1.1411
 4718SOL    HW214968   5.042   0.735   3.845  0.0186  1.2764  0.7318
 4719SOL     OW14969   7.109   4.910   1.337 -0.6470  0.1363 -0.6217
 4719SOL    HW114970   7.039   4.845   1.331  0.3323 -0.9815 -0.2260
 4719SOL    HW214971   7.109   4.936   1.429 -0.7264  0.3294 -0.6777
 4720SOL     OW14972   0.036   2.859   5.279 -0.4356 -0.7581  0.2408
 4720SOL    HW114973  -0.006   2.774   5.262 -1.7322  0.1165 -1.0600
 4720SOL    HW214974  -0.003   2.918   5.215  0.3237  0.8720  1.2491
 4721SOL     OW14975   3.989   5.949   4.595 -0.0436  0.2722  0.3260
 4721SOL    HW114976   4.067   5.947   4.540  0.5405  0.0245  1.1513
 4721SOL    HW214977   3.931   5.882   4.559  1.0566 -1.0900  1.0605
 4722SOL     OW14978   2.329   2.244   4.277 -0.6861 -0.4217  0.4302
 4722SOL    HW114979   2.326   2.338   4.290 -1.2261 -0.3895  0.0811
 4722SOL    HW214980   2.238   2.215   4.287 -0.4827 -0.9374  0.8014
 4723SOL     OW14981   0.356   1.410   5.824 -0.3395  0.0395 -0.4827
 4723SOL    HW114982   0.288   1.425   5.758 -2.3640 -2.5046  0.8948
 4723SOL    HW214983   0.401   1.331   5.795  1.2873  1.0448 -0.7657
 4724SOL     OW14984   3.542   0.671   6.570 -0.3493 -0.3139  0.0018
 4724SOL    HW114985   3.635   0.653   6.559 -0.3194 -0.3954  0.3787
 4724SOL    HW214986   3.530   0.682   6.664 -0.8298 -0.8973  0.0154
 4725SOL     OW14987   4.618   7.307   6.333  0.1298 -0.5232 -1.0097
 4725SOL    HW114988   4.680   7.333   6.264 -2.8202  2.5819 -2.6151
 4725SOL    HW214989   4.654   7.346   6.412  0.9632  0.0999 -1.6786
 4726SOL     OW14990   7.660   1.264   7.582 -0.0457 -0.4307  0.4453
 4726SOL    HW114991   7.645   1.298   7.494 -0.8092 -1.6131  0.0962
 4726SOL    HW214992   7.703   1.335   7.629  0.0172  0.3486 -0.7695
 4727SOL     OW14993   1.781   7.735   5.887  0.1577  0.6014  0.0778
 4727SOL    HW114994   1.827   7.737   5.970  0.2715 -0.3941  0.0454
 4727SOL    HW214995   1.806   7.651   5.848  0.5174  1.2927 -1.1925
 4728SOL     OW14996   5.710   5.870   0.176 -0.3679 -0.3205  0.1765
 4728SOL    HW114997   5.743   5.960   0.170 -0.0743 -0.5176 -1.3885
 4728SOL    HW214998   5.615   5.879   0.166 -0.5245 -0.0123  1.9089
 4729SOL     OW14999   0.921   7.970   3.935 -0.1422  0.0695 -0.0118
 4729SOL    HW115000   0.959   8.050   3.972  0.5518 -0.4199  0.3421
 4729SOL    HW215001   0.847   8.001   3.883  1.1181  1.1171 -1.2542
 4730SOL     OW15002   7.485   0.373   1.870 -0.1281 -0.7925  0.0232
 4730SOL    HW115003   7.555   0.354   1.933  1.3442  1.6364 -0.7971
 4730SOL    HW215004   7.515   0.332   1.789  0.0132 -0.3137 -0.1644
 4731SOL     OW15005   4.779   4.122   2.613  0.4648  1.2104 -0.3266
 4731SOL    HW115006   4.804   4.212   2.633  0.0646  1.4971 -1.1183
 4731SOL    HW215007   4.824   4.103   2.530  1.2476  0.3923  0.2734
 4732SOL     OW15008   5.080   7.440   6.492 -0.1900 -0.5760  0.5742
 4732SOL    HW115009   5.083   7.503   6.420 -1.0733 -1.3128 -0.1122
 4732SOL    HW215010   5.099   7.356   6.452 -1.1257 -1.0564  1.1238
 4733SOL     OW15011   7.476   5.257   7.323  0.4338 -0.1424  0.3433
 4733SOL    HW115012   7.478   5.169   7.285  0.7200  0.2517 -0.5660
 4733SOL    HW215013   7.382   5.277   7.330  0.3763 -0.1861 -0.2425
 4734SOL     OW15014   1.225   5.919   0.193  0.1033 -0.2079 -0.2137
 4734SOL    HW115015   1.311   5.940   0.229 -0.0321  1.1410 -0.6563
 4734SOL    HW215016   1.180   5.873   0.264  0.6325  0.4525  0.5565
 4735SOL     OW15017   6.796   5.867   7.303  0.1972 -0.3627 -0.1512
 4735SOL    HW115018   6.711   5.852   7.262 -0.7505  0.1401  1.5747
 4735SOL    HW215019   6.775   5.894   7.393  2.1877 -0.7238  0.4490
 4736SOL     OW15020   3.344   7.198   0.393  0.5078 -0.0656  0.1525
 4736SOL    HW115021   3.425   7.242   0.419  0.4054 -0.8128  1.7881
 4736SOL    HW215022   3.355   7.182   0.299  0.7478  2.9548 -0.3971
 4737SOL     OW15023   7.571   4.614   7.326  0.1647 -0.7185 -0.3154
 4737SOL    HW115024   7.480   4.588   7.339 -0.3118  1.1693  0.3825
 4737SOL    HW215025   7.587   4.602   7.233 -1.3583  0.5884 -0.7601
 4738SOL     OW15026   0.584   7.794   4.926  0.2435  0.1338  0.3036
 4738SOL    HW115027   0.666   7.771   4.884  0.8509 -0.9124  2.0206
 4738SOL    HW215028   0.594   7.766   5.017 -2.0267 -0.0854  0.5320
 4739SOL     OW15029   2.052   0.715   1.791 -0.2030 -0.5093 -0.3156
 4739SOL    HW115030   2.140   0.722   1.754 -0.0446  1.2808  0.3487
 4739SOL    HW215031   2.006   0.792   1.758 -1.2145 -0.8914  0.1682
 4740SOL     OW15032   2.430   0.405   0.118 -0.1332 -0.7603  0.2444
 4740SOL    HW115033   2.428   0.341   0.189 -3.8464 -0.1675  0.7939
 4740SOL    HW215034   2.459   0.355   0.042  1.7671 -1.9217  1.6962
 4741SOL     OW15035   6.378   2.013   4.421 -0.2027  0.3705  0.0862
 4741SOL    HW115036   6.422   1.929   4.437 -2.4721 -0.4049  2.6206
 4741SOL    HW215037   6.431   2.077   4.467  0.3286  0.0141 -0.0186
 4742SOL     OW15038   7.038   5.684   4.119  0.0999 -0.1260 -0.0204
 4742SOL    HW115039   6.953   5.711   4.152  0.4369  2.0513 -0.8186
 4742SOL    HW215040   7.091   5.764   4.120  1.8575 -1.2440 -0.3749
 4743SOL     OW15041   5.496   5.581   3.002 -0.0092  0.1683 -0.3782
 4743SOL    HW115042   5.433   5.575   3.073  0.0376 -0.4484 -0.3903
 4743SOL    HW215043   5.459   5.528   2.932 -0.2226  1.0417 -0.9467
 4744SOL     OW15044   7.132   4.961   4.934 -0.7080  0.0713 -0.2640
 4744SOL    HW115045   7.207   4.903   4.949 -1.6252 -1.3828 -1.2648
 4744SOL    HW215046   7.078   4.950   5.012 -0.8636 -0.4043 -0.4364
 4745SOL     OW15047   1.717   3.466   3.487 -0.3489 -0.0113 -0.0167
 4745SOL    HW115048   1.680   3.388   3.444 -2.0177  0.3700  0.7229
 4745SOL    HW215049   1.736   3.437   3.576  2.2052 -0.5148 -0.6704
 4746SOL     OW15050   5.716   5.802   3.629  0.5448 -0.7609  0.1971
 4746SOL    HW115051   5.725   5.890   3.666  2.3086 -0.6648 -0.4449
 4746SOL    HW215052   5.709   5.745   3.705  1.2303 -0.2560  0.6465
 4747SOL     OW15053   0.178   1.931   7.443 -0.3130 -0.3525  0.6441
 4747SOL    HW115054   0.176   1.999   7.376  0.8838 -1.0659 -0.1397
 4747SOL    HW215055   0.211   1.975   7.522 -0.9395  0.2979  0.5448
 4748SOL     OW15056   4.647   1.065   3.713  0.1587  0.3294  1.0145
 4748SOL    HW115057   4.692   1.073   3.629  0.3502  0.2622  1.1102
 4748SOL    HW215058   4.593   0.987   3.704 -0.4989  0.8263  0.6403
 4749SOL     OW15059   1.784   6.533   1.588 -0.3901 -0.1153  0.0801
 4749SOL    HW115060   1.864   6.578   1.615 -0.3020  0.2956 -0.8633
 4749SOL    HW215061   1.726   6.602   1.555  0.5617 -0.8711 -3.3811
 4750SOL     OW15062   5.829   7.637   2.539 -0.4741  0.7440 -0.0722
 4750SOL    HW115063   5.910   7.687   2.530  0.8631 -0.8582  2.4857
 4750SOL    HW215064   5.811   7.637   2.634 -1.3226 -2.2203 -0.1963
 4751SOL     OW15065   3.794   3.750   5.374 -0.4018  0.3620 -0.4506
 4751SOL    HW115066   3.700   3.749   5.355 -0.4009  0.3363 -0.4529
 4751SOL    HW215067   3.827   3.828   5.329 -0.4142  0.3455 -0.4889
 4752SOL     OW15068   3.290   2.462   6.148 -0.6124  0.1819 -0.2607
 4752SOL    HW115069   3.222   2.517   6.185  0.9802  1.4098  0.9424
 4752SOL    HW215070   3.294   2.386   6.207  0.8064  1.3621  1.2220
 4753SOL     OW15071   2.315   6.842   0.480  0.2808  0.3440  0.7237
 4753SOL    HW115072   2.378   6.860   0.549 -0.5289  0.3252  1.4688
 4753SOL    HW215073   2.327   6.749   0.460  0.3218  0.2877  1.0217
 4754SOL     OW15074   4.811   6.968   3.836 -0.0634  0.2753 -0.2889
 4754SOL    HW115075   4.875   6.950   3.904 -0.6401 -1.2240 -0.1195
 4754SOL    HW215076   4.726   6.964   3.881 -0.4589 -0.8630 -1.0945
 4755SOL     OW15077   6.973   1.896   1.943 -0.3174 -0.0348  0.1024
 4755SOL    HW115078   7.038   1.941   1.891 -0.4429 -0.5938 -0.5460
 4755SOL    HW215079   6.900   1.958   1.951  1.4471  1.7970  3.3783
 4756SOL     OW15080   1.066   2.878   5.696  0.0760 -0.4698  0.1429
 4756SOL    HW115081   0.983   2.907   5.733  0.7120  0.1571  1.1222
 4756SOL    HW215082   1.045   2.797   5.650 -1.0063 -0.5281  0.7173
 4757SOL     OW15083   5.624   7.180   1.572 -0.6701 -0.1762  0.2972
 4757SOL    HW115084   5.584   7.138   1.496  0.7382  2.7463 -2.1713
 4757SOL    HW215085   5.578   7.264   1.579  1.1351  0.7738  0.9217
 4758SOL     OW15086   5.547   5.593   0.429  0.5801  0.1716  0.1814
 4758SOL    HW115087   5.627   5.634   0.398  1.8078 -2.5021 -0.3411
 4758SOL    HW215088   5.577   5.518   0.481 -1.5747 -0.0772  1.1293
 4759SOL     OW15089   3.211   6.359   6.729  0.1490 -0.2388 -0.4100
 4759SOL    HW115090   3.269   6.285   6.747  0.5256 -0.1188 -1.1241
 4759SOL    HW215091   3.271   6.433   6.714 -0.1897 -0.1086 -1.1270
 4760SOL     OW15092   0.587   4.231   2.404 -0.2671 -0.3615  0.1663
 4760SOL    HW115093   0.665   4.254   2.353  2.5715 -3.0340  3.0408
 4760SOL    HW215094   0.532   4.183   2.343 -0.1694  2.3627 -2.1865
 4761SOL     OW15095   4.662   3.580   6.453 -0.8116 -0.8357  0.1922
 4761SOL    HW115096   4.688   3.640   6.383  0.8510  0.2281  1.6731
 4761SOL    HW215097   4.606   3.633   6.510 -0.4800 -1.0895  0.7550
 4762SOL     OW15098   7.186   7.469   4.605  0.1841 -0.4684 -0.0160
 4762SOL    HW115099   7.274   7.430   4.604  0.6345  0.4826  1.3873
 4762SOL    HW215100   7.183   7.523   4.526  1.0511 -0.0853  0.2064
 4763SOL     OW15101   0.075   0.863   7.864 -0.1368 -0.0165  0.4042
 4763SOL    HW115102   0.032   0.780   7.846  0.1300  0.2564 -1.6010
 4763SOL    HW215103   0.034   0.925   7.803  0.9640  0.9134  0.5812
 4764SOL     OW15104   0.671   7.310   2.139 -0.0833 -0.3866  0.2717
 4764SOL    HW115105   0.722   7.379   2.097 -1.4635  1.0867  0.9544
 4764SOL    HW215106   0.589   7.308   2.090 -0.3690 -0.9898  0.7727
 4765SOL     OW15107   6.232   0.009   4.804  0.1494 -0.1074  0.6786
 4765SOL    HW115108   6.192  -0.076   4.826 -0.4666  0.1567  0.6007
 4765SOL    HW215109   6.268  -0.004   4.716  0.8280 -0.5517  1.0161
 4766SOL     OW15110   0.252   3.705   2.843  0.0090  0.3105  0.5170
 4766SOL    HW115111   0.286   3.641   2.780  1.8749  1.0650  0.7142
 4766SOL    HW215112   0.326   3.764   2.858 -1.7172  2.5749  0.2596
 4767SOL     OW15113   3.799   3.879   3.045 -0.4479 -0.0465 -0.4999
 4767SOL    HW115114   3.738   3.926   2.989  0.1627  0.2208 -0.9454
 4767SOL    HW215115   3.788   3.919   3.131 -1.7494 -0.7969 -0.3038
 4768SOL     OW15116   1.321   5.695   4.616  0.3874 -0.1305  0.2654
 4768SOL    HW115117   1.307   5.627   4.681  0.7541 -0.1753  0.2984
 4768SOL    HW215118   1.234   5.711   4.578  0.2565 -0.4225  0.4457
 4769SOL     OW15119   3.717   7.312   1.844  0.6402  0.3702  0.1070
 4769SOL    HW115120   3.750   7.388   1.797  0.7241 -0.2840 -0.9200
 4769SOL    HW215121   3.622   7.312   1.827  0.7942 -0.3642 -0.8265
 4770SOL     OW15122   0.768   2.446   4.337  0.1022 -0.1624 -0.0652
 4770SOL    HW115123   0.730   2.529   4.363  0.4214 -0.1856  0.4883
 4770SOL    HW215124   0.777   2.397   4.419  1.7129  0.0134 -0.1224
 4771SOL     OW15125   3.585   7.120   3.879 -0.4432 -0.0676  0.5634
 4771SOL    HW115126   3.622   7.045   3.832  0.1611 -0.1752  1.2048
 4771SOL    HW215127   3.661   7.173   3.902 -0.6262 -0.5608  2.3542
 4772SOL     OW15128   6.071   0.761   3.584  0.4591 -0.7191 -0.2023
 4772SOL    HW115129   6.080   0.855   3.570 -0.2086 -0.3536  1.6843
 4772SOL    HW215130   6.161   0.730   3.598  0.5405 -0.1080  0.6597
 4773SOL     OW15131   6.157   2.929   0.289  0.1033 -0.1476 -0.2769
 4773SOL    HW115132   6.107   2.977   0.355 -3.0308 -2.2139 -1.0209
 4773SOL    HW215133   6.231   2.893   0.336 -0.7631  0.4334  1.5744
 4774SOL     OW15134   4.597   7.634   6.739  0.3221  0.1361 -0.4901
 4774SOL    HW115135   4.585   7.609   6.647 -0.4355 -0.4902 -0.2277
 4774SOL    HW215136   4.643   7.561   6.778  1.1555  0.6539 -0.4958
 4775SOL     OW15137   7.259   2.978   1.012 -0.5602 -0.2064 -0.8990
 4775SOL    HW115138   7.182   3.007   1.061 -1.1616 -2.0503 -0.7049
 4775SOL    HW215139   7.234   2.988   0.920 -0.4914  0.5988 -0.8248
 4776SOL     OW15140   6.509   5.844   3.815 -0.2152  0.0817 -0.1492
 4776SOL    HW115141   6.439   5.811   3.759 -0.2421  2.0352 -1.2847
 4776SOL    HW215142   6.464   5.883   3.889 -0.2469 -0.4892  0.1381
 4777SOL     OW15143   7.971   3.355   5.214 -0.3064  0.0387 -0.7392
 4777SOL    HW115144   7.890   3.393   5.180 -0.5320  1.6799  1.5599
 4777SOL    HW215145   8.037   3.422   5.200  0.1818 -0.3814 -0.4814
 4778SOL     OW15146   7.324   6.618   3.581 -0.5691 -0.3974  0.3539
 4778SOL    HW115147   7.242   6.582   3.613  0.8331 -3.1359  0.9744
 4778SOL    HW215148   7.341   6.571   3.499  1.2804 -1.2300  1.1757
 4779SOL     OW15149   6.244   3.508   5.466  0.8211 -0.3195 -0.2378
 4779SOL    HW115150   6.324   3.489   5.416  0.2554  1.1099 -1.7310
 4779SOL    HW215151   6.185   3.548   5.402 -1.8062 -3.0659  0.3923
 4780SOL     OW15152   4.383   5.737   2.888  0.0301  0.1551 -0.3858
 4780SOL    HW115153   4.348   5.781   2.811 -1.1569  0.9565  0.5851
 4780SOL    HW215154   4.317   5.671   2.909  0.2283  0.1076  0.0955
 4781SOL     OW15155   5.318   6.064   4.444  0.4961 -0.3158 -1.2442
 4781SOL    HW115156   5.239   6.099   4.485  2.0726  2.1993 -0.2104
 4781SOL    HW215157   5.342   5.989   4.498 -0.6064 -0.4758 -0.9614
 4782SOL     OW15158   2.383   4.196   7.446  0.1768  0.5533  0.2005
 4782SOL    HW115159   2.311   4.133   7.442  0.7345 -0.0559 -0.3336
 4782SOL    HW215160   2.390   4.219   7.538 -1.4083  1.4374  0.1337
 4783SOL     OW15161   1.990   3.796   5.513  0.2475 -0.2917 -0.4020
 4783SOL    HW115162   2.079   3.761   5.503 -0.3274 -1.5117 -1.2498
 4783SOL    HW215163   1.995   3.884   5.476  1.1625 -0.2442 -0.1982
 4784SOL     OW15164   0.068   4.121   3.177  0.0234  0.0761 -0.0009
 4784SOL    HW115165   0.101   4.210   3.163 -0.2875  0.0653 -0.7814
 4784SOL    HW215166   0.064   4.113   3.273 -0.0373  0.9322  0.0748
 4785SOL     OW15167   6.196   1.055   4.033  0.0434 -0.3819  0.1096
 4785SOL    HW115168   6.219   0.968   4.066 -1.6369 -0.4806  1.0529
 4785SOL    HW215169   6.127   1.039   3.968 -0.1367  0.2292  0.1476
 4786SOL     OW15170   6.256   3.122   0.856 -0.9574 -0.8965 -0.7197
 4786SOL    HW115171   6.305   3.058   0.909 -1.3156  2.1529  3.5948
 4786SOL    HW215172   6.164   3.101   0.873 -1.0736  0.6009  0.5773
 4787SOL     OW15173   1.745   7.340   6.594  0.5164  0.0439  0.0591
 4787SOL    HW115174   1.730   7.427   6.557  0.1429  0.0642  0.2545
 4787SOL    HW215175   1.662   7.294   6.580  0.5670 -0.1355  0.3515
 4788SOL     OW15176   3.922   3.417   5.887 -0.4992 -0.2540 -0.4347
 4788SOL    HW115177   4.017   3.427   5.893 -0.1700 -3.1003  0.0253
 4788SOL    HW215178   3.886   3.492   5.934  1.5181  0.4172  0.0827
 4789SOL     OW15179   5.667   4.131   4.218  0.4684  0.2089 -0.0165
 4789SOL    HW115180   5.709   4.184   4.286 -1.2960 -0.5172  1.6943
 4789SOL    HW215181   5.721   4.052   4.212 -0.1517 -0.3547  1.5824
 4790SOL     OW15182   6.132   6.912   3.507 -0.5928 -0.3144  0.0173
 4790SOL    HW115183   6.195   6.946   3.571 -0.2822 -2.2573  0.7854
 4790SOL    HW215184   6.137   6.973   3.434  1.6388 -0.0066  0.3865
 4791SOL     OW15185   4.903   4.433   7.969  0.2879  0.3161 -0.3748
 4791SOL    HW115186   4.871   4.354   8.013 -0.2120  1.2748  1.0274
 4791SOL    HW215187   4.829   4.494   7.973  1.3653  1.6122  0.4929
 4792SOL     OW15188   0.775   0.733   7.714  0.0941 -0.0871 -0.4107
 4792SOL    HW115189   0.846   0.691   7.765  0.4332 -1.0172 -1.6301
 4792SOL    HW215190   0.814   0.813   7.681  0.9910 -1.2003 -2.1088
 4793SOL     OW15191   4.113   2.676   3.773 -0.3902  0.2741  0.3312
 4793SOL    HW115192   4.088   2.595   3.818 -3.0905 -1.0899 -3.4606
 4793SOL    HW215193   4.054   2.742   3.809  1.2178  0.4857  2.7668
 4794SOL     OW15194   0.842   0.292   1.654  0.2465  0.5469  0.2854
 4794SOL    HW115195   0.889   0.284   1.571  0.3330  0.3684  0.3507
 4794SOL    HW215196   0.877   0.372   1.693 -0.0722  0.8369 -0.0236
 4795SOL     OW15197   5.132   2.687   7.344 -0.2286 -0.1793  0.7581
 4795SOL    HW115198   5.067   2.754   7.322 -0.3510 -0.4379  0.3113
 4795SOL    HW215199   5.187   2.728   7.411 -0.6315  0.1712  0.8780
 4796SOL     OW15200   1.403   2.322   6.153  0.1810  0.4223 -0.3205
 4796SOL    HW115201   1.459   2.291   6.082 -1.1423  0.3828 -1.3838
 4796SOL    HW215202   1.390   2.415   6.133  2.1440  1.1319  1.4950
 4797SOL     OW15203   0.117   5.290   7.437 -0.4741 -0.1181 -0.6933
 4797SOL    HW115204   0.165   5.372   7.435 -1.2164  0.3846  1.5092
 4797SOL    HW215205   0.185   5.223   7.447 -0.0456  0.3975 -0.1120
 4798SOL     OW15206   4.451   1.749   1.079 -0.1821  0.5382  0.1948
 4798SOL    HW115207   4.537   1.785   1.057  0.8587 -2.1707 -0.2714
 4798SOL    HW215208   4.465   1.655   1.088 -2.4686  0.4073  3.3048
 4799SOL     OW15209   7.226   2.414   5.784 -0.1504  0.2815  0.2178
 4799SOL    HW115210   7.141   2.420   5.827 -0.0898 -1.9037  0.6820
 4799SOL    HW215211   7.207   2.426   5.691 -1.2220 -1.9359  0.1237
 4800SOL     OW15212   0.301   4.693   3.564  0.3712 -0.2678 -0.1326
 4800SOL    HW115213   0.340   4.663   3.646  1.0681  0.0803 -0.3383
 4800SOL    HW215214   0.206   4.686   3.579  0.5011 -0.6402  0.5357
 4801SOL     OW15215   0.367   1.443   3.599 -0.2151 -0.7625  0.1212
 4801SOL    HW115216   0.287   1.485   3.632  0.3700  0.9753 -0.6386
 4801SOL    HW215217   0.339   1.353   3.578 -1.9088 -0.2652  0.1443
 4802SOL     OW15218   7.472   5.419   5.228 -0.4734  0.6369  0.3653
 4802SOL    HW115219   7.431   5.477   5.164 -2.9460  0.1886  1.4673
 4802SOL    HW215220   7.441   5.332   5.203  1.8433 -0.0229 -0.2607
 4803SOL     OW15221   4.805   0.745   7.836 -0.1422 -0.7049 -0.2066
 4803SOL    HW115222   4.838   0.680   7.898  0.4779  0.8138  1.1017
 4803SOL    HW215223   4.851   0.726   7.754 -0.0241 -1.9402  0.1366
 4804SOL     OW15224   1.941   5.926   7.839 -0.2265 -0.6178  0.5260
 4804SOL    HW115225   1.895   5.844   7.861 -0.8296 -0.4782 -0.2276
 4804SOL    HW215226   1.887   5.994   7.880 -1.3370 -0.3564 -1.3310
 4805SOL     OW15227   1.039   3.923   7.732  0.6259  0.8607  0.4718
 4805SOL    HW115228   1.028   3.876   7.649  0.7636  2.1148 -0.2791
 4805SOL    HW215229   1.113   3.879   7.774 -0.1478 -0.4967  0.4511
 4806SOL     OW15230   3.615   5.416   1.139 -0.3273  0.3396 -0.2127
 4806SOL    HW115231   3.545   5.436   1.201  0.4976  1.4591  0.3839
 4806SOL    HW215232   3.606   5.482   1.070  1.2386  1.6575  0.7966
 4807SOL     OW15233   0.169   5.391   3.721 -0.1692  0.1810  0.9880
 4807SOL    HW115234   0.143   5.408   3.630 -0.4064  0.2595  1.0686
 4807SOL    HW215235   0.086   5.374   3.766  0.0561 -1.0221  0.9469
 4808SOL     OW15236   7.422   7.753   3.773  0.2039 -0.1311 -0.4254
 4808SOL    HW115237   7.508   7.721   3.745 -0.8564 -3.1213 -0.4753
 4808SOL    HW215238   7.401   7.700   3.850  0.4544  3.8888  2.5108
 4809SOL     OW15239   4.813   1.022   7.823  0.1446 -0.3197  0.2691
 4809SOL    HW115240   4.868   1.043   7.748 -1.3500 -1.0990 -1.0678
 4809SOL    HW215241   4.795   0.928   7.815 -2.8913  0.2529 -0.3895
 4810SOL     OW15242   3.974   0.962   4.674 -0.3982 -0.7849 -0.2881
 4810SOL    HW115243   3.938   0.902   4.739 -0.2940 -2.5184 -1.7975
 4810SOL    HW215244   3.917   1.039   4.678 -0.6719 -1.0630  1.5073
 4811SOL     OW15245   3.059   2.656   4.221 -0.8153  0.4290  0.3807
 4811SOL    HW115246   2.972   2.665   4.260 -1.1305  0.1210 -0.2461
 4811SOL    HW215247   3.043   2.657   4.127 -0.0966  0.7911  0.2621
 4812SOL     OW15248   3.645   0.230   6.692  1.0210  0.3317  0.0138
 4812SOL    HW115249   3.707   0.237   6.764  1.3068 -0.1039 -0.1943
 4812SOL    HW215250   3.560   0.217   6.735  1.3097 -0.7950  0.2487
 4813SOL     OW15251   2.908   5.890   4.820  0.0286 -0.6904 -0.4205
 4813SOL    HW115252   2.867   5.938   4.891 -1.5923 -3.1568  0.3729
 4813SOL    HW215253   2.922   5.955   4.751 -0.0812  1.3268  1.4462
 4814SOL     OW15254   7.368   2.127   3.102 -0.1397 -0.8202 -0.3672
 4814SOL    HW115255   7.277   2.124   3.130  0.3008 -1.0860  1.0514
 4814SOL    HW215256   7.386   2.220   3.088 -0.0283 -0.5747  1.3563
 4815SOL     OW15257   1.760   3.233   7.112 -0.0698  0.7115  0.8810
 4815SOL    HW115258   1.709   3.306   7.146 -0.8395  0.4448  0.3226
 4815SOL    HW215259   1.711   3.155   7.137  0.1636  0.4417  0.5063
 4816SOL     OW15260   7.503   3.194   7.517  0.0323  0.0888  0.1400
 4816SOL    HW115261   7.468   3.111   7.548  1.2708  0.0385  1.4584
 4816SOL    HW215262   7.587   3.202   7.561  1.3586  0.5533 -2.3897
 4817SOL     OW15263   3.329   2.106   3.955 -0.6983  0.0420 -0.2086
 4817SOL    HW115264   3.399   2.162   3.988 -0.5510 -0.1385 -0.2113
 4817SOL    HW215265   3.353   2.018   3.986 -1.5349  0.1657  0.7825
 4818SOL     OW15266   2.538   0.051   7.732  0.4489 -0.3957 -0.4384
 4818SOL    HW115267   2.532   0.120   7.666 -1.1326 -0.0724  0.0208
 4818SOL    HW215268   2.476  -0.016   7.703  1.1903 -1.1436 -0.3149
 4819SOL     OW15269   0.681   2.558   1.422 -0.1137  0.4898  0.0297
 4819SOL    HW115270   0.630   2.639   1.412  0.1674  1.2409  3.6626
 4819SOL    HW215271   0.763   2.587   1.464  0.6604 -1.4808 -0.0673
 4820SOL     OW15272   1.541   3.857   7.446 -0.1436  0.2661  0.7884
 4820SOL    HW115273   1.628   3.895   7.436  0.1848 -1.0321 -1.6737
 4820SOL    HW215274   1.481   3.928   7.424  0.4163  0.0509 -1.5809
 4821SOL     OW15275   1.000   2.814   6.827  0.0483  0.5052 -0.8929
 4821SOL    HW115276   1.082   2.765   6.836  0.9424  1.6949 -2.2645
 4821SOL    HW215277   0.948   2.763   6.765 -0.4299 -0.4753  0.3096
 4822SOL     OW15278   1.778   1.034   2.414  0.1677 -0.3882  0.0254
 4822SOL    HW115279   1.853   0.978   2.395 -0.0026  0.2094 -2.6488
 4822SOL    HW215280   1.719   1.021   2.340 -0.9195  1.5252  0.5241
 4823SOL     OW15281   5.137   4.183   7.334  0.4162  0.2579  0.2339
 4823SOL    HW115282   5.143   4.228   7.418  2.6762 -0.6191  0.6015
 4823SOL    HW215283   5.068   4.229   7.287 -2.1849 -0.3932  3.2385
 4824SOL     OW15284   7.750   3.446   5.101 -0.0297  0.7421  0.2709
 4824SOL    HW115285   7.775   3.517   5.042 -2.0896  0.7503 -0.6367
 4824SOL    HW215286   7.725   3.490   5.182  0.3153  0.9237  0.2809
 4825SOL     OW15287   1.779   3.179   7.967  0.3986  0.6876 -0.4456
 4825SOL    HW115288   1.806   3.171   7.875  0.4862 -0.0575 -0.3585
 4825SOL    HW215289   1.860   3.201   8.013  0.1724  2.0271 -0.6762
 4826SOL     OW15290   0.264   0.921   5.184  0.0975 -0.1150  0.4076
 4826SOL    HW115291   0.214   1.002   5.186 -1.6414 -1.1232 -0.3186
 4826SOL    HW215292   0.355   0.948   5.174 -0.6669  1.6832 -1.9589
 4827SOL     OW15293   6.200   7.514   5.822 -0.3302 -0.0097 -0.4576
 4827SOL    HW115294   6.277   7.481   5.775 -1.3566 -1.5068 -1.1491
 4827SOL    HW215295   6.232   7.589   5.871  1.6823 -0.8807 -0.3646
 4828SOL     OW15296   2.243   5.467   4.987  0.4418 -0.0299 -0.4938
 4828SOL    HW115297   2.285   5.553   4.975 -2.2938  1.5248  0.5684
 4828SOL    HW215298   2.195   5.453   4.905  1.6949 -1.0325 -1.0624
 4829SOL     OW15299   5.146   3.598   2.694 -0.2720 -0.2711  0.0658
 4829SOL    HW115300   5.226   3.648   2.678 -0.3915 -0.5428 -1.4921
 4829SOL    HW215301   5.076   3.664   2.693 -0.3454 -0.3578 -1.2165
 4830SOL     OW15302   7.393   0.295   4.021  0.2628 -0.7437  0.6968
 4830SOL    HW115303   7.332   0.243   3.969  1.8213  2.0647 -4.2890
 4830SOL    HW215304   7.470   0.239   4.033 -0.2081 -1.5117  0.1331
 4831SOL     OW15305   0.917   0.004   6.004 -0.1232  0.0719  0.3880
 4831SOL    HW115306   0.844   0.047   6.048 -1.0402  0.8225 -1.7801
 4831SOL    HW215307   0.995   0.041   6.044 -0.9239  1.5792  0.6021
 4832SOL     OW15308   3.617   4.380   0.615 -0.2875  0.2551 -0.5563
 4832SOL    HW115309   3.642   4.348   0.702  1.3026  0.7992 -0.7857
 4832SOL    HW215310   3.653   4.469   0.611  0.2069  0.0119 -1.9911
 4833SOL     OW15311   5.040   2.022   7.738  0.2256  0.3421  0.6360
 4833SOL    HW115312   4.965   1.963   7.732 -0.5432  1.3824 -0.2739
 4833SOL    HW215313   5.113   1.966   7.766 -0.9560 -0.6043  1.8608
 4834SOL     OW15314   0.518   2.915   5.911  0.2820 -0.5730  0.0757
 4834SOL    HW115315   0.429   2.943   5.889  0.6054 -0.8145 -1.6664
 4834SOL    HW215316   0.520   2.911   6.006 -1.1841  0.6940  0.1711
 4835SOL     OW15317   5.992   2.883   4.709  0.1042 -0.1702  0.1550
 4835SOL    HW115318   5.947   2.961   4.676 -1.6562 -0.5221  1.6218
 4835SOL    HW215319   6.013   2.904   4.800  2.4732 -0.2322 -0.3451
 4836SOL     OW15320   5.627   3.870   5.989  0.1630  0.5115  0.7257
 4836SOL    HW115321   5.578   3.792   5.962  0.0349  0.4519  1.1289
 4836SOL    HW215322   5.600   3.885   6.079  0.2429  0.9827  0.6716
 4837SOL     OW15323   2.878   3.450   0.967 -0.1162 -0.7006 -0.3105
 4837SOL    HW115324   2.963   3.424   1.001  0.3253  0.1754 -0.7239
 4837SOL    HW215325   2.886   3.544   0.951 -1.6673 -0.2998  1.1164
 4838SOL     OW15326   7.732   7.697   5.570  0.2725 -0.1031 -0.3037
 4838SOL    HW115327   7.743   7.746   5.488  0.5324  1.1713  0.4760
 4838SOL    HW215328   7.702   7.611   5.542  1.0231  0.0898 -1.7881
 4839SOL     OW15329   3.145   3.439   5.674  0.1090  0.2280 -0.7014
 4839SOL    HW115330   3.076   3.491   5.632 -1.0229  0.2173  1.1039
 4839SOL    HW215331   3.209   3.504   5.703 -0.4285  0.4755 -0.0515
 4840SOL     OW15332   6.688   4.393   4.244  0.3893 -0.1361  0.3539
 4840SOL    HW115333   6.593   4.407   4.244  0.2301 -1.1724 -0.9738
 4840SOL    HW215334   6.717   4.423   4.158  1.4059  0.9458  1.0383
 4841SOL     OW15335   5.780   3.966   3.641 -0.0029  0.4939  0.3666
 4841SOL    HW115336   5.684   3.971   3.641 -0.0712 -0.3269 -1.3555
 4841SOL    HW215337   5.809   4.056   3.630 -0.6550  0.4788 -1.8075
 4842SOL     OW15338   5.017   6.054   7.519 -0.5395  0.3894  0.1958
 4842SOL    HW115339   4.987   6.131   7.567 -0.9710 -0.5140  1.4073
 4842SOL    HW215340   4.972   5.980   7.560  0.4555 -0.5987 -0.4277
 4843SOL     OW15341   2.566   3.209   5.296 -0.5790  0.0687  0.1433
 4843SOL    HW115342   2.627   3.223   5.223 -1.3797 -0.5114 -0.6447
 4843SOL    HW215343   2.555   3.296   5.334  0.9538  0.1410  0.4759
 4844SOL     OW15344   0.170   6.653   0.523  0.1741  0.0124  0.6796
 4844SOL    HW115345   0.182   6.563   0.493  0.2642  0.4580 -0.6989
 4844SOL    HW215346   0.259   6.685   0.539  0.1507 -0.1087  1.0440
 4845SOL     OW15347   6.793   4.240   5.511 -0.0414 -0.5176 -0.0383
 4845SOL    HW115348   6.710   4.278   5.540  0.0424 -1.1165  1.0028
 4845SOL    HW215349   6.859   4.307   5.533 -0.1142 -0.5141  0.1752
 4846SOL     OW15350   0.544   7.932   5.246 -0.2729  0.2116  0.5758
 4846SOL    HW115351   0.457   7.970   5.234 -0.5253 -0.7256 -0.7173
 4846SOL    HW215352   0.535   7.842   5.215  1.2909  0.2495 -0.0530
 4847SOL     OW15353   5.034   2.461   5.793 -0.2787  0.0484 -0.1292
 4847SOL    HW115354   5.029   2.444   5.888 -0.1985 -1.4630 -0.3800
 4847SOL    HW215355   5.007   2.552   5.784 -2.1811 -0.3480  1.1652
 4848SOL     OW15356   2.154   2.234   2.933 -1.1362 -0.5934  0.3254
 4848SOL    HW115357   2.136   2.304   2.996  1.8162  1.3101 -0.8376
 4848SOL    HW215358   2.204   2.277   2.863  0.2727 -3.7698 -0.6959
 4849SOL     OW15359   3.408   6.084   4.079 -0.1404 -0.3807 -0.1037
 4849SOL    HW115360   3.478   6.094   4.015  1.0009 -1.4167  0.9798
 4849SOL    HW215361   3.341   6.032   4.033  0.6281 -1.0381 -0.4961
 4850SOL     OW15362   7.084   4.787   6.820 -0.2273 -0.1248  0.3660
 4850SOL    HW115363   6.998   4.748   6.806 -0.8531  1.3143  0.1047
 4850SOL    HW215364   7.090   4.799   6.915  1.1762 -3.5126  0.7576
 4851SOL     OW15365   0.531   4.498   5.051 -0.0391  0.5092  0.0401
 4851SOL    HW115366   0.577   4.581   5.039 -1.3842  1.0855 -1.2638
 4851SOL    HW215367   0.598   4.439   5.088  1.4077  1.6451 -0.6991
 4852SOL     OW15368   5.645   2.799   3.228 -0.1917 -0.6491  0.4371
 4852SOL    HW115369   5.687   2.713   3.225  0.0462 -0.5138 -0.2482
 4852SOL    HW215370   5.695   2.852   3.166 -1.9055 -0.7411 -1.0684
 4853SOL     OW15371   0.792   2.953   1.339  0.0838 -0.3142  0.6187
 4853SOL    HW115372   0.745   3.036   1.337  1.0278  0.2150 -0.9549
 4853SOL    HW215373   0.726   2.888   1.364 -1.4312  0.4377 -1.2899
 4854SOL     OW15374   4.347   4.401   4.744 -0.1911 -0.3209 -0.1896
 4854SOL    HW115375   4.310   4.317   4.715 -2.7767  1.3637 -2.0468
 4854SOL    HW215376   4.302   4.420   4.827  0.3317 -0.7034  0.1867
 4855SOL     OW15377   6.922   6.525   4.404 -0.1845  1.0179  0.2341
 4855SOL    HW115378   6.909   6.558   4.315 -1.0882 -0.8495 -0.3494
 4855SOL    HW215379   6.853   6.460   4.416  2.8121 -2.3017  0.4937
 4856SOL     OW15380   5.761   3.244   5.573 -0.8043  0.2778 -0.0924
 4856SOL    HW115381   5.752   3.194   5.492  1.4969 -2.5087  1.2773
 4856SOL    HW215382   5.818   3.317   5.550  0.1619 -0.7221 -0.9125
 4857SOL     OW15383   3.064   1.944   1.763  0.1265  0.0851  0.5943
 4857SOL    HW115384   3.004   2.018   1.755  1.5222  1.2264  0.6749
 4857SOL    HW215385   3.147   1.982   1.790  0.3918 -1.6965  2.4544
 4858SOL     OW15386   6.479   2.886   6.479  0.3804  0.2400  0.9777
 4858SOL    HW115387   6.454   2.948   6.411  1.6505  0.7323  0.9389
 4858SOL    HW215388   6.461   2.932   6.561  0.9506  0.5156  0.9520
 4859SOL     OW15389   3.034   6.247   3.596  0.5291 -0.0012 -0.3492
 4859SOL    HW115390   3.046   6.266   3.503  0.8412 -0.7946 -0.4774
 4859SOL    HW215391   2.955   6.295   3.621  0.4536  0.2235 -1.0206
 4860SOL     OW15392   3.198   6.920   5.826 -0.4294  0.8391 -0.2201
 4860SOL    HW115393   3.219   6.993   5.885 -1.9137  1.5229 -0.5095
 4860SOL    HW215394   3.187   6.845   5.885 -1.5372  1.4400  0.3634
 4861SOL     OW15395   4.635   3.281   7.912 -0.5226 -0.4406 -0.0012
 4861SOL    HW115396   4.671   3.326   7.836  1.2668 -0.3081  0.8933
 4861SOL    HW215397   4.593   3.351   7.964  1.4125  0.0786  0.9077
 4862SOL     OW15398   6.099   1.799   2.676  0.3515 -0.7401 -0.2426
 4862SOL    HW115399   6.034   1.753   2.623 -0.7418  0.2243  0.2216
 4862SOL    HW215400   6.059   1.807   2.762  0.5656  0.9046 -0.2621
 4863SOL     OW15401   3.553   7.178   6.209 -0.1744  0.0506  0.3114
 4863SOL    HW115402   3.578   7.208   6.122 -0.5833 -0.3931  0.0340
 4863SOL    HW215403   3.533   7.258   6.257 -2.6326  0.1800 -0.8488
 4864SOL     OW15404   3.146   1.666   1.741 -0.7609  0.3850 -0.2178
 4864SOL    HW115405   3.109   1.674   1.654  0.4422  1.0908 -0.6779
 4864SOL    HW215406   3.140   1.754   1.778  1.1284  0.6851 -0.5885
 4865SOL     OW15407   7.851   1.373   3.300 -0.2100 -0.2198 -0.0376
 4865SOL    HW115408   7.894   1.400   3.382 -1.2104 -1.0852  0.7936
 4865SOL    HW215409   7.859   1.449   3.243  1.8665 -0.1559  0.3152
 4866SOL     OW15410   3.086   3.255   6.870  0.0913  0.1816 -0.2318
 4866SOL    HW115411   3.067   3.164   6.890  0.4076 -0.4119 -2.4637
 4866SOL    HW215412   3.008   3.303   6.899 -0.4260 -0.9152  0.2048
 4867SOL     OW15413   5.484   4.511   4.040 -0.1679 -0.5538 -0.0023
 4867SOL    HW115414   5.531   4.568   4.102  0.0057  0.2171 -0.8434
 4867SOL    HW215415   5.509   4.423   4.067 -0.9829 -0.2819  1.7567
 4868SOL     OW15416   1.967   6.564   6.928 -0.2852  0.4121  0.2501
 4868SOL    HW115417   1.920   6.534   7.006 -2.2504  3.1025  0.1690
 4868SOL    HW215418   1.934   6.507   6.858 -2.0661  1.0128  0.5554
 4869SOL     OW15419   0.217   3.269   4.436  0.4402 -0.3080  0.1422
 4869SOL    HW115420   0.183   3.317   4.360 -0.3630 -0.0809  0.6390
 4869SOL    HW215421   0.148   3.206   4.458  2.1859 -2.9131 -1.5491
 4870SOL     OW15422   0.075   2.730   6.495  0.7774  0.0663 -0.1444
 4870SOL    HW115423   0.121   2.658   6.454  1.2137 -0.5504  1.4019
 4870SOL    HW215424   0.144   2.785   6.532  0.3844  0.4577  0.0112
 4871SOL     OW15425   1.225   4.329   5.925 -0.5667  0.3967 -0.3341
 4871SOL    HW115426   1.132   4.353   5.926 -0.3234  1.3761 -0.0175
 4871SOL    HW215427   1.247   4.317   6.017 -1.1564 -3.0372 -0.5989
 4872SOL     OW15428   5.278   1.591   1.040  0.0483  0.5002  0.2885
 4872SOL    HW115429   5.217   1.620   1.108  0.1628  0.5195  0.3826
 4872SOL    HW215430   5.241   1.625   0.959  0.0529  0.7060  0.3718
 4873SOL     OW15431   1.829   5.462   3.201 -0.4316 -0.0072  1.1161
 4873SOL    HW115432   1.861   5.524   3.267  0.4457  0.4821  0.2450
 4873SOL    HW215433   1.749   5.426   3.239 -0.0495  0.4249  2.3569
 4874SOL     OW15434   4.606   4.306   0.931  0.0179 -0.2807 -0.1259
 4874SOL    HW115435   4.551   4.335   1.004  0.0721 -2.3360  0.7850
 4874SOL    HW215436   4.661   4.381   0.911 -0.6641  0.6330  1.3308
 4875SOL     OW15437   2.488   3.122   6.054 -0.5108 -0.0327 -0.0397
 4875SOL    HW115438   2.503   3.108   6.148 -1.2893 -1.5906 -0.1341
 4875SOL    HW215439   2.418   3.187   6.050  0.3756  0.9697  0.4406
 4876SOL     OW15440   3.397   5.648   5.417 -0.7549 -0.1895  0.2130
 4876SOL    HW115441   3.471   5.643   5.478 -0.9744  0.5570  0.5530
 4876SOL    HW215442   3.349   5.566   5.430 -0.0394 -0.6359  0.0590
 4877SOL     OW15443   3.566   5.311   5.224 -0.0857 -0.0876 -0.0273
 4877SOL    HW115444   3.647   5.301   5.173 -0.2605 -0.9106 -0.1511
 4877SOL    HW215445   3.502   5.344   5.161  0.0957  0.3768  0.0255
 4878SOL     OW15446   7.770   6.564   5.447 -0.2693 -0.2135  0.0409
 4878SOL    HW115447   7.862   6.574   5.472 -0.0234  0.1596 -0.9687
 4878SOL    HW215448   7.761   6.618   5.368 -2.1727  2.4000  1.9894
 4879SOL     OW15449   6.621   0.661   7.641  0.1515 -0.0849 -0.0007
 4879SOL    HW115450   6.649   0.626   7.725 -0.9930  1.0761  0.8793
 4879SOL    HW215451   6.691   0.721   7.614 -0.7609  1.7088  1.5011
 4880SOL     OW15452   1.964   6.464   5.453  0.2004 -0.2636 -0.2764
 4880SOL    HW115453   1.967   6.520   5.376  1.7007  3.1084  2.1383
 4880SOL    HW215454   2.056   6.447   5.473 -0.1807 -1.0807  0.8028
 4881SOL     OW15455   4.021   4.437   3.661 -0.2080 -0.0692 -0.2558
 4881SOL    HW115456   3.986   4.482   3.738 -2.0572 -0.4023 -0.9005
 4881SOL    HW215457   4.035   4.506   3.597  3.0908  0.5088  0.9298
 4882SOL     OW15458   6.775   5.677   6.060 -0.2170 -0.0379 -0.5248
 4882SOL    HW115459   6.775   5.604   5.999 -0.8932 -0.0006 -0.5725
 4882SOL    HW215460   6.715   5.741   6.021 -1.0088 -0.2031  0.4011
 4883SOL     OW15461   3.677   4.679   0.229 -0.3043 -0.2144 -0.4921
 4883SOL    HW115462   3.766   4.653   0.204  1.1547  0.2640  3.7292
 4883SOL    HW215463   3.629   4.596   0.237  0.7789 -0.7470  0.6547
 4884SOL     OW15464   4.152   1.024   5.464  0.4379  0.4174 -0.1740
 4884SOL    HW115465   4.105   1.067   5.535  1.3400 -0.3143  0.8752
 4884SOL    HW215466   4.085   1.006   5.398 -0.4321  0.9444  0.5650
 4885SOL     OW15467   6.932   1.492   1.495 -0.0478  0.3021  0.7778
 4885SOL    HW115468   6.862   1.554   1.518 -1.3951 -1.5094  1.6244
 4885SOL    HW215469   6.966   1.462   1.579  0.4627 -0.2965  0.3591
 4886SOL     OW15470   6.867   3.044   5.636  0.4671 -0.5906 -0.1966
 4886SOL    HW115471   6.924   3.081   5.703  0.0101  1.1656 -0.7505
 4886SOL    HW215472   6.880   2.949   5.643  2.6327 -0.2805  0.4073
 4887SOL     OW15473   0.333   2.283   7.790  0.3013  0.0954  0.5716
 4887SOL    HW115474   0.396   2.354   7.773 -0.6379  0.8679  0.3012
 4887SOL    HW215475   0.338   2.269   7.885  1.0396  0.0036  0.5204
 4888SOL     OW15476   4.983   1.449   2.246  0.2003  0.0790 -0.2568
 4888SOL    HW115477   4.955   1.391   2.175  1.0187 -0.7716  0.0923
 4888SOL    HW215478   4.921   1.522   2.244  0.2516  0.1097 -1.8912
 4889SOL     OW15479   6.684   7.049   6.999  0.5509 -0.9688 -0.1208
 4889SOL    HW115480   6.590   7.057   6.985  0.3186 -1.0111  1.3808
 4889SOL    HW215481   6.718   7.136   6.978  0.1945 -0.9723 -0.7374
 4890SOL     OW15482   0.305   5.675   6.113  0.0657 -0.1160 -0.6015
 4890SOL    HW115483   0.355   5.594   6.107 -0.5740 -0.4763 -1.1172
 4890SOL    HW215484   0.269   5.674   6.202  2.3850  0.9923  0.3909
 4891SOL     OW15485   2.279   5.220   2.155  0.0239  0.0771 -0.2790
 4891SOL    HW115486   2.223   5.143   2.160 -0.5606  0.6078  1.4644
 4891SOL    HW215487   2.235   5.286   2.208 -0.1774  2.0635 -2.7885
 4892SOL     OW15488   2.690   2.557   7.383 -0.4781 -0.0715 -0.0300
 4892SOL    HW115489   2.761   2.572   7.445 -0.2870 -0.3554 -0.1773
 4892SOL    HW215490   2.664   2.466   7.398  1.3178 -0.9862 -2.1443
 4893SOL     OW15491   3.339   2.191   6.239 -0.1636  0.3076  0.1100
 4893SOL    HW115492   3.282   2.170   6.165 -0.1609 -0.4496  0.3251
 4893SOL    HW215493   3.424   2.154   6.215  0.1142  1.0052  0.0108
 4894SOL     OW15494   4.239   5.604   7.694  0.2317 -0.1258  0.5535
 4894SOL    HW115495   4.188   5.682   7.673  1.2337  0.1750 -0.7513
 4894SOL    HW215496   4.173   5.540   7.722 -0.7362  0.6992  0.1922
 4895SOL     OW15497   6.338   2.429   5.849  0.5036 -0.1569 -0.1417
 4895SOL    HW115498   6.260   2.381   5.824  0.7265 -0.0506 -1.0544
 4895SOL    HW215499   6.322   2.454   5.941 -0.4381 -0.3021 -0.2591
 4896SOL     OW15500   0.883   7.409   6.070  0.0777  0.3411  0.1501
 4896SOL    HW115501   0.794   7.428   6.099 -0.3108  1.5936 -1.7351
 4896SOL    HW215502   0.911   7.489   6.025  1.4901 -0.6749 -0.8191
 4897SOL     OW15503   5.401   7.954   0.991  0.2717  0.3001  0.0302
 4897SOL    HW115504   5.423   7.981   0.902 -0.2924  1.9005  0.3653
 4897SOL    HW215505   5.396   7.858   0.986  0.4213  0.3628 -1.6065
 4898SOL     OW15506   0.836   7.225   5.893  0.2123  0.4409  0.2218
 4898SOL    HW115507   0.881   7.142   5.912  3.0560  1.8420 -0.1947
 4898SOL    HW215508   0.861   7.283   5.965 -2.3272  0.7826  0.8764
 4899SOL     OW15509   6.949   5.439   6.834  0.1648  0.7132 -0.3512
 4899SOL    HW115510   6.961   5.351   6.871  1.1311  0.1611 -1.9302
 4899SOL    HW215511   7.026   5.452   6.779 -0.3256  2.2785 -0.6865
 4900SOL     OW15512   3.702   6.252   1.382 -0.3200 -0.2087  0.4177
 4900SOL    HW115513   3.755   6.193   1.328  0.4512  0.8362  0.0291
 4900SOL    HW215514   3.729   6.234   1.471  1.1934  0.8078  0.1715
 4901SOL     OW15515   0.270   7.850   7.620  0.3204  0.1149  0.1729
 4901SOL    HW115516   0.202   7.785   7.638 -1.3636  1.5446 -0.8858
 4901SOL    HW215517   0.270   7.907   7.696  3.2058 -2.2240  2.0434
 4902SOL     OW15518   1.382   2.283   4.254 -0.1194  0.6152  0.5954
 4902SOL    HW115519   1.298   2.328   4.262 -1.3061 -1.5945  0.9471
 4902SOL    HW215520   1.420   2.316   4.173 -1.2531  1.7408  0.5224
 4903SOL     OW15521   1.212   2.946   7.179 -0.4143  0.6536 -0.4585
 4903SOL    HW115522   1.258   3.013   7.230 -0.0547  1.2372 -1.5154
 4903SOL    HW215523   1.154   2.903   7.241  0.8217  0.6085  0.6785
 4904SOL     OW15524   3.652   4.739   4.044  0.0390  0.4622  0.4737
 4904SOL    HW115525   3.585   4.800   4.075 -1.0018 -0.3258 -0.1759
 4904SOL    HW215526   3.671   4.767   3.954  1.4340  1.3840  1.0338
 4905SOL     OW15527   6.529   1.599   7.683  0.8132  0.1234  0.1217
 4905SOL    HW115528   6.535   1.671   7.621  1.2657  0.1578  0.2038
 4905SOL    HW215529   6.435   1.581   7.690  0.8013 -0.2881 -1.0345
 4906SOL     OW15530   3.344   6.714   0.418 -0.1453  0.1935 -0.1205
 4906SOL    HW115531   3.324   6.788   0.475  0.3532 -0.4728  0.9466
 4906SOL    HW215532   3.419   6.743   0.366 -0.0559  0.4940  0.1791
 4907SOL     OW15533   7.885   6.952   4.739 -0.5157  0.4937 -0.6245
 4907SOL    HW115534   7.953   7.006   4.781 -1.8997  1.6388  0.1729
 4907SOL    HW215535   7.803   6.996   4.760 -1.5676 -1.1889 -1.1179
 4908SOL     OW15536   3.368   5.727   2.296  0.3007 -0.2063  0.1569
 4908SOL    HW115537   3.434   5.661   2.274  1.5729  0.8782  0.6446
 4908SOL    HW215538   3.294   5.677   2.328  1.3724 -1.3869  0.8381
 4909SOL     OW15539   2.999   6.253   1.535 -0.1099 -0.4721  0.8431
 4909SOL    HW115540   3.033   6.166   1.515  0.1738  0.0796 -1.1718
 4909SOL    HW215541   3.075   6.304   1.560  0.2141  0.0448 -1.1039
 4910SOL     OW15542   1.816   7.537   4.267 -0.2127  0.0680  0.7129
 4910SOL    HW115543   1.770   7.587   4.198  1.6582 -0.3190 -0.8494
 4910SOL    HW215544   1.812   7.446   4.236  1.8514  0.0698  0.4011
 4911SOL     OW15545   1.942   1.466   4.518  0.9739 -0.1551  0.3859
 4911SOL    HW115546   1.905   1.380   4.538  1.4225 -0.0717  1.6157
 4911SOL    HW215547   2.005   1.482   4.588  0.4013  1.4836  0.5386
 4912SOL     OW15548   0.696   3.505   7.763  0.5202 -0.3371  0.0150
 4912SOL    HW115549   0.785   3.542   7.762  0.2027  0.4192 -0.4279
 4912SOL    HW215550   0.675   3.496   7.856  1.3301 -1.1554  0.1174
 4913SOL     OW15551   0.190   4.573   1.520 -0.2303 -0.0314  0.5834
 4913SOL    HW115552   0.267   4.593   1.467 -0.9351  0.0502 -0.4292
 4913SOL    HW215553   0.224   4.533   1.600  0.9748  1.6561  0.9326
 4914SOL     OW15554   5.545   7.687   2.704  0.4108  0.5189  0.3012
 4914SOL    HW115555   5.480   7.716   2.640 -1.3635 -0.3532  1.6421
 4914SOL    HW215556   5.542   7.754   2.773  0.8081  0.3905  0.4415
 4915SOL     OW15557   7.329   3.650   4.887  0.0938 -0.3152  0.1116
 4915SOL    HW115558   7.244   3.676   4.852  0.2510  1.2925  0.8874
 4915SOL    HW215559   7.389   3.660   4.814 -0.0970  0.1753  0.0165
 4916SOL     OW15560   5.635   2.249   4.831 -0.6052  0.3499 -0.1893
 4916SOL    HW115561   5.598   2.179   4.885 -0.8453 -0.1232 -0.9485
 4916SOL    HW215562   5.643   2.210   4.744 -1.0162  1.3558 -0.6946
 4917SOL     OW15563   1.800   5.624   3.003 -0.5623  0.0078 -0.1998
 4917SOL    HW115564   1.890   5.617   2.971 -0.3734 -0.9958  0.5066
 4917SOL    HW215565   1.796   5.562   3.076 -2.0056 -0.4256 -0.6347
 4918SOL     OW15566   4.546   1.324   6.630  0.6148  0.0057  0.0419
 4918SOL    HW115567   4.625   1.272   6.619  0.3065 -0.4008 -0.2387
 4918SOL    HW215568   4.567   1.408   6.590  1.0232  0.0139  0.2709
 4919SOL     OW15569   1.487   5.379   2.580  0.8772  0.1145 -0.1228
 4919SOL    HW115570   1.430   5.313   2.620 -0.2048  0.8266 -0.4724
 4919SOL    HW215571   1.554   5.396   2.646  0.3516 -0.3201  0.5235
 4920SOL     OW15572   2.645   5.179   0.512 -0.4996  0.1455  0.2041
 4920SOL    HW115573   2.582   5.111   0.488 -0.0432 -0.5822  1.0437
 4920SOL    HW215574   2.651   5.234   0.434  0.3138 -1.6732 -1.0676
 4921SOL     OW15575   3.552   6.311   7.759  0.7965 -0.1592 -0.4651
 4921SOL    HW115576   3.461   6.301   7.786  0.8404  0.2444 -0.1675
 4921SOL    HW215577   3.546   6.339   7.667  0.5927  1.0289 -0.0939
 4922SOL     OW15578   0.934   1.602   3.255  0.1527 -0.3041  0.2828
 4922SOL    HW115579   0.865   1.664   3.232 -0.6050 -1.2347  0.0314
 4922SOL    HW215580   0.888   1.529   3.296  0.8638 -1.3858 -0.8033
 4923SOL     OW15581   3.235   7.409   0.129  0.0337 -0.6959 -0.2826
 4923SOL    HW115582   3.144   7.413   0.099  0.0295 -0.2002 -0.2025
 4923SOL    HW215583   3.287   7.401   0.049  0.0754  1.3740 -0.4835
 4924SOL     OW15584   3.343   7.031   1.071  0.0622  0.3296 -0.0518
 4924SOL    HW115585   3.307   6.942   1.077  1.4173 -0.2627 -0.3961
 4924SOL    HW215586   3.390   7.031   0.987  1.4090  0.8652  0.6939
 4925SOL     OW15587   1.465   1.831   5.947  0.2299 -0.3954 -0.2439
 4925SOL    HW115588   1.486   1.867   5.861 -0.4553 -0.2031 -0.3350
 4925SOL    HW215589   1.380   1.870   5.969 -0.4027 -1.7673 -0.2295
 4926SOL     OW15590   7.389   1.793   0.927  0.2564  0.1377  0.3856
 4926SOL    HW115591   7.299   1.762   0.938  0.2815 -0.1494 -0.1880
 4926SOL    HW215592   7.443   1.714   0.936  0.4073  0.2092  0.1004
 4927SOL     OW15593   7.491   3.037   1.349  0.9936  0.2392 -0.3237
 4927SOL    HW115594   7.423   3.076   1.404  2.2457  0.8439  0.8231
 4927SOL    HW215595   7.528   2.968   1.403  1.7380  0.3530 -0.6855
 4928SOL     OW15596   4.793   4.921   4.589  0.0353 -0.0523  0.1718
 4928SOL    HW115597   4.722   4.939   4.650 -0.3786  1.9270 -0.8578
 4928SOL    HW215598   4.869   4.963   4.628 -0.2608  1.3354 -0.7444
 4929SOL     OW15599   4.721   2.576   0.036 -0.4003 -0.2642 -0.8189
 4929SOL    HW115600   4.769   2.493   0.028  1.0836  0.4757  0.1539
 4929SOL    HW215601   4.645   2.556   0.090  0.2711 -0.8680 -0.0934
 4930SOL     OW15602   2.935   3.896   3.767  0.0245  0.4126  0.6166
 4930SOL    HW115603   2.885   3.972   3.796  0.1564  0.6314  0.2809
 4930SOL    HW215604   2.921   3.830   3.835 -1.9417 -0.0537 -0.2082
 4931SOL     OW15605   3.266   7.561   2.248 -0.6664  0.1238  0.3318
 4931SOL    HW115606   3.267   7.529   2.339  1.4487  0.3196  0.3890
 4931SOL    HW215607   3.309   7.646   2.252  1.4770 -0.8433 -1.1947
 4932SOL     OW15608   6.125   4.346   6.494  0.0367  0.5099  0.0550
 4932SOL    HW115609   6.088   4.385   6.573  0.4283  1.5591 -0.2689
 4932SOL    HW215610   6.103   4.408   6.424  2.9920  1.5784 -0.0316
 4933SOL     OW15611   7.708   2.268   5.616 -0.7127 -1.0891 -0.0538
 4933SOL    HW115612   7.696   2.303   5.704  0.1661  0.6248 -0.5980
 4933SOL    HW215613   7.620   2.240   5.590 -1.4063  0.5501  0.4811
 4934SOL     OW15614   1.587   1.606   6.682  0.0109  0.4205 -0.0551
 4934SOL    HW115615   1.643   1.593   6.605  1.2749 -1.6282  1.1841
 4934SOL    HW215616   1.504   1.565   6.657  0.7052 -1.0446 -0.0098
 4935SOL     OW15617   2.583   4.559   6.316 -0.0593  0.6626 -0.1376
 4935SOL    HW115618   2.561   4.651   6.331  0.3747  1.5968 -4.5416
 4935SOL    HW215619   2.517   4.528   6.254  0.2321 -1.7978  0.7362
 4936SOL     OW15620   2.953   6.249   6.652 -0.6180 -0.5498 -0.3472
 4936SOL    HW115621   3.034   6.291   6.682 -0.6278  0.5403 -1.8224
 4936SOL    HW215622   2.950   6.166   6.700 -0.3457  0.8780  2.2649
 4937SOL     OW15623   0.998   3.890   2.691  0.6288 -0.4199  0.4596
 4937SOL    HW115624   0.939   3.815   2.698 -1.6285  1.3139  0.8908
 4937SOL    HW215625   1.026   3.890   2.600 -0.0595 -1.2977  0.2390
 4938SOL     OW15626   1.562   2.581   7.449  0.4453  0.4150 -0.3496
 4938SOL    HW115627   1.581   2.493   7.415 -0.9493  0.3146 -0.9064
 4938SOL    HW215628   1.643   2.630   7.433  1.0545 -0.6134 -0.5276
 4939SOL     OW15629   3.775   4.439   1.244  0.8006 -0.1978 -0.2511
 4939SOL    HW115630   3.786   4.380   1.318  1.0243 -0.9107 -0.8440
 4939SOL    HW215631   3.771   4.526   1.283 -1.1808 -0.7209  0.7581
 4940SOL     OW15632   0.885   0.541   5.175 -0.2326  0.4192 -0.1915
 4940SOL    HW115633   0.887   0.485   5.098 -0.7876  0.4912 -0.2629
 4940SOL    HW215634   0.827   0.495   5.236 -0.1958  0.6091 -0.0130
 4941SOL     OW15635   4.975   4.967   0.438  0.2691 -0.6225  0.4954
 4941SOL    HW115636   5.049   4.993   0.382  0.0920 -0.9711  0.0920
 4941SOL    HW215637   5.012   4.904   0.499  0.1761 -1.2944 -0.1266
 4942SOL     OW15638   1.034   0.216   3.357 -0.5777 -0.0892  0.3892
 4942SOL    HW115639   1.021   0.245   3.266  0.7200 -1.2950 -0.1855
 4942SOL    HW215640   1.128   0.220   3.370 -0.8533  1.2522  2.1003
 4943SOL     OW15641   6.205   4.250   4.929  0.5360 -0.4612 -0.2164
 4943SOL    HW115642   6.136   4.221   4.988  0.7405 -1.7033 -0.5675
 4943SOL    HW215643   6.200   4.189   4.854  2.8200 -1.3831  0.3316
 4944SOL     OW15644   1.257   2.960   3.808  0.0329 -0.2652  0.2108
 4944SOL    HW115645   1.209   2.920   3.736  1.6141  2.0544 -2.2035
 4944SOL    HW215646   1.240   3.054   3.800 -1.0698 -0.0384  3.8662
 4945SOL     OW15647   0.939   2.833   2.478  0.2993 -0.2400  0.1918
 4945SOL    HW115648   0.872   2.789   2.426  0.5005 -1.1429  0.6908
 4945SOL    HW215649   1.022   2.812   2.435  0.3954 -0.3331  0.4192
 4946SOL     OW15650   3.845   6.392   4.435  0.3613  0.6033 -0.1767
 4946SOL    HW115651   3.882   6.311   4.470  0.1274  0.5213 -0.1228
 4946SOL    HW215652   3.778   6.417   4.498 -0.2368  0.3198 -0.7048
 4947SOL     OW15653   2.824   2.453   2.377 -0.5085 -0.9276  0.2825
 4947SOL    HW115654   2.748   2.464   2.320 -0.7013 -2.6151  0.1901
 4947SOL    HW215655   2.787   2.450   2.465 -0.2793  0.9504  0.4561
 4948SOL     OW15656   2.446   2.175   3.325 -0.2807  0.2781  0.0166
 4948SOL    HW115657   2.466   2.104   3.264 -1.8526 -0.6942  0.6025
 4948SOL    HW215658   2.386   2.136   3.388 -1.9378  2.3779 -0.2024
 4949SOL     OW15659   7.750   5.437   5.323 -0.0185 -0.2233  0.3818
 4949SOL    HW115660   7.656   5.416   5.320 -0.1490  0.5910 -2.2139
 4949SOL    HW215661   7.776   5.414   5.412 -2.2025 -2.5004  0.5041
 4950SOL     OW15662   7.587   1.410   3.508 -0.3292 -0.3413  0.1230
 4950SOL    HW115663   7.626   1.476   3.565 -2.8027 -0.8293  2.5405
 4950SOL    HW215664   7.647   1.336   3.512 -0.1503 -0.1272  1.6467
 4951SOL     OW15665   3.308   2.883   5.557 -0.0658  0.0077  0.2291
 4951SOL    HW115666   3.346   2.967   5.583 -1.5241  0.8415 -0.2861
 4951SOL    HW215667   3.300   2.835   5.640  1.2774  0.1471  0.4586
 4952SOL     OW15668   4.806   4.699   4.771  0.2558 -0.2420 -0.2459
 4952SOL    HW115669   4.713   4.719   4.782  0.6413  1.5264 -0.1233
 4952SOL    HW215670   4.819   4.697   4.677  0.1724 -0.0772 -0.2616
 4953SOL     OW15671   6.521   5.350   3.492  0.0897 -0.4448 -0.3992
 4953SOL    HW115672   6.527   5.389   3.405 -0.8337  1.7927  0.4917
 4953SOL    HW215673   6.427   5.352   3.513  0.4816  0.8244  1.3847
 4954SOL     OW15674   6.179   0.401   1.583 -0.0939  0.3444 -0.1179
 4954SOL    HW115675   6.258   0.366   1.543  0.4500 -0.7520  1.8331
 4954SOL    HW215676   6.129   0.324   1.609 -1.7207  1.0271 -1.1165
 4955SOL     OW15677   3.246   7.492   1.847  0.2222  0.1510 -0.2616
 4955SOL    HW115678   3.227   7.449   1.930  0.5691 -2.0365 -1.2788
 4955SOL    HW215679   3.165   7.483   1.796  0.5405  0.0638 -0.7551
 4956SOL     OW15680   5.156   5.951   6.713 -0.3936 -0.3668 -0.0567
 4956SOL    HW115681   5.107   5.912   6.641  1.1881 -0.7973 -0.9385
 4956SOL    HW215682   5.218   5.883   6.740  0.7998  0.6847 -0.0454
 4957SOL     OW15683   4.780   3.561   1.859  0.9748  0.3377  0.2457
 4957SOL    HW115684   4.715   3.555   1.789 -0.4444  1.0955  1.4755
 4957SOL    HW215685   4.826   3.644   1.844  0.8745  0.3574  0.0517
 4958SOL     OW15686   5.070   4.768   2.364 -0.4029 -0.5388 -0.1364
 4958SOL    HW115687   5.084   4.676   2.341  0.7516 -0.6594  1.0093
 4958SOL    HW215688   5.158   4.802   2.379 -0.9439  0.3150  1.1042
 4959SOL     OW15689   0.247   2.012   7.696 -0.6591 -0.1383  0.1303
 4959SOL    HW115690   0.334   1.980   7.720 -1.0143  0.2436  1.9427
 4959SOL    HW215691   0.221   2.068   7.769 -1.6599  1.2361 -1.2573
 4960SOL     OW15692   0.826   4.519   6.800  0.3336 -0.2982 -0.5114
 4960SOL    HW115693   0.767   4.510   6.875  0.7339  1.7894  0.0841
 4960SOL    HW215694   0.767   4.535   6.726  0.0241 -0.7120 -0.3583
 4961SOL     OW15695   4.687   4.396   0.458  0.1876 -0.1663 -0.4911
 4961SOL    HW115696   4.709   4.479   0.414 -0.3375  0.5170  0.5099
 4961SOL    HW215697   4.764   4.341   0.444  1.1077  0.9653 -0.0339
 4962SOL     OW15698   2.760   3.340   1.451  0.3880 -0.0023 -0.3179
 4962SOL    HW115699   2.672   3.374   1.437  0.0477 -0.9192 -0.4261
 4962SOL    HW215700   2.785   3.303   1.366  1.2315  1.0566 -0.5369
 4963SOL     OW15701   1.815   0.199   2.008  0.8301  0.1080 -0.0099
 4963SOL    HW115702   1.789   0.243   2.089 -0.8808 -0.6037 -0.1520
 4963SOL    HW215703   1.828   0.108   2.034  2.2388  0.2581 -0.1490
 4964SOL     OW15704   7.540   7.523   4.783 -0.1789 -0.4749 -0.6061
 4964SOL    HW115705   7.464   7.470   4.803  0.1293 -0.8894 -0.5331
 4964SOL    HW215706   7.573   7.551   4.868 -0.1508 -0.4360 -0.6301
 4965SOL     OW15707   2.982   7.554   2.823  0.2503  0.8292  0.6180
 4965SOL    HW115708   2.920   7.529   2.892 -1.4008 -0.7983 -1.3931
 4965SOL    HW215709   3.059   7.499   2.839  0.7557  1.9998  2.4122
 4966SOL     OW15710   4.746   3.692   6.218  0.8143 -0.4072 -0.0173
 4966SOL    HW115711   4.819   3.658   6.166 -0.4503  0.9311 -2.7774
 4966SOL    HW215712   4.670   3.645   6.185  0.0269  0.2798  0.8226
 4967SOL     OW15713   7.491   7.165   0.491 -0.2254  0.5066  0.1679
 4967SOL    HW115714   7.488   7.200   0.580 -0.0166  3.8939 -1.0937
 4967SOL    HW215715   7.570   7.204   0.452 -0.7659 -0.2608 -1.7527
 4968SOL     OW15716   0.317   5.611   1.151  0.1447  0.2489  0.2316
 4968SOL    HW115717   0.307   5.599   1.056 -0.5225  1.1073  0.1805
 4968SOL    HW215718   0.228   5.601   1.185  0.3343  0.2832  0.7311
 4969SOL     OW15719   7.126   2.507   6.457 -0.3490 -0.2045 -0.3169
 4969SOL    HW115720   7.098   2.429   6.409  0.3916 -1.0866  0.6265
 4969SOL    HW215721   7.215   2.486   6.486 -0.3163  0.8039  0.3426
 4970SOL     OW15722   7.541   4.035   7.927  0.0644 -0.2811 -0.0389
 4970SOL    HW115723   7.500   3.957   7.891 -1.6382  0.9215 -0.7840
 4970SOL    HW215724   7.588   4.004   8.004 -0.4535 -2.0684 -0.4220
 4971SOL     OW15725   4.250   7.383   0.155  0.3640 -0.0570 -0.6206
 4971SOL    HW115726   4.272   7.472   0.185  0.4571  0.1247 -1.2112
 4971SOL    HW215727   4.171   7.360   0.203 -0.1895  0.7182 -1.1528
 4972SOL     OW15728   7.754   5.717   5.123  0.2331 -0.5117 -0.4206
 4972SOL    HW115729   7.702   5.703   5.202 -0.9944  0.2728 -1.0575
 4972SOL    HW215730   7.692   5.702   5.051  1.2378 -0.8711 -1.2326
 4973SOL     OW15731   7.436   1.692   7.744  0.5109 -0.3804 -0.7996
 4973SOL    HW115732   7.444   1.603   7.708  0.4313 -1.2068  1.1513
 4973SOL    HW215733   7.362   1.687   7.805  1.8965  0.4002  1.0160
 4974SOL     OW15734   3.891   2.060   2.950  1.0140  0.4544  0.0559
 4974SOL    HW115735   3.928   2.143   2.918  0.5963  1.2279  1.5482
 4974SOL    HW215736   3.911   1.997   2.881  1.4534  1.7716 -1.0459
 4975SOL     OW15737   6.073   3.823   4.684  0.1603 -0.1089  0.0848
 4975SOL    HW115738   6.088   3.731   4.663 -0.1426 -0.2713  0.5668
 4975SOL    HW215739   6.155   3.851   4.726 -0.2502 -0.5356  1.1837
 4976SOL     OW15740   7.366   7.872   2.849 -0.0835 -0.3128 -0.1745
 4976SOL    HW115741   7.272   7.868   2.830  0.3214 -0.4083 -2.2278
 4976SOL    HW215742   7.386   7.787   2.888 -0.6453 -0.7309 -0.7853
 4977SOL     OW15743   1.014   6.600   5.157  0.6203 -0.6143 -0.0484
 4977SOL    HW115744   0.980   6.664   5.093  0.4896 -1.1196 -0.4917
 4977SOL    HW215745   0.992   6.637   5.242 -2.1076 -1.4725 -0.3220
 4978SOL     OW15746   4.126   5.622   2.751 -0.3205  0.7251  0.7386
 4978SOL    HW115747   4.103   5.541   2.796 -0.4767  0.7517  0.7083
 4978SOL    HW215748   4.058   5.684   2.779 -1.7431  0.1410 -1.2752
 4979SOL     OW15749   6.182   3.888   1.927 -0.6267  0.4391 -0.1884
 4979SOL    HW115750   6.226   3.831   1.864 -0.3774  0.6115 -0.1723
 4979SOL    HW215751   6.193   3.976   1.892  0.7124  0.6815  0.7847
 4980SOL     OW15752   6.392   1.393   6.317  0.3047  0.0175  0.4357
 4980SOL    HW115753   6.378   1.472   6.368 -1.3193  0.8749 -1.2553
 4980SOL    HW215754   6.343   1.408   6.236  0.5176 -2.4410 -0.1990
 4981SOL     OW15755   4.564   4.591   2.084 -0.0604  0.1079  0.2283
 4981SOL    HW115756   4.544   4.672   2.131 -1.0951  0.4068 -0.7018
 4981SOL    HW215757   4.621   4.618   2.012 -1.0448  0.1668 -0.5587
 4982SOL     OW15758   4.505   7.090   1.130  0.1713  0.1825  0.2636
 4982SOL    HW115759   4.583   7.034   1.131 -0.5322 -0.8071  0.6153
 4982SOL    HW215760   4.438   7.037   1.085 -0.2481  1.0999 -0.2095
 4983SOL     OW15761   1.471   0.647   3.680  0.1291 -0.8822 -0.2925
 4983SOL    HW115762   1.544   0.648   3.742  0.7385  1.0087 -0.9875
 4983SOL    HW215763   1.512   0.631   3.595 -0.2112  0.4969 -0.7278
 4984SOL     OW15764   2.450   6.395   4.494  0.4370  0.0367  0.1524
 4984SOL    HW115765   2.383   6.355   4.550  0.7295 -0.2582  0.2954
 4984SOL    HW215766   2.438   6.489   4.507 -1.3400  0.0462 -1.4807
 4985SOL     OW15767   1.016   4.795   5.559 -0.4963 -0.2806  0.2145
 4985SOL    HW115768   1.013   4.717   5.616 -0.4874 -0.9270 -0.6634
 4985SOL    HW215769   0.960   4.773   5.485 -0.9728  0.7908  0.2475
 4986SOL     OW15770   7.133   2.580   7.001  0.0529 -0.0294 -0.7468
 4986SOL    HW115771   7.193   2.515   6.965  0.2387  0.5334 -1.4721
 4986SOL    HW215772   7.046   2.539   6.997  0.2048 -0.3248 -0.9609
 4987SOL     OW15773   2.913   0.835   4.625 -0.0284  0.5097 -0.0169
 4987SOL    HW115774   2.977   0.792   4.568 -1.7828  0.2663 -1.8719
 4987SOL    HW215775   2.838   0.853   4.568 -1.1616  1.8372  1.8262
 4988SOL     OW15776   4.432   1.686   5.741  0.3883  0.4194  0.2600
 4988SOL    HW115777   4.527   1.696   5.736  0.3005  2.2912  1.6116
 4988SOL    HW215778   4.417   1.592   5.736  2.2416  0.1554 -0.8649
 4989SOL     OW15779   5.599   5.265   7.835  0.3617  0.3275 -0.5821
 4989SOL    HW115780   5.688   5.281   7.867  0.1245  0.7798 -0.1492
 4989SOL    HW215781   5.551   5.232   7.911 -0.7002  3.1893  0.0528
 4990SOL     OW15782   5.443   2.154   3.726 -0.7934  0.3432  0.3950
 4990SOL    HW115783   5.364   2.172   3.776 -0.3189  0.3902  1.1380
 4990SOL    HW215784   5.495   2.097   3.783 -1.0065 -1.0339 -0.7507
 4991SOL     OW15785   0.085   7.158   6.702  0.1372 -0.2981 -0.1586
 4991SOL    HW115786   0.094   7.216   6.777 -0.2288 -1.1031  0.5170
 4991SOL    HW215787   0.096   7.070   6.738  0.5382 -0.6646 -1.1429
 4992SOL     OW15788   5.687   2.055   3.592  0.1496 -0.3108  0.2765
 4992SOL    HW115789   5.601   2.096   3.597 -0.0537 -0.7601  0.5059
 4992SOL    HW215790   5.739   2.099   3.659 -0.0333 -0.3476  0.4428
 4993SOL     OW15791   2.229   2.882   6.876  0.0732 -0.2092  0.1462
 4993SOL    HW115792   2.209   2.975   6.878  1.7860  0.2352 -1.6264
 4993SOL    HW215793   2.210   2.851   6.964 -0.3278  1.8586  0.8040
 4994SOL     OW15794   5.271   4.201   1.964 -0.0524 -0.2385 -0.1246
 4994SOL    HW115795   5.212   4.147   1.910  0.9908 -0.6570 -0.8575
 4994SOL    HW215796   5.262   4.289   1.928 -1.8609  0.1484  1.1591
 4995SOL     OW15797   6.251   2.864   4.800  0.1966 -0.4165 -0.5694
 4995SOL    HW115798   6.316   2.864   4.870 -0.7598  0.6560  0.3200
 4995SOL    HW215799   6.221   2.954   4.794 -0.5161 -0.7104 -1.6380
 4996SOL     OW15800   3.433   1.979   2.065 -0.1193 -0.3794  0.1407
 4996SOL    HW115801   3.502   1.973   1.999 -0.3836 -0.6313 -0.1155
 4996SOL    HW215802   3.447   1.903   2.121 -0.2102 -0.4554  0.0626
 4997SOL     OW15803   4.120   5.543   4.981  0.4814  0.3031 -0.1391
 4997SOL    HW115804   4.143   5.452   5.003  1.5123  0.7460  0.6999
 4997SOL    HW215805   4.192   5.572   4.926  1.3334  1.3148  1.4655
 4998SOL     OW15806   1.881   1.644   2.552 -0.2139 -0.6086  0.2014
 4998SOL    HW115807   1.835   1.727   2.540 -1.5838 -1.2351  0.9371
 4998SOL    HW215808   1.973   1.668   2.559 -0.6565  0.9185  1.0226
 4999SOL     OW15809   7.253   1.056   2.742  0.3871  0.7132 -0.0825
 4999SOL    HW115810   7.201   1.136   2.743  1.7417  1.5916  2.3849
 4999SOL    HW215811   7.342   1.085   2.721  0.7520 -0.2336  0.1155
 5000SOL     OW15812   7.980   3.145   1.899 -0.3959 -0.8674 -0.0330
 5000SOL    HW115813   8.062   3.147   1.850  0.0927 -0.4001  0.8101
 5000SOL    HW215814   7.990   3.211   1.967 -1.1026 -1.4708  0.6671
 5001SOL     OW15815   2.699   7.403   7.482 -0.0342 -0.1421  0.3009
 5001SOL    HW115816   2.656   7.363   7.406 -0.3258 -0.0777  0.4312
 5001SOL    HW215817   2.662   7.357   7.557  0.5252 -0.4544  0.3833
 5002SOL     OW15818   6.383   4.759   0.412 -0.3956  0.0975  0.3813
 5002SOL    HW115819   6.388   4.852   0.392 -1.2034 -0.0679 -0.6067
 5002SOL    HW215820   6.340   4.755   0.497 -1.6425  0.5700 -0.2130
 5003SOL     OW15821   2.442   7.929   0.491 -0.2725  0.0397  0.5053
 5003SOL    HW115822   2.465   7.890   0.407 -0.1192  0.4472  0.3573
 5003SOL    HW215823   2.381   8.000   0.469  0.2111  0.5169  0.6812
 5004SOL     OW15824   3.384   7.075   3.530  0.2732 -1.1067  0.2419
 5004SOL    HW115825   3.448   7.137   3.567 -2.3015  1.6634  0.2240
 5004SOL    HW215826   3.335   7.043   3.606  0.0287 -1.2964  0.0038
 5005SOL     OW15827   4.052   2.417   6.611  0.2522  0.4905 -0.0786
 5005SOL    HW115828   3.987   2.395   6.543  1.5892  0.6990 -1.4391
 5005SOL    HW215829   4.103   2.488   6.573 -0.3915  2.1300  2.0487
 5006SOL     OW15830   2.997   0.308   5.074 -0.2796 -0.1325 -0.1964
 5006SOL    HW115831   2.949   0.390   5.061 -2.5695 -0.9031  2.7658
 5006SOL    HW215832   3.089   0.334   5.072 -0.8434  1.9769 -2.3905
 5007SOL     OW15833   0.785   4.720   7.686 -0.3544  0.3523 -0.1159
 5007SOL    HW115834   0.723   4.652   7.714  0.0833  0.6514  1.6135
 5007SOL    HW215835   0.871   4.682   7.704 -0.1092  1.3630  0.8778
 5008SOL     OW15836   3.507   0.069   2.015  0.0874 -0.0789 -0.0711
 5008SOL    HW115837   3.413   0.087   2.022  0.1556  0.1034  0.3555
 5008SOL    HW215838   3.531   0.030   2.099  0.1661 -1.1484 -0.5840
 5009SOL     OW15839   6.245   5.449   4.045 -0.2376 -0.3182 -0.0123
 5009SOL    HW115840   6.245   5.542   4.068  1.1927  0.2453 -2.1740
 5009SOL    HW215841   6.335   5.421   4.062 -0.8831 -1.5421  1.4593
 5010SOL     OW15842   7.604   4.062   3.899  0.0480 -0.0830 -0.2877
 5010SOL    HW115843   7.572   4.038   3.812  0.2523 -2.4107  0.2591
 5010SOL    HW215844   7.654   3.986   3.929  0.0085  0.6950  1.8644
 5011SOL     OW15845   5.340   6.490   3.275 -0.0209 -0.1739  0.1746
 5011SOL    HW115846   5.316   6.428   3.206 -1.0355 -0.7729  1.0398
 5011SOL    HW215847   5.429   6.516   3.254 -0.6320  0.3394 -1.8553
 5012SOL     OW15848   2.883   5.019   2.344  0.2083 -0.2139 -0.1748
 5012SOL    HW115849   2.909   5.110   2.357  0.4863 -0.3674  0.3327
 5012SOL    HW215850   2.922   4.995   2.260 -0.3679  0.3198 -0.6030
 5013SOL     OW15851   7.877   1.712   5.200  0.1489  0.5155 -0.4812
 5013SOL    HW115852   7.883   1.617   5.186 -2.3199  0.3676 -0.9117
 5013SOL    HW215853   7.928   1.750   5.128  2.1212 -0.4921  0.3699
 5014SOL     OW15854   4.104   1.893   2.815 -0.1867  0.4511 -0.3030
 5014SOL    HW115855   4.165   1.961   2.784  0.3768  0.3252  0.5083
 5014SOL    HW215856   4.096   1.833   2.741  1.6716 -0.2093 -0.0122
 5015SOL     OW15857   0.423   7.154   3.147  0.0185  0.0466  0.5245
 5015SOL    HW115858   0.461   7.067   3.144  1.9379  0.8733  0.3729
 5015SOL    HW215859   0.408   7.170   3.241  0.9669  0.0909  0.6761
 5016SOL     OW15860   7.863   3.665   6.241 -0.8565  0.4071 -1.3820
 5016SOL    HW115861   7.774   3.635   6.263 -0.8239  1.5251  0.3756
 5016SOL    HW215862   7.849   3.745   6.190 -0.8511  1.6091  0.4756
 5017SOL     OW15863   3.140   7.903   2.181 -0.5816 -0.4456 -0.3170
 5017SOL    HW115864   3.232   7.904   2.210 -0.7088 -0.7824  0.0962
 5017SOL    HW215865   3.111   7.813   2.198 -1.4952  0.1204  1.1368
 5018SOL     OW15866   0.832   6.207   2.711 -0.6615 -0.3774 -0.3373
 5018SOL    HW115867   0.809   6.181   2.800  1.6038  0.7804  0.6083
 5018SOL    HW215868   0.831   6.124   2.662 -0.6251 -1.2169  1.0441
 5019SOL     OW15869   4.253   3.413   0.960  0.0973  0.3109  0.3257
 5019SOL    HW115870   4.286   3.457   1.038  1.7926 -2.0353  0.9762
 5019SOL    HW215871   4.271   3.320   0.975 -1.0178 -0.3486 -2.1518
 5020SOL     OW15872   7.298   7.058   6.114 -0.2531  0.1725 -0.6751
 5020SOL    HW115873   7.343   6.990   6.165 -1.2029 -0.6410 -0.9057
 5020SOL    HW215874   7.366   7.095   6.058  0.9171  1.4086  1.5217
 5021SOL     OW15875   5.748   3.939   1.100 -0.1241  0.4814  0.1658
 5021SOL    HW115876   5.743   3.856   1.052 -0.4014  0.9270 -0.5813
 5021SOL    HW215877   5.741   3.913   1.192  0.1434 -0.3570 -0.0369
 5022SOL     OW15878   4.688   2.862   5.506 -0.0235 -0.4528  0.3252
 5022SOL    HW115879   4.602   2.895   5.532 -0.2669 -1.9512  1.5491
 5022SOL    HW215880   4.699   2.782   5.557  2.0513 -0.3545  0.0918
 5023SOL     OW15881   7.051   7.760   7.429  0.9437  0.6457  0.2483
 5023SOL    HW115882   7.066   7.854   7.436 -0.3156  0.9078 -0.5679
 5023SOL    HW215883   7.119   7.721   7.485 -0.1559  2.1386  2.6905
 5024SOL     OW15884   4.761   1.351   0.910  0.1581 -0.2703 -0.3467
 5024SOL    HW115885   4.715   1.359   0.826 -2.3185 -2.0845  0.7599
 5024SOL    HW215886   4.839   1.300   0.890 -1.5247 -2.6038 -1.2110
 5025SOL     OW15887   4.474   2.677   3.869 -0.3734  0.0254 -0.5005
 5025SOL    HW115888   4.538   2.748   3.863 -0.9243  0.4584 -1.3719
 5025SOL    HW215889   4.466   2.644   3.780 -1.4561  0.0668 -0.4279
 5026SOL     OW15890   2.446   1.453   3.989 -0.0932 -0.5727  0.4053
 5026SOL    HW115891   2.445   1.548   3.984  0.3121 -0.5872  0.0378
 5026SOL    HW215892   2.357   1.427   3.965 -0.4364 -0.2527  1.3177
 5027SOL     OW15893   0.517   7.595   3.923 -0.0493  0.2604  0.2067
 5027SOL    HW115894   0.562   7.675   3.949 -0.3877  0.9451 -1.3047
 5027SOL    HW215895   0.571   7.525   3.960  0.0575  1.1609  1.8481
 5028SOL     OW15896   7.612   3.269   2.162  0.2292  0.4120  0.8009
 5028SOL    HW115897   7.575   3.182   2.179 -0.9383  1.0202  1.3717
 5028SOL    HW215898   7.658   3.291   2.243 -1.6587  1.4265  1.6306
 5029SOL     OW15899   7.063   3.543   5.549  0.1900 -0.1469  0.0337
 5029SOL    HW115900   6.982   3.578   5.587 -0.0950 -0.3147 -0.4245
 5029SOL    HW215901   7.062   3.573   5.458  0.9019  0.2936  0.1654
 5030SOL     OW15902   7.786   5.895   0.333  0.4791 -0.0705  0.2217
 5030SOL    HW115903   7.691   5.899   0.334  0.3911 -1.7529 -0.1203
 5030SOL    HW215904   7.812   5.947   0.257 -0.1938 -0.2563 -0.1362
 5031SOL     OW15905   5.737   1.698   3.046  0.0984  0.5605 -0.1406
 5031SOL    HW115906   5.674   1.763   3.075  0.3111  0.9691 -0.5741
 5031SOL    HW215907   5.706   1.671   2.960 -1.8602 -2.4066  1.4075
 5032SOL     OW15908   6.788   5.585   2.294  0.0921 -0.5203 -0.0603
 5032SOL    HW115909   6.803   5.674   2.327  1.2057 -1.4714  2.1383
 5032SOL    HW215910   6.698   5.586   2.264 -0.2666  1.0664  0.9735
 5033SOL     OW15911   0.730   7.677   0.316 -0.0393 -0.3816  0.4772
 5033SOL    HW115912   0.778   7.730   0.379  2.3313  0.5259 -1.9776
 5033SOL    HW215913   0.718   7.735   0.241 -2.1485 -1.6584 -0.2025
 5034SOL     OW15914   7.782   0.762   7.370  0.4426 -0.3546 -0.3776
 5034SOL    HW115915   7.822   0.682   7.336  0.9090 -0.9581  1.5004
 5034SOL    HW215916   7.691   0.738   7.387  0.1369  0.0281 -1.4408
 5035SOL     OW15917   5.141   7.358   3.431 -0.2613 -0.1012 -0.0457
 5035SOL    HW115918   5.185   7.274   3.418  0.0813  0.0008  0.4454
 5035SOL    HW215919   5.059   7.335   3.476 -1.0555 -0.3636 -1.5989
 5036SOL     OW15920   6.498   0.793   0.431 -0.2532 -0.1956 -0.0590
 5036SOL    HW115921   6.555   0.779   0.356  0.0676  1.7238 -0.2037
 5036SOL    HW215922   6.541   0.747   0.503 -0.1575 -1.3807 -0.8522
 5037SOL     OW15923   2.433   2.448   5.587  0.4509  0.5381  0.5590
 5037SOL    HW115924   2.398   2.363   5.559  1.6059 -0.0574  0.8742
 5037SOL    HW215925   2.365   2.511   5.564 -0.3564 -0.4575  0.1789
 5038SOL     OW15926   6.251   2.250   4.780 -0.1660  0.0317  0.4185
 5038SOL    HW115927   6.253   2.165   4.824  0.6502  0.4079  1.1297
 5038SOL    HW215928   6.337   2.289   4.799  0.4183 -0.0170 -1.9648
 5039SOL     OW15929   1.519   1.473   5.346  0.2085  0.0739 -0.0878
 5039SOL    HW115930   1.511   1.413   5.272 -0.3861 -0.1785  0.1774
 5039SOL    HW215931   1.595   1.528   5.325  1.4579 -1.5055  0.1810
 5040SOL     OW15932   5.366   6.499   7.649  0.1077 -0.0398 -0.0976
 5040SOL    HW115933   5.459   6.477   7.644  0.5647  1.7680  0.0842
 5040SOL    HW215934   5.344   6.493   7.742  0.3785  0.8086  0.0265
 5041SOL     OW15935   7.515   4.522   3.556 -0.2866 -0.2126 -0.2878
 5041SOL    HW115936   7.495   4.457   3.624 -1.7614  0.9897  0.4368
 5041SOL    HW215937   7.543   4.599   3.604  1.1583 -0.1850 -1.1456
 5042SOL     OW15938   2.117   4.583   0.282 -0.2033  0.2483  0.0877
 5042SOL    HW115939   2.067   4.640   0.340 -0.7535 -0.8705  0.7242
 5042SOL    HW215940   2.086   4.494   0.301  1.6759 -0.4302  0.1556
 5043SOL     OW15941   6.835   4.604   0.720  0.5636  0.0495  0.0990
 5043SOL    HW115942   6.918   4.637   0.684  1.0461 -1.7360 -0.4639
 5043SOL    HW215943   6.769   4.634   0.657  1.1560 -1.1589 -1.1492
 5044SOL     OW15944   7.909   6.980   5.094 -0.0963  0.1082  0.2825
 5044SOL    HW115945   7.832   7.003   5.147 -1.5726 -0.3991 -1.5829
 5044SOL    HW215946   7.952   7.063   5.077 -2.2786  0.9057 -1.6959
 5045SOL     OW15947   6.163   7.610   7.664  0.3651 -0.1822  0.0724
 5045SOL    HW115948   6.089   7.631   7.720 -1.0605  0.1007 -1.8775
 5045SOL    HW215949   6.133   7.631   7.575  2.2621 -1.4348 -0.8961
 5046SOL     OW15950   1.999   6.617   0.308 -0.8726 -0.1101  0.0816
 5046SOL    HW115951   1.947   6.541   0.334  0.6605 -0.6507  1.6679
 5046SOL    HW215952   2.005   6.669   0.388  1.6516 -0.4368  0.1350
 5047SOL     OW15953   6.000   6.504   2.577 -0.1596 -0.0107  0.3727
 5047SOL    HW115954   6.026   6.448   2.503 -0.0730 -1.4258  1.4377
 5047SOL    HW215955   5.995   6.443   2.651 -0.0278  1.4317  1.5716
 5048SOL     OW15956   3.079   3.063   4.749  0.5232  0.1248 -0.1692
 5048SOL    HW115957   3.099   3.153   4.726 -1.8817  0.4220 -1.2583
 5048SOL    HW215958   3.067   3.018   4.665  0.8112 -0.9954  0.3729
 5049SOL     OW15959   7.150   4.108   5.945 -0.4917 -0.3043 -0.3410
 5049SOL    HW115960   7.226   4.067   5.987  0.7265  0.1621 -2.0446
 5049SOL    HW215961   7.117   4.170   6.011  2.0360  1.1928 -0.3932
 5050SOL     OW15962   7.611   7.519   2.032 -0.1104 -0.4263  0.1226
 5050SOL    HW115963   7.640   7.562   1.952 -0.6844 -0.8795 -0.3358
 5050SOL    HW215964   7.661   7.438   2.036  0.7608  0.1359  0.8358
 5051SOL     OW15965   3.728   4.893   6.973  0.5557 -0.1831 -0.5632
 5051SOL    HW115966   3.650   4.933   6.936  0.6427 -0.1224 -0.6834
 5051SOL    HW215967   3.700   4.856   7.056  0.3517 -0.3517 -0.7089
 5052SOL     OW15968   3.891   4.088   4.890 -0.7267 -0.6774 -0.1864
 5052SOL    HW115969   3.813   4.079   4.834 -0.1985 -1.0124 -0.8716
 5052SOL    HW215970   3.912   4.181   4.886  0.9884 -1.1196 -2.8596
 5053SOL     OW15971   2.246   6.880   3.317  0.6750  0.0223  0.8327
 5053SOL    HW115972   2.236   6.946   3.385  2.6208  2.1971 -0.8935
 5053SOL    HW215973   2.339   6.884   3.293  0.0361 -0.6126 -1.9747
 5054SOL     OW15974   4.616   7.351   6.843 -0.5269 -0.6406 -0.0437
 5054SOL    HW115975   4.657   7.411   6.906 -2.2172  0.5226 -0.0393
 5054SOL    HW215976   4.685   7.287   6.824  0.8838  0.5338  0.9433
 5055SOL     OW15977   2.973   1.746   0.398 -0.3947  0.3863 -0.7796
 5055SOL    HW115978   2.999   1.657   0.424  1.2002  0.8384 -0.7832
 5055SOL    HW215979   3.037   1.770   0.331  0.9058  2.6219  1.2233
 5056SOL     OW15980   2.120   4.930   0.601 -0.0167 -0.4066 -0.4316
 5056SOL    HW115981   2.158   4.856   0.554 -0.0175 -1.9772  1.9848
 5056SOL    HW215982   2.196   4.983   0.627  0.1689 -0.9699  0.1687
 5057SOL     OW15983   0.274   7.622   6.113  0.0119  0.0205  0.5228
 5057SOL    HW115984   0.185   7.650   6.091  0.0669 -1.1004 -1.1841
 5057SOL    HW215985   0.269   7.527   6.119  1.1085 -0.0573  0.3201
 5058SOL     OW15986   1.361   5.527   0.250 -0.0747  0.1558  0.3661
 5058SOL    HW115987   1.360   5.506   0.343  0.5515  1.6768  0.7395
 5058SOL    HW215988   1.281   5.487   0.215  1.2085 -3.0203  0.9445
 5059SOL     OW15989   1.351   3.673   7.070  0.2523 -0.0993 -0.1287
 5059SOL    HW115990   1.423   3.734   7.054  0.8901 -1.2190 -1.7104
 5059SOL    HW215991   1.272   3.725   7.056  0.7909  0.0056 -3.1650
 5060SOL     OW15992   1.058   1.334   5.595  0.0718 -0.5118 -0.4223
 5060SOL    HW115993   1.096   1.270   5.655  0.4770 -0.6331 -0.8018
 5060SOL    HW215994   1.134   1.375   5.553 -0.1923  0.0466 -0.3522
 5061SOL     OW15995   5.928   4.199   7.551  0.4759 -0.0618  0.2746
 5061SOL    HW115996   5.945   4.108   7.576  1.2812 -0.3873 -1.4242
 5061SOL    HW215997   5.900   4.241   7.633 -1.4424 -2.1908  0.7525
 5062SOL     OW15998   6.838   7.603   7.406 -0.2315  0.5661 -0.0414
 5062SOL    HW115999   6.913   7.658   7.429  0.3052 -0.1126 -0.1684
 5062SOL    HW216000   6.852   7.582   7.314 -0.5666  0.4175 -0.0562
 5063SOL     OW16001   3.196   6.335   4.915 -0.2232 -0.0548 -0.6626
 5063SOL    HW116002   3.220   6.275   4.844 -1.9913 -1.7970  0.1710
 5063SOL    HW216003   3.105   6.312   4.936  0.3234  0.3393  2.2773
 5064SOL     OW16004   0.726   2.981   0.310  0.2933 -0.8117 -0.0719
 5064SOL    HW116005   0.800   3.030   0.273  2.3586 -1.1323  3.4538
 5064SOL    HW216006   0.753   2.889   0.304  0.1904 -0.9305  1.1918
 5065SOL     OW16007   3.462   7.814   0.413 -0.0991 -0.4606  0.0631
 5065SOL    HW116008   3.436   7.902   0.438  0.5895 -0.3898  0.5354
 5065SOL    HW216009   3.443   7.761   0.491  0.7194 -0.4932  0.2416
 5066SOL     OW16010   7.823   7.422   2.288 -0.4664  0.4888 -0.0667
 5066SOL    HW116011   7.806   7.516   2.301 -0.1755  0.5869 -0.3992
 5066SOL    HW216012   7.751   7.379   2.334 -1.5136  0.8947 -1.2804
 5067SOL     OW16013   4.733   2.711   1.739  0.5740 -0.1126  0.5111
 5067SOL    HW116014   4.739   2.706   1.835  0.0091 -0.8700  0.5067
 5067SOL    HW216015   4.749   2.803   1.720 -0.0013  0.1797  1.3867
 5068SOL     OW16016   3.625   1.141   7.187 -0.3685 -0.0901  0.3048
 5068SOL    HW116017   3.568   1.070   7.156  0.0550 -0.6686  0.8533
 5068SOL    HW216018   3.675   1.102   7.259 -0.3063  0.8361  0.7629
 5069SOL     OW16019   4.158   3.559   4.510 -0.3227  0.4595  0.1224
 5069SOL    HW116020   4.191   3.533   4.424 -0.2051  2.2498 -0.3819
 5069SOL    HW216021   4.112   3.481   4.542  1.1216 -0.8162 -0.7921
 5070SOL     OW16022   5.637   4.336   1.321  0.0031 -0.6545 -0.4961
 5070SOL    HW116023   5.641   4.363   1.413 -2.3005  3.0661 -1.3975
 5070SOL    HW216024   5.713   4.377   1.280  0.5627 -1.6249 -0.4517
 5071SOL     OW16025   5.115   6.028   4.798 -0.1809  0.2869  1.1936
 5071SOL    HW116026   5.182   6.093   4.778 -1.6013  1.2988 -0.4093
 5071SOL    HW216027   5.034   6.078   4.806 -1.1534 -1.1831  0.7707
 5072SOL     OW16028   3.069   6.651   2.250  0.3624  0.1890  0.1906
 5072SOL    HW116029   3.140   6.606   2.204 -0.2746  0.0284 -0.6510
 5072SOL    HW216030   3.032   6.585   2.308 -1.1517 -0.6327 -1.7033
 5073SOL     OW16031   1.059   2.897   5.324 -0.0451 -0.3532 -0.3457
 5073SOL    HW116032   1.078   2.825   5.264 -0.5241 -0.9542  0.2176
 5073SOL    HW216033   1.009   2.857   5.395  0.4027  0.3720  0.3965
 5074SOL     OW16034   2.703   0.202   2.008 -0.1039 -0.6547 -0.2669
 5074SOL    HW116035   2.674   0.293   2.001  0.5786 -0.3421  0.7776
 5074SOL    HW216036   2.648   0.165   2.077 -0.0464 -0.8973 -0.3531
 5075SOL     OW16037   1.741   7.397   7.656 -0.5612  0.1782  0.2925
 5075SOL    HW116038   1.699   7.453   7.722 -0.3530 -0.2768  0.8128
 5075SOL    HW216039   1.709   7.309   7.675  0.8841 -0.2300  0.9126
 5076SOL     OW16040   0.069   1.537   2.537  0.2413 -0.6564 -0.5478
 5076SOL    HW116041   0.092   1.628   2.551  1.6533 -0.9254 -1.1004
 5076SOL    HW216042   0.152   1.489   2.543 -0.5057 -1.9352 -0.0265
 5077SOL     OW16043   7.322   6.196   4.598  0.6148 -0.5677 -0.0239
 5077SOL    HW116044   7.258   6.249   4.646  2.0310  1.1281  0.0464
 5077SOL    HW216045   7.271   6.124   4.562 -1.2479  0.4751  0.4514
 5078SOL     OW16046   5.619   4.768   0.245  0.0303  0.0601  0.2867
 5078SOL    HW116047   5.532   4.783   0.281 -0.1280  1.0294 -0.4896
 5078SOL    HW216048   5.623   4.822   0.166  0.8395 -1.0316 -0.4406
 5079SOL     OW16049   1.225   7.914   4.331  0.6625 -0.1992  0.2039
 5079SOL    HW116050   1.216   7.888   4.239  1.1620  0.8807 -0.1494
 5079SOL    HW216051   1.319   7.908   4.348  0.6626  0.3800  0.4096
 5080SOL     OW16052   0.738   5.780   4.673  0.2357  0.2033 -0.3516
 5080SOL    HW116053   0.804   5.823   4.619  0.0184  2.4366  1.0882
 5080SOL    HW216054   0.787   5.720   4.730  0.5510 -1.4463 -2.3159
 5081SOL     OW16055   0.493   1.013   1.750  0.1029 -0.0197 -0.0605
 5081SOL    HW116056   0.447   1.097   1.754  2.4581  1.5662 -3.6613
 5081SOL    HW216057   0.563   1.027   1.687  2.0156 -4.0533  1.0057
 5082SOL     OW16058   1.846   0.156   3.262  0.4981  0.1209  0.0936
 5082SOL    HW116059   1.892   0.143   3.344  0.4755  0.0377  0.0932
 5082SOL    HW216060   1.897   0.222   3.215  0.9560 -0.4225 -0.1704
 5083SOL     OW16061   6.907   2.887   2.326  0.1278  0.0303 -0.1473
 5083SOL    HW116062   7.002   2.887   2.312  0.1054 -0.3734 -0.3156
 5083SOL    HW216063   6.877   2.969   2.288  0.5287  0.5901  0.7334
 5084SOL     OW16064   5.209   7.672   2.645 -0.4852 -0.1671 -0.2485
 5084SOL    HW116065   5.228   7.710   2.559  0.2757  0.5958  0.2474
 5084SOL    HW216066   5.188   7.747   2.700 -1.2721 -0.6834  0.1569
 5085SOL     OW16067   7.268   2.182   7.111 -0.1869  0.1160  0.2711
 5085SOL    HW116068   7.285   2.146   7.198  1.9173  0.6672  0.1150
 5085SOL    HW216069   7.337   2.247   7.098  0.6906 -1.3121 -2.5894
 5086SOL     OW16070   0.965   6.026   0.051 -0.0718 -0.5068  0.0394
 5086SOL    HW116071   1.037   5.977   0.091 -0.1564  0.5951  1.6203
 5086SOL    HW216072   0.936   5.972  -0.022  1.2118 -1.7965  0.4624
 5087SOL     OW16073   6.165   7.815   5.158 -0.2737  0.7178 -0.1485
 5087SOL    HW116074   6.134   7.903   5.180 -2.7279 -0.0709 -0.2768
 5087SOL    HW216075   6.129   7.759   5.228  1.5093 -0.1532  0.0988
 5088SOL     OW16076   6.279   5.620   2.768 -0.1152  0.7078 -0.4617
 5088SOL    HW116077   6.365   5.650   2.738  0.4441 -1.8053 -1.5626
 5088SOL    HW216078   6.246   5.565   2.696 -1.6507 -0.1335  0.8438
 5089SOL     OW16079   0.804   3.316   6.827  0.4261  0.3897  0.4217
 5089SOL    HW116080   0.865   3.388   6.812  1.0983 -0.0771  0.9262
 5089SOL    HW216081   0.753   3.343   6.903 -2.3462  2.3318 -1.9901
 5090SOL     OW16082   1.257   7.706   6.161  0.0068 -0.0490 -0.0948
 5090SOL    HW116083   1.343   7.675   6.190 -0.1808  0.3511  0.9017
 5090SOL    HW216084   1.196   7.639   6.193  0.0531 -0.9654 -1.8469
 5091SOL     OW16085   0.897   1.948   6.691 -0.0487  0.5713 -0.2229
 5091SOL    HW116086   0.984   1.913   6.668  0.1896  1.0164 -0.0085
 5091SOL    HW216087   0.914   2.003   6.767 -0.6244  0.1533  0.2085
 5092SOL     OW16088   6.196   4.293   5.840 -0.2632 -0.1154  0.2538
 5092SOL    HW116089   6.173   4.351   5.912  2.1720  0.5728  0.5361
 5092SOL    HW216090   6.210   4.351   5.766 -0.9329 -0.6485 -0.2914
 5093SOL     OW16091   0.953   5.065   4.096 -0.8200  0.1152 -0.1893
 5093SOL    HW116092   1.027   5.023   4.141  0.9085  1.5159 -1.6449
 5093SOL    HW216093   0.941   5.147   4.142 -0.4128  0.6023 -0.9351
 5094SOL     OW16094   3.911   0.561   3.360 -0.7281  0.2917 -0.4004
 5094SOL    HW116095   3.968   0.510   3.418  0.8644  0.3322 -1.8825
 5094SOL    HW216096   3.966   0.581   3.284 -2.8545  0.0154 -2.0497
 5095SOL     OW16097   2.366   5.071   1.935 -0.3104  0.5700  0.2871
 5095SOL    HW116098   2.328   5.123   2.005 -0.0465 -0.2855  1.0758
 5095SOL    HW216099   2.291   5.031   1.892 -0.4209  0.3937  0.6420
 5096SOL     OW16100   3.925   5.475   7.467  0.4747  0.7633  0.0263
 5096SOL    HW116101   4.019   5.457   7.470  0.3820 -0.1882 -1.8944
 5096SOL    HW216102   3.886   5.393   7.437 -1.1730  0.5646  2.5974
 5097SOL     OW16103   5.072   4.263   2.198  0.4962  0.4025 -0.5637
 5097SOL    HW116104   5.162   4.271   2.168  0.4846 -1.0264 -1.0324
 5097SOL    HW216105   5.019   4.262   2.118  0.3924 -2.4357 -0.5269
 5098SOL     OW16106   4.429   1.195   7.736 -0.1499 -0.1439 -0.5197
 5098SOL    HW116107   4.431   1.157   7.648 -2.0202 -0.9429 -0.2478
 5098SOL    HW216108   4.481   1.134   7.790 -0.1504 -0.3885 -0.7947
 5099SOL     OW16109   3.865   0.957   7.131 -0.7162 -0.7713 -0.2085
 5099SOL    HW116110   3.836   1.001   7.051  0.3624  1.5752  0.6325
 5099SOL    HW216111   3.957   0.982   7.139 -0.6433 -1.5250  1.4276
 5100SOL     OW16112   7.916   0.318   7.572 -0.1726 -0.2141 -0.4874
 5100SOL    HW116113   7.935   0.391   7.513  0.1594  1.5362  1.6848
 5100SOL    HW216114   7.990   0.258   7.560  1.2215  1.3556 -0.0161
 5101SOL     OW16115   2.650   7.113   2.145  0.0650 -0.4012  0.0758
 5101SOL    HW116116   2.718   7.152   2.199  0.4947 -1.2270  0.1376
 5101SOL    HW216117   2.591   7.069   2.207 -1.4123  1.6273  0.1613
 5102SOL     OW16118   1.190   1.301   2.287 -0.3908 -0.0546 -0.1569
 5102SOL    HW116119   1.161   1.322   2.376 -0.3572 -0.7042  0.0083
 5102SOL    HW216120   1.235   1.217   2.295  1.2130  0.7534 -0.4708
 5103SOL     OW16121   7.553   1.007   3.813 -0.2220  0.6600 -0.1244
 5103SOL    HW116122   7.599   1.026   3.895  0.4624  1.4361 -0.6831
 5103SOL    HW216123   7.466   1.046   3.825  0.2762  1.8235 -0.2231
 5104SOL     OW16124   5.681   2.923   2.896  0.0862 -0.3633  0.3811
 5104SOL    HW116125   5.615   2.981   2.934  0.0567  0.6832 -1.2210
 5104SOL    HW216126   5.630   2.853   2.855  0.0042 -0.0880  0.0081
 5105SOL     OW16127   5.563   0.838   2.267  0.1549  0.3663  0.3068
 5105SOL    HW116128   5.486   0.784   2.286  0.0626  1.3004  2.8602
 5105SOL    HW216129   5.625   0.815   2.336  1.2772  1.3036 -0.3794
 5106SOL     OW16130   1.508   5.322   6.626 -0.2393  0.1494  0.4760
 5106SOL    HW116131   1.571   5.253   6.608 -1.8160 -1.1287 -0.3010
 5106SOL    HW216132   1.468   5.298   6.709 -1.8513 -0.7361 -0.5127
 5107SOL     OW16133   3.781   5.382   0.860 -0.2120  0.5703 -0.3084
 5107SOL    HW116134   3.729   5.306   0.834 -1.1283  1.0443  0.0989
 5107SOL    HW216135   3.830   5.405   0.782  0.7424 -0.9673 -0.1921
 5108SOL     OW16136   4.577   1.957   7.413  0.1325 -0.0826  0.2885
 5108SOL    HW116137   4.515   1.953   7.487 -0.9141  1.7614 -0.4414
 5108SOL    HW216138   4.521   1.963   7.336  1.2174  0.7935 -0.4467
 5109SOL     OW16139   5.127   5.494   4.364  0.2414 -0.5483  0.4383
 5109SOL    HW116140   5.059   5.432   4.336  1.0311 -1.0137 -0.4682
 5109SOL    HW216141   5.209   5.455   4.334  0.7694  0.7935  0.1281
 5110SOL     OW16142   7.192   1.682   2.672  0.3392  0.3277  0.0239
 5110SOL    HW116143   7.239   1.600   2.679  0.4029  0.4735  1.4536
 5110SOL    HW216144   7.171   1.706   2.763 -1.6337  0.7504 -0.5178
 5111SOL     OW16145   2.685   1.331   7.373  0.0326  0.7577 -0.0279
 5111SOL    HW116146   2.635   1.410   7.352  1.3495  1.3327 -1.0940
 5111SOL    HW216147   2.625   1.259   7.356 -1.5961  1.5708  2.1592
 5112SOL     OW16148   5.294   5.923   2.944 -0.4028 -0.2554 -0.1694
 5112SOL    HW116149   5.368   5.976   2.915 -0.2979  0.0198  0.6198
 5112SOL    HW216150   5.244   5.906   2.863 -0.7459  1.5151 -0.3324
 5113SOL     OW16151   1.354   5.337   1.398 -0.3850 -0.0871 -0.4403
 5113SOL    HW116152   1.436   5.309   1.356 -0.8423  0.3997 -1.6801
 5113SOL    HW216153   1.382   5.394   1.470  0.5416 -3.3251  1.8552
 5114SOL     OW16154   4.185   0.652   3.744  0.3375  0.1305  0.1595
 5114SOL    HW116155   4.252   0.618   3.803 -1.0777 -1.0692  1.1271
 5114SOL    HW216156   4.211   0.742   3.727  0.8774  0.4340  2.4597
 5115SOL     OW16157   1.147   3.216   5.474  0.2760  0.3240 -0.3207
 5115SOL    HW116158   1.063   3.169   5.478 -0.9791  2.4414 -1.0511
 5115SOL    HW216159   1.144   3.276   5.549  0.1989  1.9184 -1.5828
 5116SOL     OW16160   3.309   0.458   1.590 -0.0989 -0.2718  0.6271
 5116SOL    HW116161   3.313   0.539   1.541  0.5987 -0.4668  0.3563
 5116SOL    HW216162   3.231   0.413   1.557  1.0040 -0.9298 -1.1258
 5117SOL     OW16163   5.962   1.563   5.289 -0.4073 -0.0093  0.6924
 5117SOL    HW116164   5.999   1.633   5.236 -0.3531  0.6684  1.6158
 5117SOL    HW216165   6.037   1.508   5.313 -0.1446  0.7866  1.7046
 5118SOL     OW16166   3.415   6.141   5.050  0.0380  0.3633  0.5664
 5118SOL    HW116167   3.509   6.146   5.033 -0.2466  1.5217 -0.8170
 5118SOL    HW216168   3.383   6.079   4.985 -0.1790  0.1027  0.9219
 5119SOL     OW16169   5.887   2.857   5.804 -0.1127  0.2769  0.0539
 5119SOL    HW116170   5.815   2.847   5.742  1.3958  0.0858 -1.7181
 5119SOL    HW216171   5.962   2.883   5.749  1.3249 -0.2196  1.7519
 5120SOL     OW16172   1.808   1.945   3.116  0.7446 -0.4395 -0.0256
 5120SOL    HW116173   1.831   2.000   3.041  0.4942 -1.4637 -0.8468
 5120SOL    HW216174   1.833   1.998   3.192  1.9136  0.1953 -0.8375
 5121SOL     OW16175   6.839   1.199   4.923  0.0534 -0.5421 -0.3519
 5121SOL    HW116176   6.748   1.226   4.927 -0.3688 -1.8352 -1.1368
 5121SOL    HW216177   6.864   1.209   4.831  0.2052 -1.7788 -0.4560
 5122SOL     OW16178   1.806   1.201   4.425 -0.6757 -0.0470 -0.5002
 5122SOL    HW116179   1.722   1.155   4.423  0.1655 -1.6073 -0.5843
 5122SOL    HW216180   1.830   1.203   4.517  0.7557 -2.5310 -0.7865
 5123SOL     OW16181   4.706   0.160   0.382  0.2735  0.2275  0.0888
 5123SOL    HW116182   4.727   0.208   0.462  0.7907  0.6654 -0.3075
 5123SOL    HW216183   4.776   0.183   0.321 -0.7943  0.8973 -0.9109
 5124SOL     OW16184   2.369   4.831   3.979 -0.2293  0.5524  0.3884
 5124SOL    HW116185   2.436   4.885   3.937  0.0429  1.1357  1.5660
 5124SOL    HW216186   2.361   4.866   4.068 -1.7062  0.1465  0.4370
 5125SOL     OW16187   5.209   3.061   7.949  0.2289 -0.4216  0.5495
 5125SOL    HW116188   5.140   3.121   7.923  0.3196 -0.0896  1.0616
 5125SOL    HW216189   5.261   3.110   8.012 -0.1691 -1.3093  1.5882
 5126SOL     OW16190   2.669   1.522   2.405 -0.5004 -0.5736  0.9841
 5126SOL    HW116191   2.619   1.482   2.476 -0.8816  1.6111  2.0131
 5126SOL    HW216192   2.759   1.525   2.438 -0.4447 -0.7420  0.8464
 5127SOL     OW16193   5.184   5.033   2.868  0.1014 -0.0756 -0.1855
 5127SOL    HW116194   5.102   5.036   2.818 -0.4301 -1.9782  0.5312
 5127SOL    HW216195   5.201   4.940   2.879  0.8276  0.3204  2.1830
 5128SOL     OW16196   0.423   7.637   7.513 -0.0961  0.3685 -0.4386
 5128SOL    HW116197   0.387   7.723   7.534 -0.5058  0.0370  0.2291
 5128SOL    HW216198   0.405   7.584   7.590  0.6700 -0.1615 -0.6138
 5129SOL     OW16199   5.028   2.560   2.666 -0.2333  0.4968 -0.9841
 5129SOL    HW116200   5.057   2.487   2.720 -1.2263  0.7270 -0.1170
 5129SOL    HW216201   5.087   2.632   2.689 -0.4323  0.4943 -0.4634
 5130SOL     OW16202   5.761   2.866   1.599 -0.4493 -0.1271 -0.6460
 5130SOL    HW116203   5.731   2.786   1.643  1.1448  0.1813  1.0950
 5130SOL    HW216204   5.832   2.837   1.542  0.2522  0.0554  0.1236
 5131SOL     OW16205   2.898   6.551   5.066  0.2922 -0.2230  0.4642
 5131SOL    HW116206   2.947   6.470   5.053  0.5386  0.0334 -0.2222
 5131SOL    HW216207   2.935   6.612   5.002 -2.0293 -0.5300 -1.2306
 5132SOL     OW16208   1.812   1.502   7.879  0.6301  0.1232  0.1032
 5132SOL    HW116209   1.755   1.525   7.805  1.0411  1.8416  0.2980
 5132SOL    HW216210   1.881   1.448   7.840  0.8572  1.0281 -0.7919
 5133SOL     OW16211   7.008   7.205   2.666 -0.0821 -0.1146  0.1569
 5133SOL    HW116212   6.958   7.124   2.670  1.2662 -0.9601  0.1256
 5133SOL    HW216213   6.991   7.240   2.579  1.8503 -2.0174 -1.0239
 5134SOL     OW16214   2.891   4.164   1.257  0.5474 -0.2368  0.1225
 5134SOL    HW116215   2.872   4.249   1.295  0.3582 -0.8794  1.5155
 5134SOL    HW216216   2.811   4.138   1.213 -0.9113 -1.5778  3.3756
 5135SOL     OW16217   5.947   5.128   1.602  0.5628  0.0275 -0.3195
 5135SOL    HW116218   6.008   5.107   1.531  0.2903 -2.1173  0.0551
 5135SOL    HW216219   5.870   5.164   1.558  0.2635 -1.5997 -1.1641
 5136SOL     OW16220   4.363   0.982   1.245 -0.9455 -0.0616 -0.7314
 5136SOL    HW116221   4.309   0.946   1.315  0.0533 -0.5000 -0.1739
 5136SOL    HW216222   4.380   1.072   1.271 -0.8475 -0.1271 -0.5660
 5137SOL     OW16223   0.979   5.946   3.063 -0.3482  0.3414  1.2193
 5137SOL    HW116224   0.925   5.877   3.102 -0.1373  0.2147  1.2880
 5137SOL    HW216225   0.919   5.993   3.005 -0.0662 -1.0063 -0.2049
 5138SOL     OW16226   6.315   7.402   6.166  0.2293 -0.5047  0.2162
 5138SOL    HW116227   6.340   7.480   6.216  0.9105 -0.5395 -0.0734
 5138SOL    HW216228   6.220   7.412   6.154  0.6688  1.5188 -1.9507
 5139SOL     OW16229   6.840   0.037   3.772  0.9729  0.4908 -0.2335
 5139SOL    HW116230   6.748   0.049   3.795  1.2081  0.0540  0.9678
 5139SOL    HW216231   6.855   0.098   3.700 -0.0702  1.0736  0.0347
 5140SOL     OW16232   3.010   2.104   7.826 -0.0367 -0.1979 -0.5257
 5140SOL    HW116233   2.948   2.172   7.852 -1.1227 -1.8605  1.3264
 5140SOL    HW216234   2.961   2.046   7.769  0.6282  0.0269 -1.3423
 5141SOL     OW16235   6.660   7.697   0.208 -0.6280 -0.0248 -0.2553
 5141SOL    HW116236   6.736   7.696   0.150 -0.9898 -0.0637 -0.7342
 5141SOL    HW216237   6.590   7.656   0.157 -0.8046 -0.5573  0.4136
 5142SOL     OW16238   3.486   6.634   2.364  0.1972  0.5606 -0.6687
 5142SOL    HW116239   3.563   6.577   2.361 -0.0503  0.2114 -0.4434
 5142SOL    HW216240   3.428   6.593   2.428  0.0694  1.1349 -0.4049
 5143SOL     OW16241   0.026   0.089   4.961  0.0961  0.2861 -0.1851
 5143SOL    HW116242   0.039   0.183   4.954  0.5480  0.1473 -1.3899
 5143SOL    HW216243  -0.042   0.078   5.027 -1.5533  1.5576 -1.6504
 5144SOL     OW16244   0.797   5.580   4.460 -0.4691 -0.3990  0.0912
 5144SOL    HW116245   0.790   5.489   4.488 -2.2864 -0.7293 -1.4040
 5144SOL    HW216246   0.713   5.619   4.482 -0.1735  0.5937 -0.5135
 5145SOL     OW16247   3.300   4.419   7.936 -0.2172  0.3075 -0.1808
 5145SOL    HW116248   3.234   4.480   7.970  0.2150  0.8384 -0.2940
 5145SOL    HW216249   3.350   4.471   7.873  0.7501  0.1067  0.4206
 5146SOL     OW16250   2.301   6.791   7.482 -0.6626 -0.6193 -0.4117
 5146SOL    HW116251   2.225   6.837   7.519 -0.7847 -0.7306 -0.5242
 5146SOL    HW216252   2.376   6.828   7.529 -0.7856 -0.5048 -0.3032
 5147SOL     OW16253   4.218   7.646   1.423 -0.1216 -0.1514 -0.2418
 5147SOL    HW116254   4.142   7.704   1.435  2.1522  2.6926  0.9750
 5147SOL    HW216255   4.223   7.633   1.328 -2.0118 -0.2377 -0.3524
 5148SOL     OW16256   5.421   1.865   7.177 -0.1375 -0.2779  0.0247
 5148SOL    HW116257   5.500   1.903   7.138 -0.6696  0.4218 -0.3999
 5148SOL    HW216258   5.417   1.903   7.265 -0.1456 -0.1047 -0.0500
 5149SOL     OW16259   7.495   6.847   6.271  0.0463 -0.0183 -0.0783
 5149SOL    HW116260   7.581   6.806   6.279  0.1580  0.2778  0.2761
 5149SOL    HW216261   7.439   6.798   6.331  0.7857  1.9495  2.2759
 5150SOL     OW16262   6.843   6.973   0.417  0.2202  0.0184  0.0342
 5150SOL    HW116263   6.834   6.887   0.458  0.8915 -1.4733 -2.8226
 5150SOL    HW216264   6.755   7.009   0.416  0.0705 -0.2593  2.0068
 5151SOL     OW16265   0.027   5.460   6.048  0.6177  0.3700 -0.7908
 5151SOL    HW116266  -0.022   5.513   6.110  0.9385  1.3116 -1.3289
 5151SOL    HW216267   0.028   5.373   6.086 -0.8109  0.5117 -0.3985
 5152SOL     OW16268   5.768   6.904   4.443  0.2086  1.1297  0.4414
 5152SOL    HW116269   5.683   6.860   4.448 -0.2811  2.1232  1.1818
 5152SOL    HW216270   5.832   6.834   4.456 -0.5523  0.6123  1.5148
 5153SOL     OW16271   6.134   4.159   0.933 -0.2713 -0.1744 -0.2575
 5153SOL    HW116272   6.122   4.123   1.021 -1.0374  2.0931  0.5941
 5153SOL    HW216273   6.223   4.133   0.909  0.5937  0.6323  1.8940
 5154SOL     OW16274   2.849   0.333   3.894  0.3296 -0.3229 -0.1616
 5154SOL    HW116275   2.869   0.340   3.801  0.1010 -0.8664 -0.2489
 5154SOL    HW216276   2.829   0.423   3.921 -0.8822 -0.3587 -0.9210
 5155SOL     OW16277   0.759   5.513   6.428  0.4436 -0.0774  0.1752
 5155SOL    HW116278   0.669   5.539   6.450 -0.1768 -0.3000 -1.8990
 5155SOL    HW216279   0.814   5.579   6.469 -0.7768  0.9599  0.1904
 5156SOL     OW16280   7.627   1.253   0.757  0.0055 -0.4552 -0.4120
 5156SOL    HW116281   7.631   1.159   0.739  3.1941 -0.1971 -1.3037
 5156SOL    HW216282   7.599   1.259   0.848  0.7055 -2.3094 -0.0546
 5157SOL     OW16283   5.236   1.081   7.874  0.2496 -0.1355  0.4587
 5157SOL    HW116284   5.237   1.015   7.805 -0.2195  0.3109  0.0209
 5157SOL    HW216285   5.177   1.149   7.841 -1.5805 -0.8572  2.1494
 5158SOL     OW16286   2.442   7.113   7.187  0.6569  0.3156 -0.5919
 5158SOL    HW116287   2.410   7.123   7.276 -1.3381 -1.9831 -1.0197
 5158SOL    HW216288   2.422   7.196   7.145 -0.1747  0.7099  0.5602
 5159SOL     OW16289   0.255   1.991   4.895 -0.1272 -0.3552 -0.0210
 5159SOL    HW116290   0.250   2.054   4.823  1.5729 -0.3994 -0.1949
 5159SOL    HW216291   0.296   2.040   4.967 -0.4897 -0.7269  0.4393
 5160SOL     OW16292   5.540   0.613   0.722 -0.6021  0.0182  0.6750
 5160SOL    HW116293   5.595   0.575   0.653 -1.4857 -2.3974  1.2388
 5160SOL    HW216294   5.593   0.608   0.801 -0.5337  0.4185  0.6542
 5161SOL     OW16295   2.229   0.739   5.035  0.3704  0.2236  0.3808
 5161SOL    HW116296   2.188   0.819   5.069  1.3629 -0.1808  2.6007
 5161SOL    HW216297   2.177   0.668   5.074  0.6738 -0.2414 -0.0622
 5162SOL     OW16298   7.460   3.622   5.139 -0.3278  0.4211 -0.5283
 5162SOL    HW116299   7.468   3.527   5.149  1.6774  0.6508  0.1758
 5162SOL    HW216300   7.434   3.634   5.047  0.3529 -0.7714 -0.8938
 5163SOL     OW16301   0.683   3.111   4.904  0.7716 -0.3175 -0.2983
 5163SOL    HW116302   0.643   3.090   4.820 -0.2691 -2.7158  0.7613
 5163SOL    HW216303   0.772   3.077   4.898 -0.4639 -3.9736  0.8881
 5164SOL     OW16304   7.822   2.347   5.366 -0.3812  0.0129 -0.3246
 5164SOL    HW116305   7.885   2.287   5.406 -1.1002 -1.1948 -1.0007
 5164SOL    HW216306   7.764   2.372   5.437 -0.1061 -0.1140 -0.0510
 5165SOL     OW16307   7.215   1.705   4.779  0.0631 -0.1588  0.3815
 5165SOL    HW116308   7.287   1.765   4.800  0.5062 -0.5423 -0.0394
 5165SOL    HW216309   7.171   1.689   4.863  0.9841 -0.5951  0.7798
 5166SOL     OW16310   2.884   7.575   7.496 -0.5274  0.4261  0.1575
 5166SOL    HW116311   2.816   7.508   7.507  1.5233 -1.8614 -0.5287
 5166SOL    HW216312   2.938   7.568   7.575  0.2649  0.5816 -0.3612
 5167SOL     OW16313   4.200   4.651   0.250 -0.4103 -0.2165 -0.4014
 5167SOL    HW116314   4.294   4.657   0.263 -0.0971 -0.7536 -2.2295
 5167SOL    HW216315   4.163   4.655   0.338  1.4328 -2.2024  0.5112
 5168SOL     OW16316   2.401   3.387   1.631  0.0537 -0.0614 -0.2248
 5168SOL    HW116317   2.365   3.380   1.543  1.9037  0.4068 -1.0495
 5168SOL    HW216318   2.460   3.462   1.627  1.1106 -0.7992  1.0728
 5169SOL     OW16319   5.789   6.979   6.898  0.2982 -0.2006  0.0571
 5169SOL    HW116320   5.843   7.046   6.857 -0.4820 -0.4749 -1.4464
 5169SOL    HW216321   5.728   6.951   6.829 -2.0205  0.3741  1.8124
 5170SOL     OW16322   6.827   5.856   6.288 -0.0078  0.6470 -0.2416
 5170SOL    HW116323   6.824   5.789   6.220  0.1691  0.8683 -0.4712
 5170SOL    HW216324   6.742   5.852   6.330 -0.2397  0.7368 -0.7009
 5171SOL     OW16325   6.590   7.393   2.516 -0.0865 -0.0343 -0.7643
 5171SOL    HW116326   6.640   7.450   2.457  0.7319 -0.7211 -0.7500
 5171SOL    HW216327   6.508   7.440   2.531 -0.4409  0.0110 -2.6957
 5172SOL     OW16328   3.133   5.939   6.602  0.7369 -0.3755  0.4826
 5172SOL    HW116329   3.053   5.960   6.650  0.8353  0.2271  0.3883
 5172SOL    HW216330   3.172   6.024   6.581  1.1875 -0.6542  0.1651
 5173SOL     OW16331   5.104   4.864   1.988 -0.0076 -0.2655 -0.0935
 5173SOL    HW116332   5.125   4.908   1.906 -1.3711  0.6639  0.0230
 5173SOL    HW216333   5.008   4.856   1.986  0.0183 -0.9185  1.0518
 5174SOL     OW16334   6.406   0.332   5.858  0.2920 -0.6672 -0.3494
 5174SOL    HW116335   6.458   0.337   5.778  0.3481 -3.3723 -0.5252
 5174SOL    HW216336   6.324   0.377   5.837  0.8341 -0.2197 -1.5000
 5175SOL     OW16337   4.072   0.242   1.335  0.4666  0.0431 -0.4899
 5175SOL    HW116338   4.080   0.335   1.314 -0.2401  0.3401  0.5599
 5175SOL    HW216339   4.146   0.224   1.394 -0.3002  0.2938  0.5453
 5176SOL     OW16340   2.617   6.360   4.702 -0.2389  0.3203  0.2818
 5176SOL    HW116341   2.566   6.370   4.622  2.0121  2.2305 -0.9623
 5176SOL    HW216342   2.666   6.279   4.689  0.1115  0.6190 -0.2965
 5177SOL     OW16343   6.597   2.636   2.202  0.2430  0.4627 -0.1554
 5177SOL    HW116344   6.581   2.727   2.227 -1.0775 -0.0055  0.7362
 5177SOL    HW216345   6.649   2.599   2.273 -0.7580  0.0389  0.3798
 5178SOL     OW16346   7.027   1.499   1.167 -0.2454 -0.0930 -0.0117
 5178SOL    HW116347   7.081   1.505   1.088  2.7560 -0.7279  1.9011
 5178SOL    HW216348   6.955   1.560   1.152 -0.0792 -0.6510 -3.4598
 5179SOL     OW16349   2.531   5.572   7.354  0.1145 -0.4145  0.4491
 5179SOL    HW116350   2.536   5.615   7.269  1.5298 -1.4954 -0.0366
 5179SOL    HW216351   2.497   5.639   7.413 -0.5811  0.4349 -0.9041
 5180SOL     OW16352   6.049   2.893   4.023 -0.2645  0.4384  0.3736
 5180SOL    HW116353   6.096   2.878   3.941 -0.1174  0.4050  0.4629
 5180SOL    HW216354   6.112   2.941   4.078  0.0447 -0.5098  0.8742
 5181SOL     OW16355   3.677   0.540   6.907  0.3172 -0.3828  0.3187
 5181SOL    HW116356   3.686   0.449   6.934 -1.1971 -0.6938 -0.1367
 5181SOL    HW216357   3.711   0.542   6.818 -0.6725 -0.7679 -0.0850
 5182SOL     OW16358   7.011   2.138   3.997 -0.3944  0.1190 -0.1507
 5182SOL    HW116359   7.040   2.051   3.971 -0.0563  0.1338  0.1784
 5182SOL    HW216360   7.021   2.139   4.093 -0.5237  0.4726 -0.1406
 5183SOL     OW16361   5.797   5.718   7.003 -0.8284 -0.1475  0.0377
 5183SOL    HW116362   5.884   5.679   7.013 -0.5794  0.4113  0.0853
 5183SOL    HW216363   5.815   5.811   6.986 -1.4548  0.4137  2.2757
 5184SOL     OW16364   3.755   0.524   0.340 -0.6952 -0.2791  0.1444
 5184SOL    HW116365   3.700   0.562   0.409 -1.6013  1.6422 -1.5719
 5184SOL    HW216366   3.701   0.531   0.260  0.7938 -1.3331 -0.9706
 5185SOL     OW16367   5.302   2.204   5.939 -0.2213 -0.1834 -0.3152
 5185SOL    HW116368   5.349   2.162   5.867 -2.7182  0.5720 -2.4509
 5185SOL    HW216369   5.222   2.153   5.949 -1.9858  2.3156 -1.1011
 5186SOL     OW16370   5.099   0.189   0.874  0.1393 -0.3515  0.2632
 5186SOL    HW116371   5.095   0.146   0.960 -1.0833  0.1415  0.4512
 5186SOL    HW216372   5.040   0.138   0.819 -0.4886  0.4460  0.2011
 5187SOL     OW16373   4.759   6.649   2.336 -0.3502  0.2372  0.0697
 5187SOL    HW116374   4.755   6.556   2.314  1.7058  0.1598 -0.0447
 5187SOL    HW216375   4.811   6.653   2.416  0.4663  1.3692 -0.5010
 5188SOL     OW16376   3.544   6.467   4.487  0.5061 -0.3362 -0.0322
 5188SOL    HW116377   3.544   6.448   4.393 -3.3597 -3.0292  0.3814
 5188SOL    HW216378   3.540   6.563   4.492 -2.0339 -0.2358 -2.7049
 5189SOL     OW16379   0.947   5.581   4.225  0.5634 -0.1050 -0.1813
 5189SOL    HW116380   0.889   5.596   4.299 -0.6292 -3.5476 -0.3187
 5189SOL    HW216381   0.927   5.651   4.163 -0.4123  1.1731  1.5548
 5190SOL     OW16382   6.137   4.136   3.198 -0.0880  0.6205 -0.0238
 5190SOL    HW116383   6.179   4.081   3.263 -0.9790 -2.5220 -1.9894
 5190SOL    HW216384   6.056   4.165   3.240 -0.7927 -1.6062  0.2235
 5191SOL     OW16385   3.414   2.069   5.341 -0.3675 -0.5564  1.1058
 5191SOL    HW116386   3.323   2.077   5.312 -0.5670 -1.5777  1.4243
 5191SOL    HW216387   3.408   2.025   5.426  0.4824 -1.4652  0.6966
 5192SOL     OW16388   4.813   7.855   7.605 -0.2800  0.1213  0.1699
 5192SOL    HW116389   4.818   7.946   7.634  0.5463  0.1481 -0.0421
 5192SOL    HW216390   4.874   7.849   7.531  0.0684 -0.7320  0.5160
 5193SOL     OW16391   7.334   6.661   1.919 -0.2370  0.0731  0.1983
 5193SOL    HW116392   7.425   6.673   1.948 -0.5047  0.1405  0.9922
 5193SOL    HW216393   7.284   6.649   1.999 -1.1193  1.2153 -0.1671
 5194SOL     OW16394   5.283   2.773   4.646  0.4697  0.0071  0.2147
 5194SOL    HW116395   5.361   2.763   4.591 -0.0620  1.4500 -0.8080
 5194SOL    HW216396   5.238   2.689   4.639  1.4744 -0.5350  0.1252
 5195SOL     OW16397   4.061   1.116   7.787  0.3642  0.0500  0.6980
 5195SOL    HW116398   3.993   1.051   7.773 -0.5303  0.8084  1.3938
 5195SOL    HW216399   4.106   1.123   7.703  0.2419 -1.2000  0.5242
 5196SOL     OW16400   0.092   5.556   0.284  0.2701  0.1631  0.3344
 5196SOL    HW116401   0.115   5.649   0.289 -1.9177  0.8372 -1.3807
 5196SOL    HW216402   0.071   5.542   0.192 -3.1628 -1.1132  1.2692
 5197SOL     OW16403   6.839   2.109   2.765 -0.2449  0.8455 -0.3775
 5197SOL    HW116404   6.830   2.025   2.718 -0.9300  0.3785  0.5776
 5197SOL    HW216405   6.782   2.169   2.717  0.3372  0.8034 -1.1370
 5198SOL     OW16406   4.909   1.545   0.631  0.3261 -0.1048 -0.4260
 5198SOL    HW116407   4.939   1.572   0.718 -0.0420  0.2849 -0.4198
 5198SOL    HW216408   4.818   1.573   0.627  0.5942  0.6567 -1.2671
 5199SOL     OW16409   7.667   4.700   6.830  0.2765  0.4728 -0.8292
 5199SOL    HW116410   7.729   4.627   6.835  1.0779  1.1868  0.0268
 5199SOL    HW216411   7.723   4.778   6.824 -0.4878  1.2379  1.2651
 5200SOL     OW16412   2.668   4.421   2.395 -0.1384 -0.2598  0.0023
 5200SOL    HW116413   2.610   4.345   2.393 -1.3364  0.6371  0.6618
 5200SOL    HW216414   2.643   4.469   2.473  3.3503 -1.3054  1.8720
 5201SOL     OW16415   2.928   5.180   0.044 -0.4335 -0.1550 -0.0396
 5201SOL    HW116416   3.013   5.210   0.012  0.4568 -2.4281  0.0721
 5201SOL    HW216417   2.948   5.131   0.123 -1.8260 -0.8514 -0.0943
 5202SOL     OW16418   2.010   3.271   3.542  0.0031 -0.6516 -0.0305
 5202SOL    HW116419   1.916   3.284   3.558 -0.2861 -0.1066 -2.0214
 5202SOL    HW216420   2.018   3.178   3.520  0.0057 -0.8107  0.6444
 5203SOL     OW16421   2.743   4.920   4.570 -0.0933  0.0183 -0.6462
 5203SOL    HW116422   2.838   4.918   4.562 -0.2376 -1.9330 -2.0538
 5203SOL    HW216423   2.727   4.930   4.664  1.4897  1.9664 -0.5601
 5204SOL     OW16424   0.228   4.882   1.323 -0.0910  0.2112 -0.6806
 5204SOL    HW116425   0.172   4.949   1.364 -1.0818 -0.2684 -1.2187
 5204SOL    HW216426   0.282   4.931   1.262  0.9966  0.8584  0.7712
 5205SOL     OW16427   3.001   3.527   5.145 -0.1619  0.3202  0.0363
 5205SOL    HW116428   3.049   3.513   5.064  0.3613 -0.9180  0.5468
 5205SOL    HW216429   3.017   3.448   5.196 -1.4192  0.5904  0.8781
 5206SOL     OW16430   6.915   7.305   0.926  0.2502 -0.6572  0.3522
 5206SOL    HW116431   6.918   7.266   1.013  1.0463  2.5582  1.8678
 5206SOL    HW216432   6.881   7.393   0.941  0.6695  0.0594 -2.5620
 5207SOL     OW16433   4.787   0.316   7.640 -0.0011  0.0955 -0.4285
 5207SOL    HW116434   4.773   0.279   7.727 -2.1326  1.6564 -0.0765
 5207SOL    HW216435   4.731   0.264   7.582  0.9641 -0.5599 -0.7864
 5208SOL     OW16436   1.935   4.994   3.373 -0.0964 -0.4810  0.2032
 5208SOL    HW116437   1.957   4.971   3.283 -1.9035  1.6614 -0.8356
 5208SOL    HW216438   1.880   4.922   3.403 -0.0199 -0.8947 -0.6361
 5209SOL     OW16439   0.671   3.097   2.577  0.2115  0.5025 -0.3759
 5209SOL    HW116440   0.592   3.109   2.630  1.2833 -0.5878  1.4888
 5209SOL    HW216441   0.725   3.037   2.627  2.2714  1.2799 -1.6185
 5210SOL     OW16442   7.411   6.238   1.074 -0.4668  0.7145  0.1123
 5210SOL    HW116443   7.432   6.236   1.167 -0.3981 -1.6108  0.0660
 5210SOL    HW216444   7.350   6.311   1.065  0.4943  1.7398  1.7620
 5211SOL     OW16445   7.597   0.781   6.598  0.9174 -0.2796  0.4977
 5211SOL    HW116446   7.561   0.783   6.509  1.7662 -1.0816  0.1166
 5211SOL    HW216447   7.521   0.775   6.655  0.3516  0.6369 -0.1638
 5212SOL     OW16448   2.660   5.519   5.373 -0.3932 -0.3614  0.2377
 5212SOL    HW116449   2.573   5.509   5.336 -0.9075 -0.1832  1.3593
 5212SOL    HW216450   2.648   5.505   5.467  0.6133  0.6321  0.5354
 5213SOL     OW16451   1.160   6.732   2.758 -0.3644 -0.1312 -0.2803
 5213SOL    HW116452   1.202   6.645   2.758  0.0768  0.0800  0.7525
 5213SOL    HW216453   1.069   6.714   2.735 -0.9288 -1.2124  2.5523
 5214SOL     OW16454   7.841   0.704   5.309 -0.0223 -0.0223  0.5339
 5214SOL    HW116455   7.901   0.681   5.237 -1.4009 -0.7737 -0.4088
 5214SOL    HW216456   7.890   0.682   5.388  0.7136 -1.2537 -0.2324
 5215SOL     OW16457   1.455   2.830   2.089  0.1924  0.2905 -0.2451
 5215SOL    HW116458   1.455   2.882   2.008 -0.0794 -0.5634 -0.7933
 5215SOL    HW216459   1.544   2.838   2.122 -0.2030  2.3080  0.4472
 5216SOL     OW16460   3.364   4.601   0.475 -0.7442  0.1122  0.3364
 5216SOL    HW116461   3.456   4.575   0.482  0.1047  2.7823 -0.2094
 5216SOL    HW216462   3.333   4.603   0.566  0.4175  1.4447  0.7155
 5217SOL     OW16463   4.815   5.396   5.722  0.2887 -0.3753 -0.0602
 5217SOL    HW116464   4.868   5.353   5.789 -0.9610 -1.5805  0.1814
 5217SOL    HW216465   4.802   5.485   5.754  0.0900 -0.8079  1.0654
 5218SOL     OW16466   7.297   4.092   6.805 -0.1787 -0.4419  0.6762
 5218SOL    HW116467   7.310   4.151   6.730  0.6461 -0.8671  0.4859
 5218SOL    HW216468   7.290   4.005   6.766  2.2572 -0.9169  1.2246
 5219SOL     OW16469   3.898   6.723   0.920  0.1190 -0.1991 -0.1662
 5219SOL    HW116470   3.975   6.727   0.863  0.6990 -0.5321  0.5959
 5219SOL    HW216471   3.831   6.682   0.865  0.2093  0.8926 -1.1286
 5220SOL     OW16472   1.862   0.005   5.422  0.5808 -0.3528 -0.4611
 5220SOL    HW116473   1.794   0.065   5.453  0.2964 -1.2703  0.7700
 5220SOL    HW216474   1.846  -0.003   5.328  1.4756  2.5211 -0.9002
 5221SOL     OW16475   5.059   0.522   6.370  0.3663 -0.0429 -0.1710
 5221SOL    HW116476   4.981   0.474   6.344  1.2183 -1.2395 -0.5791
 5221SOL    HW216477   5.037   0.561   6.454 -0.9252  0.2645 -0.6392
 5222SOL     OW16478   4.654   3.307   0.868 -0.2381  0.2459  0.0656
 5222SOL    HW116479   4.700   3.342   0.793  0.1767  0.7007  0.5290
 5222SOL    HW216480   4.580   3.258   0.831  0.7840 -0.7562 -0.6931
 5223SOL     OW16481   5.299   2.985   3.745 -0.1274 -0.0067 -0.0272
 5223SOL    HW116482   5.351   2.953   3.819  2.3862  0.3395 -1.5540
 5223SOL    HW216483   5.301   2.913   3.682  0.7112  0.9575 -1.1372
 5224SOL     OW16484   3.804   5.623   7.683  0.1686 -0.6970 -0.2797
 5224SOL    HW116485   3.713   5.593   7.676  0.0861 -0.5476  0.1570
 5224SOL    HW216486   3.850   5.574   7.614 -0.3587 -0.3114 -0.9062
 5225SOL     OW16487   0.482   3.208   7.609  0.2709  0.9149  0.1071
 5225SOL    HW116488   0.531   3.256   7.542  1.1827  0.4047  0.3874
 5225SOL    HW216489   0.485   3.265   7.686 -0.8244  1.5252 -0.3057
 5226SOL     OW16490   0.042   7.192   6.370  0.0135  0.4414 -0.6665
 5226SOL    HW116491   0.059   7.178   6.276 -0.7678 -1.6576 -0.5306
 5226SOL    HW216492   0.110   7.140   6.414 -0.9977 -0.4247 -0.1009
 5227SOL     OW16493   3.003   5.471   6.611 -0.1041 -0.0482 -0.4251
 5227SOL    HW116494   3.089   5.497   6.581 -0.6514 -0.5187 -2.4730
 5227SOL    HW216495   3.011   5.377   6.630 -0.2384 -0.1500 -0.8760
 5228SOL     OW16496   1.367   6.921   1.881  0.0586 -0.5885  0.3208
 5228SOL    HW116497   1.444   6.968   1.913 -0.8801  3.3206 -2.7814
 5228SOL    HW216498   1.395   6.882   1.798 -0.6500 -1.2341  0.3776
 5229SOL     OW16499   0.455   3.080   0.281 -0.5446  0.4728 -0.5303
 5229SOL    HW116500   0.385   3.022   0.252 -0.9961  0.6304  0.2440
 5229SOL    HW216501   0.527   3.020   0.304 -0.4480  0.3098 -1.2217
 5230SOL     OW16502   7.294   4.811   6.447 -0.0160  0.5091  0.2991
 5230SOL    HW116503   7.320   4.725   6.415  0.3167  0.1956  1.3871
 5230SOL    HW216504   7.274   4.862   6.368  1.4638 -0.0191 -0.4220
 5231SOL     OW16505   7.861   4.066   4.800 -0.2258  0.2167 -0.4328
 5231SOL    HW116506   7.786   4.008   4.790 -0.3243  0.1795  0.4295
 5231SOL    HW216507   7.924   4.014   4.851  1.3487 -0.6111 -3.1067
 5232SOL     OW16508   5.672   1.360   3.067  0.9711 -0.7809  0.0399
 5232SOL    HW116509   5.606   1.417   3.106  0.2004 -0.4032 -1.7679
 5232SOL    HW216510   5.732   1.420   3.023  2.3403 -1.1447  1.3835
 5233SOL     OW16511   4.170   3.555   0.002 -0.2765  0.5375  0.3774
 5233SOL    HW116512   4.125   3.472  -0.010 -0.1222  0.5888 -0.5483
 5233SOL    HW216513   4.111   3.606   0.059 -1.1876  0.4401 -0.4619
 5234SOL     OW16514   0.697   6.466   2.036  0.1176 -0.3639 -0.5849
 5234SOL    HW116515   0.673   6.451   1.945  1.6829  0.5266 -1.1650
 5234SOL    HW216516   0.730   6.382   2.067  0.0680 -0.5315 -0.9881
 5235SOL     OW16517   3.218   6.160   5.233  0.2723 -0.1587  0.6674
 5235SOL    HW116518   3.231   6.215   5.155  1.0392 -1.1871  0.0630
 5235SOL    HW216519   3.239   6.072   5.204  1.7148 -0.3945  2.3724
 5236SOL     OW16520   2.422   4.323   5.729 -0.2233  0.4861 -0.6336
 5236SOL    HW116521   2.346   4.380   5.739  0.4338  1.1870  0.4488
 5236SOL    HW216522   2.487   4.376   5.682 -0.3036 -0.0293 -1.3473
 5237SOL     OW16523   6.627   4.363   0.771  0.3384 -0.9357 -0.3295
 5237SOL    HW116524   6.603   4.311   0.848  0.7449  0.8107  1.0323
 5237SOL    HW216525   6.670   4.441   0.808 -1.6062  1.0991 -2.1678
 5238SOL     OW16526   7.749   7.058   6.642  0.0345 -0.0523 -0.4594
 5238SOL    HW116527   7.729   7.123   6.574  0.5503  1.0274  0.4152
 5238SOL    HW216528   7.804   6.994   6.598  0.1364  0.4881 -1.1377
 5239SOL     OW16529   0.375   6.488   5.217 -0.4922  0.8287 -0.0011
 5239SOL    HW116530   0.451   6.482   5.276  0.9031  1.6685 -1.6545
 5239SOL    HW216531   0.340   6.399   5.213 -0.0664  0.5826  1.3749
 5240SOL     OW16532   6.037   7.489   3.725 -0.2927  0.6894  0.1009
 5240SOL    HW116533   5.991   7.420   3.677  0.5616  1.4013 -1.7729
 5240SOL    HW216534   5.967   7.544   3.761 -0.9395  0.0578 -0.1696
 5241SOL     OW16535   3.037   0.724   5.226 -0.0625 -0.3792 -0.3141
 5241SOL    HW116536   2.960   0.744   5.173 -0.1423 -2.1808 -0.9109
 5241SOL    HW216537   3.097   0.798   5.211 -1.4951  0.8220 -0.1631
 5242SOL     OW16538   6.035   4.365   6.058 -0.3400 -0.1128  0.2376
 5242SOL    HW116539   6.028   4.285   6.110  0.3361 -0.1188  0.3319
 5242SOL    HW216540   6.012   4.435   6.119  1.0131 -0.0672  0.7291
 5243SOL     OW16541   0.806   0.997   7.606 -0.0289  0.1008  0.0970
 5243SOL    HW116542   0.730   0.988   7.663 -0.4941 -3.7463 -0.9746
 5243SOL    HW216543   0.775   1.050   7.532 -1.2285 -0.1737  0.4058
 5244SOL     OW16544   4.398   3.498   0.338  0.3585 -0.4756 -0.0158
 5244SOL    HW116545   4.356   3.526   0.419  0.3215  0.9725 -0.5172
 5244SOL    HW216546   4.361   3.412   0.319 -1.2369  0.1163  0.3572
 5245SOL     OW16547   4.920   6.164   2.763 -0.3303  1.0643  0.6547
 5245SOL    HW116548   4.936   6.219   2.840 -0.1781  2.9415 -0.6723
 5245SOL    HW216549   4.876   6.222   2.701  0.5076 -0.1235 -1.0827
 5246SOL     OW16550   2.105   7.688   2.119  0.2436 -0.1811 -0.5801
 5246SOL    HW116551   2.101   7.658   2.210  0.7743 -0.8832 -0.7796
 5246SOL    HW216552   2.166   7.627   2.076 -0.6475 -0.3725 -1.6029
 5247SOL     OW16553   0.880   5.277   1.182  0.1663  0.5400  0.0701
 5247SOL    HW116554   0.883   5.183   1.164  0.2476  0.2714  1.5008
 5247SOL    HW216555   0.961   5.296   1.228  0.8983  1.6171 -1.5960
 5248SOL     OW16556   7.349   0.891   7.425 -0.3328 -0.6191  0.1176
 5248SOL    HW116557   7.336   0.906   7.332  0.2889 -0.1455  0.1048
 5248SOL    HW216558   7.422   0.948   7.449  0.7070 -2.0943  0.5062
 5249SOL     OW16559   7.402   4.760   5.281  0.1762  0.4571 -0.4088
 5249SOL    HW116560   7.386   4.854   5.289 -0.5859  0.4317 -1.4115
 5249SOL    HW216561   7.363   4.722   5.359 -1.5983  0.7653 -1.1058
 5250SOL     OW16562   3.176   3.323   7.916  0.1852 -0.2752 -0.2836
 5250SOL    HW116563   3.142   3.405   7.879  1.0769  0.7272  1.0696
 5250SOL    HW216564   3.239   3.292   7.851 -0.9138 -0.4531 -1.2883
 5251SOL     OW16565   4.149   0.074   6.788 -0.5411 -0.3050 -0.4373
 5251SOL    HW116566   4.130  -0.007   6.836  0.9647 -1.2119 -1.3515
 5251SOL    HW216567   4.202   0.126   6.849  2.7159 -2.1207 -1.6520
 5252SOL     OW16568   4.925   4.285   6.507 -0.2938 -0.1724 -0.2727
 5252SOL    HW116569   4.991   4.249   6.567 -0.5287 -0.5242 -0.2288
 5252SOL    HW216570   4.957   4.261   6.420 -0.6760 -0.8584 -0.2218
 5253SOL     OW16571   2.514   1.109   7.331 -0.1300 -0.0638  0.6311
 5253SOL    HW116572   2.466   1.169   7.273 -1.1733 -1.3220  0.1570
 5253SOL    HW216573   2.450   1.041   7.353  0.6820 -0.3754  2.1215
 5254SOL     OW16574   5.680   0.016   4.070 -0.1549  0.0560  0.2285
 5254SOL    HW116575   5.664   0.040   3.978 -0.5899  0.9642  0.5364
 5254SOL    HW216576   5.607  -0.041   4.092  1.6379 -2.7994 -0.9350
 5255SOL     OW16577   7.523   6.500   4.997 -0.2085  0.4949  0.0379
 5255SOL    HW116578   7.478   6.538   4.922 -0.0461  0.5678 -0.0233
 5255SOL    HW216579   7.498   6.556   5.071  1.0231  1.4870 -0.2694
 5256SOL     OW16580   3.402   0.397   2.692  0.0919 -0.0640 -0.0222
 5256SOL    HW116581   3.367   0.309   2.678 -2.1314  0.7716  0.0787
 5256SOL    HW216582   3.344   0.454   2.642  1.2930  1.3849  0.2060
 5257SOL     OW16583   6.027   1.403   5.021  0.1566  0.2351  0.1801
 5257SOL    HW116584   5.942   1.442   5.041  0.2073 -0.3282  1.5157
 5257SOL    HW216585   6.085   1.431   5.091  1.3203  1.3201 -1.1777
 5258SOL     OW16586   0.020   0.463   1.443 -0.6555  0.1137 -0.4245
 5258SOL    HW116587  -0.013   0.477   1.532 -0.8935  1.1703 -0.6691
 5258SOL    HW216588   0.001   0.371   1.425  1.7838 -0.8651  1.6022
 5259SOL     OW16589   3.241   0.111   2.020 -0.1831  0.6728 -0.2073
 5259SOL    HW116590   3.184   0.187   2.007 -2.8794 -1.3378 -0.6131
 5259SOL    HW216591   3.192   0.055   2.080  1.1644 -1.3386 -0.9499
 5260SOL     OW16592   2.016   7.858   2.630 -0.5002  0.3483 -0.3981
 5260SOL    HW116593   1.956   7.924   2.664 -0.5531  0.2939 -0.3860
 5260SOL    HW216594   2.034   7.801   2.704 -1.1396 -0.1585 -0.6213
 5261SOL     OW16595   7.749   5.917   7.132  0.1121  0.2572  0.1686
 5261SOL    HW116596   7.809   5.854   7.171 -0.6998 -0.1632  0.7720
 5261SOL    HW216597   7.793   5.947   7.052  1.4685  0.5715  1.0207
 5262SOL     OW16598   1.520   6.264   5.821  0.1903  0.2483 -0.2788
 5262SOL    HW116599   1.530   6.179   5.778 -1.0145 -0.0199 -0.0470
 5262SOL    HW216600   1.480   6.320   5.756  0.3718  0.4568 -0.2125
 5263SOL     OW16601   6.626   1.248   0.621  0.3744 -0.4846 -0.1118
 5263SOL    HW116602   6.677   1.174   0.587  0.0035 -1.1392  0.7447
 5263SOL    HW216603   6.652   1.255   0.712  2.7864  2.4844 -0.9379
 5264SOL     OW16604   0.572   6.543   4.171 -0.4684  0.7940  0.1197
 5264SOL    HW116605   0.588   6.603   4.244 -1.6417 -1.9746  2.7436
 5264SOL    HW216606   0.498   6.583   4.124 -2.1597  0.7511  2.6349
 5265SOL     OW16607   6.535   1.105   7.834  0.3018  0.3117 -0.3434
 5265SOL    HW116608   6.515   1.019   7.797  0.5056  0.2257 -0.2548
 5265SOL    HW216609   6.551   1.088   7.927  2.3369  0.1486 -0.7202
 5266SOL     OW16610   3.929   5.002   4.643  0.1550  0.3490  0.1699
 5266SOL    HW116611   3.886   4.939   4.701 -0.2296 -0.7269 -1.2716
 5266SOL    HW216612   4.010   4.958   4.615  1.7141  1.9340  2.0085
 5267SOL     OW16613   6.390   0.498   2.911 -0.0253 -0.0297  0.1772
 5267SOL    HW116614   6.426   0.544   2.835  1.1303 -1.0407  0.1031
 5267SOL    HW216615   6.356   0.567   2.968  2.0193  0.9427  0.2358
 5268SOL     OW16616   7.867   0.149   2.253  0.1156  0.7304  0.9150
 5268SOL    HW116617   7.928   0.179   2.186  1.3738  0.7464  2.0557
 5268SOL    HW216618   7.796   0.213   2.252 -0.4182  0.1468 -1.1318
 5269SOL     OW16619   5.756   4.385   4.832 -0.2427 -0.1414 -0.5870
 5269SOL    HW116620   5.813   4.455   4.862  2.0662 -2.4156  0.5001
 5269SOL    HW216621   5.792   4.357   4.748 -1.6174  0.4538 -1.4023
 5270SOL     OW16622   1.927   6.590   1.312  0.0934 -0.1453  0.3849
 5270SOL    HW116623   1.973   6.666   1.277 -0.6404  0.1200 -0.0114
 5270SOL    HW216624   1.866   6.627   1.377  0.2900 -0.4691  0.7529
 5271SOL     OW16625   5.072   3.766   0.266  0.4841  0.0544  0.1132
 5271SOL    HW116626   5.140   3.833   0.278  0.4089 -0.5268  4.2225
 5271SOL    HW216627   5.120   3.684   0.260  0.2355 -0.1398  0.8632
 5272SOL     OW16628   5.289   1.624   2.445 -0.0064 -0.4010 -0.0036
 5272SOL    HW116629   5.204   1.656   2.475 -0.7401 -2.1019 -0.1937
 5272SOL    HW216630   5.274   1.531   2.426  1.8247 -0.6494 -0.3171
 5273SOL     OW16631   3.875   3.271   4.409 -0.3430  0.6368  0.5931
 5273SOL    HW116632   3.927   3.264   4.489 -0.5929 -0.5941  0.6600
 5273SOL    HW216633   3.929   3.231   4.341 -1.0362 -0.3139  0.5916
 5274SOL     OW16634   7.006   3.651   2.042 -0.2839  0.2170  0.0005
 5274SOL    HW116635   7.085   3.612   2.079 -0.0340 -0.8630 -1.6339
 5274SOL    HW216636   7.039   3.718   1.982 -0.6886  2.1079  1.8439
 5275SOL     OW16637   5.217   5.650   2.195  0.1732  0.5339  0.2584
 5275SOL    HW116638   5.157   5.677   2.265 -0.7078  1.5959 -0.8918
 5275SOL    HW216639   5.213   5.721   2.131 -0.0356 -1.0329 -1.5039
 5276SOL     OW16640   4.596   4.315   7.787  0.0912  0.6925  0.2875
 5276SOL    HW116641   4.625   4.232   7.749 -2.3625  0.2374 -0.7136
 5276SOL    HW216642   4.557   4.290   7.871  1.3714  1.1238  1.0163
 5277SOL     OW16643   2.412   5.444   0.598  0.5637 -0.0705  0.2228
 5277SOL    HW116644   2.421   5.440   0.502 -1.6627 -2.2733  0.0606
 5277SOL    HW216645   2.327   5.487   0.612  1.0847  0.6387  1.2319
 5278SOL     OW16646   1.881   3.959   5.734 -0.0795 -0.2174 -0.0557
 5278SOL    HW116647   1.910   4.045   5.705  3.6024 -1.0198  1.0085
 5278SOL    HW216648   1.921   3.898   5.673 -2.0153 -1.2700 -0.3261
 5279SOL     OW16649   3.577   1.302   6.984 -0.0433  0.1449  0.4234
 5279SOL    HW116650   3.606   1.249   7.059 -3.2991 -1.3295  0.6979
 5279SOL    HW216651   3.550   1.238   6.918  0.8316  1.4609 -1.2529
 5280SOL     OW16652   7.117   1.567   0.201  0.0953  0.1228 -0.0343
 5280SOL    HW116653   7.194   1.516   0.174 -0.9204 -0.1828 -2.4197
 5280SOL    HW216654   7.045   1.504   0.198 -0.2243  0.2753  2.6888
 5281SOL     OW16655   6.139   6.139   2.256 -0.3031 -0.0701  0.0332
 5281SOL    HW116656   6.210   6.080   2.232  0.2899  0.9007 -0.6222
 5281SOL    HW216657   6.139   6.206   2.188  0.5369  1.9968  2.0067
 5282SOL     OW16658   4.817   0.598   5.877  0.5469  0.2690  0.1991
 5282SOL    HW116659   4.740   0.568   5.828 -0.0320  0.2444  1.1025
 5282SOL    HW216660   4.891   0.567   5.827 -0.0432 -0.5034 -0.2063
 5283SOL     OW16661   0.042   2.318   7.137  0.2945  0.1223 -0.1833
 5283SOL    HW116662  -0.030   2.313   7.200  0.5185 -1.2832 -0.0320
 5283SOL    HW216663   0.107   2.256   7.169  0.8263  0.0886 -1.2923
 5284SOL     OW16664   2.031   3.714   1.570  0.1577  0.2203  0.0583
 5284SOL    HW116665   2.114   3.744   1.534 -0.0285  2.4487  1.3912
 5284SOL    HW216666   1.970   3.786   1.554 -0.8536 -0.2781  1.4750
 5285SOL     OW16667   6.567   3.655   3.452 -0.3317  0.4748  0.1851
 5285SOL    HW116668   6.654   3.628   3.482 -0.1867 -0.5910 -1.1491
 5285SOL    HW216669   6.511   3.645   3.529  0.7890  1.5221  1.1586
 5286SOL     OW16670   3.473   6.203   4.535 -0.0122  0.7993  0.4849
 5286SOL    HW116671   3.498   6.294   4.550  1.3742  0.3469  0.9832
 5286SOL    HW216672   3.546   6.166   4.486 -0.3265 -0.1936  0.7595
 5287SOL     OW16673   4.135   7.285   4.586  0.6389  0.2842 -0.0053
 5287SOL    HW116674   4.180   7.347   4.644  0.9665 -0.5073  0.5979
 5287SOL    HW216675   4.117   7.335   4.507  1.4856  0.9691  0.2254
 5288SOL     OW16676   1.962   5.657   7.540 -0.0954 -0.5233 -0.0180
 5288SOL    HW116677   1.986   5.749   7.550  1.9819 -1.0273 -0.2495
 5288SOL    HW216678   1.952   5.625   7.630 -0.8322 -0.0830  0.0616
 5289SOL     OW16679   7.573   1.540   2.602  0.5402  0.6581  0.1864
 5289SOL    HW116680   7.603   1.584   2.522 -0.1853  0.7751 -0.0238
 5289SOL    HW216681   7.626   1.461   2.607 -0.1741  0.0865 -1.0220
 5290SOL     OW16682   7.925   6.912   6.452  0.1071  0.4507 -0.4210
 5290SOL    HW116683   8.012   6.900   6.489 -0.1059  0.4743  0.0924
 5290SOL    HW216684   7.932   6.878   6.363  1.2314  2.5517 -1.1466
 5291SOL     OW16685   0.970   3.552   3.080 -0.0669 -0.6647  0.1463
 5291SOL    HW116686   0.903   3.543   3.012  0.7035  1.8438 -0.9851
 5291SOL    HW216687   0.966   3.644   3.106  2.0171 -0.7878  1.0259
 5292SOL     OW16688   2.031   4.604   4.779 -0.0814  0.1419 -0.1597
 5292SOL    HW116689   2.103   4.543   4.793  1.0807  1.5705  0.3051
 5292SOL    HW216690   2.052   4.679   4.836 -0.5871  1.6960 -1.9671
 5293SOL     OW16691   6.325   2.494   6.110  0.1618 -0.2559 -0.7580
 5293SOL    HW116692   6.392   2.439   6.149  1.3317  1.7153  0.0982
 5293SOL    HW216693   6.315   2.568   6.170 -3.0984 -0.7066 -0.6623
 5294SOL     OW16694   4.759   4.114   7.707  0.1122  0.3162  0.2007
 5294SOL    HW116695   4.846   4.149   7.685  0.1647  0.4682  0.6446
 5294SOL    HW216696   4.775   4.057   7.782  0.2400 -1.7083 -1.3281
 5295SOL     OW16697   5.241   4.873   5.700  0.0546  0.4592 -0.3532
 5295SOL    HW116698   5.274   4.788   5.731 -2.4875 -0.8679 -1.1207
 5295SOL    HW216699   5.301   4.937   5.738  2.1527 -1.6811  0.0995
 5296SOL     OW16700   0.468   0.254   6.071  0.4263  0.9241  0.3131
 5296SOL    HW116701   0.512   0.245   5.987 -1.4740  0.1929 -0.6397
 5296SOL    HW216702   0.501   0.181   6.124  0.2752  0.3150 -0.4282
 5297SOL     OW16703   0.988   3.415   2.094  0.4430 -0.0342  0.4220
 5297SOL    HW116704   0.950   3.361   2.024  0.1614  1.5478 -0.6695
 5297SOL    HW216705   1.066   3.366   2.121 -0.2886 -1.4203  0.0517
 5298SOL     OW16706   6.967   5.052   5.969  0.3139 -0.0362  0.7064
 5298SOL    HW116707   7.041   5.065   5.911  1.5221 -1.3914  1.9186
 5298SOL    HW216708   6.890   5.057   5.912  1.2516  2.4438 -0.3965
 5299SOL     OW16709   1.607   7.531   1.625 -0.2891 -0.7575  0.0112
 5299SOL    HW116710   1.599   7.436   1.633  1.0564 -0.9494 -0.7417
 5299SOL    HW216711   1.518   7.564   1.638 -0.5786 -2.0256  1.3939
 5300SOL     OW16712   5.181   4.510   4.105 -0.0931  0.6445 -0.1207
 5300SOL    HW116713   5.149   4.576   4.167  0.3458 -0.4241  1.2774
 5300SOL    HW216714   5.122   4.436   4.118  0.6863  0.0139 -0.1967
 5301SOL     OW16715   5.779   6.406   5.191 -0.4507 -0.0102  0.6341
 5301SOL    HW116716   5.789   6.323   5.237 -3.4691  0.4661  2.3257
 5301SOL    HW216717   5.757   6.469   5.260 -1.4766  1.4859 -0.9983
 5302SOL     OW16718   5.305   1.550   6.682  0.2469  0.2519  0.3310
 5302SOL    HW116719   5.218   1.532   6.645 -0.0792  2.2861 -0.0005
 5302SOL    HW216720   5.356   1.583   6.607  1.3125 -0.9332  0.5268
 5303SOL     OW16721   6.975   7.528   2.181  0.5916  0.2423 -0.0907
 5303SOL    HW116722   7.066   7.527   2.212  0.1526 -0.0984  1.2419
 5303SOL    HW216723   6.964   7.444   2.136  0.4207 -0.5052  1.3293
 5304SOL     OW16724   4.493   4.113   3.673 -0.1327  0.6497  0.0453
 5304SOL    HW116725   4.460   4.043   3.617 -0.5687  0.2918  0.7499
 5304SOL    HW216726   4.416   4.167   3.692  0.0573  0.8933  0.1264
 5305SOL     OW16727   2.653   4.505   1.677  0.2035 -0.1835  0.8878
 5305SOL    HW116728   2.712   4.573   1.707  0.8314 -0.1620 -0.3492
 5305SOL    HW216729   2.569   4.525   1.718  0.0618  2.0446 -0.4309
 5306SOL     OW16730   7.541   4.794   4.293  0.0210 -0.3357 -0.0987
 5306SOL    HW116731   7.591   4.805   4.213  0.4860 -0.5105  0.1627
 5306SOL    HW216732   7.591   4.729   4.344 -0.5098 -0.5724  0.1291
 5307SOL     OW16733   0.098   0.961   5.788  0.3655  0.1611 -0.0405
 5307SOL    HW116734   0.027   0.906   5.757  1.1575 -1.1885  0.4873
 5307SOL    HW216735   0.056   1.024   5.847 -0.6896  0.8084 -1.4676
 5308SOL     OW16736   1.978   2.222   6.670 -0.5170 -0.1861 -0.6785
 5308SOL    HW116737   1.976   2.248   6.577  0.9236  1.5881 -0.2400
 5308SOL    HW216738   1.915   2.149   6.675  0.3092 -1.1637 -3.2966
 5309SOL     OW16739   1.895   3.949   3.143 -0.0970 -0.1483  0.0769
 5309SOL    HW116740   1.859   4.001   3.216  0.4291  0.3804 -0.0342
 5309SOL    HW216741   1.990   3.960   3.150 -0.0233 -0.4231 -0.4494
 5310SOL     OW16742   5.996   6.671   6.654 -0.0363  0.7245 -0.0008
 5310SOL    HW116743   6.062   6.736   6.678  0.2195  0.5673 -0.2763
 5310SOL    HW216744   6.017   6.594   6.706  0.2139  0.5535 -0.3526
 5311SOL     OW16745   4.181   1.358   2.797  0.5678  0.2132  0.7518
 5311SOL    HW116746   4.101   1.313   2.823 -0.0182  0.4763 -0.5070
 5311SOL    HW216747   4.150   1.427   2.737  1.4734  2.0424  2.3462
 5312SOL     OW16748   2.014   3.070   0.994  0.3826  0.0051 -0.4175
 5312SOL    HW116749   2.020   2.986   0.948  1.0639 -0.1090 -0.1206
 5312SOL    HW216750   2.100   3.110   0.983  0.2034  0.4684 -0.1652
 5313SOL     OW16751   1.240   4.011   4.922  0.8771 -0.0552  0.0855
 5313SOL    HW116752   1.297   4.073   4.968 -0.2816  1.0427  0.0523
 5313SOL    HW216753   1.213   4.058   4.843 -1.6709  0.2222  1.0614
 5314SOL     OW16754   7.160   7.437   7.895  0.3155  0.2255  0.0266
 5314SOL    HW116755   7.176   7.373   7.826 -0.4894 -0.0648  0.1035
 5314SOL    HW216756   7.238   7.433   7.951 -0.0081 -1.1633  0.3969
 5315SOL     OW16757   2.161   4.895   1.495 -0.2935  0.0181  0.1976
 5315SOL    HW116758   2.127   4.864   1.412  0.0602  0.1778 -0.0075
 5315SOL    HW216759   2.190   4.816   1.540  1.4204  0.1332 -0.6906
 5316SOL     OW16760   5.321   4.761   3.939  0.1624 -0.3377  0.2475
 5316SOL    HW116761   5.246   4.793   3.990  0.4770  0.8750 -0.0300
 5316SOL    HW216762   5.344   4.835   3.883  0.4408 -1.3275 -0.9516
 5317SOL     OW16763   6.319   2.794   0.480 -0.2717  0.8199 -0.0097
 5317SOL    HW116764   6.413   2.812   0.478 -0.1228  0.0256 -0.2828
 5317SOL    HW216765   6.312   2.701   0.459 -1.1501  0.9966 -0.5180
 5318SOL     OW16766   7.648   4.399   1.912  0.2505 -0.1946  0.1674
 5318SOL    HW116767   7.712   4.465   1.937  1.0250  0.0234 -2.2878
 5318SOL    HW216768   7.618   4.426   1.826  0.6770 -3.0966 -0.9351
 5319SOL     OW16769   2.976   2.129   5.845  0.3285 -0.0870 -0.4897
 5319SOL    HW116770   2.958   2.222   5.854  0.3346 -0.1943  0.7806
 5319SOL    HW216771   2.909   2.096   5.785 -1.7264  0.1247  1.6027
 5320SOL     OW16772   0.757   4.275   7.575  0.1898  0.1749 -0.3788
 5320SOL    HW116773   0.728   4.364   7.554  3.1481  0.7850 -2.0536
 5320SOL    HW216774   0.844   4.286   7.613 -0.5547 -1.8377  2.0805
 5321SOL     OW16775   1.961   4.107   4.195  0.0010 -0.0150 -0.5895
 5321SOL    HW116776   1.894   4.172   4.176 -0.3056  0.8434  3.0482
 5321SOL    HW216777   2.032   4.126   4.133 -1.3352  1.7763 -1.6177
 5322SOL     OW16778   3.104   5.180   4.882  0.1445  0.0514  0.1394
 5322SOL    HW116779   3.139   5.261   4.918 -1.1241  0.4151  0.5680
 5322SOL    HW216780   3.026   5.206   4.834  0.4545 -0.7561 -0.8239
 5323SOL     OW16781   7.418   4.997   0.364  0.2505 -0.1506  0.2378
 5323SOL    HW116782   7.396   5.014   0.272  0.0265 -1.3136  0.0630
 5323SOL    HW216783   7.475   4.919   0.361 -0.2271 -0.5422  1.1233
 5324SOL     OW16784   7.947   0.948   7.491  0.2377  0.2403  0.2777
 5324SOL    HW116785   7.894   0.879   7.451 -0.3202  0.3917  0.7315
 5324SOL    HW216786   8.004   0.979   7.421  0.2672 -0.4633 -0.0128
 5325SOL     OW16787   2.644   5.301   0.264  0.1087  0.1154 -0.5789
 5325SOL    HW116788   2.701   5.336   0.195  0.8664  0.4221  0.1996
 5325SOL    HW216789   2.600   5.226   0.223  2.0794 -0.9543 -0.7722
 5326SOL     OW16790   7.910   7.240   7.448  0.1022 -0.5240  0.1770
 5326SOL    HW116791   7.864   7.276   7.372  0.6409  0.3803  0.2760
 5326SOL    HW216792   7.861   7.273   7.523  0.4852 -0.1546  0.2631
 5327SOL     OW16793   1.425   7.016   7.557 -0.2950 -0.0327 -0.7384
 5327SOL    HW116794   1.365   7.002   7.484  2.5404 -0.8090 -2.9857
 5327SOL    HW216795   1.451   6.928   7.583  0.3458  0.3202 -0.1812
 5328SOL     OW16796   2.586   3.518   0.665  0.5892 -0.6112  0.3326
 5328SOL    HW116797   2.616   3.599   0.707  0.8433  0.1993 -1.3876
 5328SOL    HW216798   2.510   3.491   0.717 -0.7878  1.8860 -0.3346
 5329SOL     OW16799   1.645   4.179   5.168  0.4393 -0.4446 -0.3580
 5329SOL    HW116800   1.689   4.119   5.106 -1.0966 -1.7928 -0.1808
 5329SOL    HW216801   1.558   4.191   5.131  0.6815  1.5896 -0.2895
 5330SOL     OW16802   3.088   6.806   3.377  0.3696  0.3395  0.0984
 5330SOL    HW116803   3.167   6.859   3.363 -0.1620  0.3784 -3.2058
 5330SOL    HW216804   3.092   6.739   3.308 -2.2515  0.0570  0.1778
 5331SOL     OW16805   2.002   4.996   7.275 -0.0757  0.3574 -0.2112
 5331SOL    HW116806   1.976   5.066   7.335  0.2412 -0.5193  0.9489
 5331SOL    HW216807   1.997   4.916   7.327  0.7789 -0.3366 -1.1812
 5332SOL     OW16808   3.591   2.721   4.292 -0.3286 -0.4716 -0.0807
 5332SOL    HW116809   3.643   2.749   4.367  1.4279 -0.4190 -1.2881
 5332SOL    HW216810   3.502   2.717   4.326  0.2454  0.7106  1.6911
 5333SOL     OW16811   4.281   6.065   0.094  0.2906  0.1194 -0.1509
 5333SOL    HW116812   4.371   6.076   0.126  0.7208  1.0619 -1.6058
 5333SOL    HW216813   4.257   6.151   0.061 -1.2347 -0.0836  0.3981
 5334SOL     OW16814   5.732   6.641   1.037  0.0795  0.2911 -0.0004
 5334SOL    HW116815   5.777   6.725   1.039  0.9555 -0.1870  0.4120
 5334SOL    HW216816   5.795   6.578   1.073  0.1557 -0.8937 -2.1237
 5335SOL     OW16817   6.211   2.506   2.108 -0.6360  0.5083 -0.0206
 5335SOL    HW116818   6.129   2.523   2.155 -1.2347 -1.6085 -0.2500
 5335SOL    HW216819   6.185   2.454   2.031  0.8160  0.5051 -0.5356
 5336SOL     OW16820   2.118   0.006   2.988  0.1293  0.3429 -0.0374
 5336SOL    HW116821   2.176   0.082   2.996 -0.5954  0.7663  1.4636
 5336SOL    HW216822   2.133  -0.044   3.068  1.4175 -1.7158 -1.5173
 5337SOL     OW16823   2.114   4.689   3.618  0.4079 -0.2011 -0.0973
 5337SOL    HW116824   2.193   4.678   3.671 -0.2808 -0.2329  0.9331
 5337SOL    HW216825   2.096   4.603   3.582  0.9166 -0.1657 -0.4388
 5338SOL     OW16826   0.069   1.155   6.412  0.5925 -0.3500 -0.5960
 5338SOL    HW116827   0.163   1.152   6.392  0.1670 -0.2920 -2.7057
 5338SOL    HW216828   0.051   1.071   6.454  1.7673  0.0243  0.7121
 5339SOL     OW16829   5.799   3.518   2.547  0.0477 -0.3028  0.2505
 5339SOL    HW116830   5.768   3.594   2.497  0.6757  0.7731  1.4562
 5339SOL    HW216831   5.837   3.556   2.626 -1.0912 -1.9593  1.6400
 5340SOL     OW16832   5.478   3.359   1.349  0.0737 -0.3299  0.0764
 5340SOL    HW116833   5.447   3.341   1.438  0.2472  0.6360  0.3357
 5340SOL    HW216834   5.553   3.417   1.361 -0.1896  0.1854 -0.7240
 5341SOL     OW16835   5.436   5.950   2.116  0.4759 -0.2864 -0.6432
 5341SOL    HW116836   5.342   5.946   2.095  0.4088  0.4770 -0.5089
 5341SOL    HW216837   5.444   5.901   2.197  0.2949 -0.9094 -1.0029
 5342SOL     OW16838   2.345   4.375   2.164 -0.3604  0.2485  0.1611
 5342SOL    HW116839   2.342   4.393   2.258  1.0712 -0.0972  0.2886
 5342SOL    HW216840   2.318   4.284   2.156 -2.2235  0.7796  0.0439
 5343SOL     OW16841   5.014   7.732   2.402  0.4891 -0.2081 -0.1188
 5343SOL    HW116842   5.108   7.744   2.406  0.6377 -1.5205  0.8039
 5343SOL    HW216843   4.994   7.727   2.309  1.2723  0.4355 -0.3257
 5344SOL     OW16844   7.307   7.598   1.836 -0.5176  0.1007  0.4803
 5344SOL    HW116845   7.335   7.689   1.823 -0.5529  0.0575  0.0946
 5344SOL    HW216846   7.267   7.597   1.923  1.1436  0.0550  1.2785
 5345SOL     OW16847   6.013   5.292   6.986 -0.4803  0.3136 -0.1761
 5345SOL    HW116848   6.041   5.203   7.009 -0.8724 -0.3765 -2.2509
 5345SOL    HW216849   5.926   5.300   7.025 -0.6373 -0.3942 -0.3643
 5346SOL     OW16850   3.400   0.712   3.384 -0.0055  0.1536 -0.3435
 5346SOL    HW116851   3.429   0.758   3.462 -0.8526 -1.2009  0.7983
 5346SOL    HW216852   3.381   0.781   3.320 -0.4184  1.3177  1.0253
 5347SOL     OW16853   0.785   6.719   0.588  0.5517  0.8120  0.1523
 5347SOL    HW116854   0.824   6.634   0.608  0.7320  1.0898  1.0457
 5347SOL    HW216855   0.762   6.715   0.496 -0.7959 -0.7569  0.5465
 5348SOL     OW16856   4.000   0.155   7.883  0.5242  0.3954 -0.5409
 5348SOL    HW116857   3.930   0.104   7.925 -1.0465  0.5325 -2.9437
 5348SOL    HW216858   4.076   0.097   7.886 -0.5587 -1.0643 -0.8925
 5349SOL     OW16859   4.300   3.630   2.341 -0.5159  0.2100  0.0511
 5349SOL    HW116860   4.221   3.613   2.391  0.1455 -1.0573  0.6923
 5349SOL    HW216861   4.336   3.711   2.378 -0.1516 -0.5930  1.4850
 5350SOL     OW16862   5.614   5.930   1.309 -0.0606 -0.1081  0.1842
 5350SOL    HW116863   5.546   5.991   1.282 -0.0440 -0.7085 -1.2505
 5350SOL    HW216864   5.574   5.880   1.380 -1.1538 -0.4982 -0.6847
 5351SOL     OW16865   6.712   0.779   0.259  0.2584 -0.4969  0.1713
 5351SOL    HW116866   6.760   0.815   0.333  0.0346  0.2193 -0.0299
 5351SOL    HW216867   6.753   0.818   0.182 -0.5855  0.0410 -0.0063
 5352SOL     OW16868   2.786   0.796   7.306 -0.3670 -0.3547  0.2478
 5352SOL    HW116869   2.790   0.852   7.383 -0.4272 -0.1840  0.1282
 5352SOL    HW216870   2.802   0.708   7.339 -0.8928 -0.3479  0.5292
 5353SOL     OW16871   5.513   2.597   7.891 -0.7174  0.0367  0.1497
 5353SOL    HW116872   5.462   2.672   7.860  0.4630 -0.1006 -2.2037
 5353SOL    HW216873   5.599   2.633   7.912 -0.0345 -0.7151 -1.3293
 5354SOL     OW16874   2.887   0.791   3.622 -0.2804  0.3099 -0.0081
 5354SOL    HW116875   2.906   0.772   3.713 -2.3931 -3.5923 -0.2915
 5354SOL    HW216876   2.829   0.867   3.624  2.0993  2.1415  1.6559
 5355SOL     OW16877   1.256   2.157   3.925 -0.5837 -0.0226 -0.3722
 5355SOL    HW116878   1.306   2.225   3.969 -0.1594 -0.4196 -0.2281
 5355SOL    HW216879   1.192   2.127   3.990  0.2148 -0.7915  0.0813
 5356SOL     OW16880   0.067   5.071   1.412 -0.7452 -0.4168 -0.0779
 5356SOL    HW116881   0.094   5.063   1.503 -0.0885  0.1187 -0.2221
 5356SOL    HW216882  -0.025   5.045   1.412 -0.8861  0.0447  0.8218
 5357SOL     OW16883   5.321   1.207   0.187 -0.4980  0.4478 -0.7765
 5357SOL    HW116884   5.263   1.178   0.118 -1.2416  0.0269  0.0181
 5357SOL    HW216885   5.284   1.170   0.267  3.2431 -3.5019 -0.7329
 5358SOL     OW16886   5.913   0.523   1.648  0.4628  0.1941 -0.5474
 5358SOL    HW116887   5.911   0.480   1.734 -0.5400 -0.8236 -1.0672
 5358SOL    HW216888   6.000   0.505   1.614  0.9266  0.7384  0.3083
 5359SOL     OW16889   0.551   4.408   1.408  0.0263  0.0602 -0.5509
 5359SOL    HW116890   0.515   4.390   1.321  1.3299  0.6286 -1.2232
 5359SOL    HW216891   0.580   4.498   1.403 -0.4341  0.2827  0.6834
 5360SOL     OW16892   5.986   2.828   6.773 -0.2728  0.0742 -0.1659
 5360SOL    HW116893   5.912   2.857   6.826 -0.5801 -0.9468 -0.0134
 5360SOL    HW216894   5.956   2.836   6.683 -0.0581  1.0086 -0.1495
 5361SOL     OW16895   6.288   6.682   0.938 -0.1460  0.4362  0.5244
 5361SOL    HW116896   6.356   6.749   0.929 -0.2205  0.5232  0.5961
 5361SOL    HW216897   6.296   6.654   1.029 -0.8829  1.1815  0.8210
 5362SOL     OW16898   1.674   1.058   0.067  0.2463  0.2566  0.0231
 5362SOL    HW116899   1.751   1.022   0.110 -0.5499 -2.4019 -0.6624
 5362SOL    HW216900   1.629   1.107   0.136  1.7932  0.5909  0.7968
 5363SOL     OW16901   2.950   2.300   2.203 -0.1113 -0.1419  0.2188
 5363SOL    HW116902   2.894   2.336   2.272 -1.4371 -0.2594 -0.7552
 5363SOL    HW216903   2.888   2.260   2.141  1.2195 -2.8242  0.5499
 5364SOL     OW16904   3.703   7.018   2.829  0.4598 -0.5912 -0.4419
 5364SOL    HW116905   3.790   7.057   2.837 -0.4593  1.3781  0.0879
 5364SOL    HW216906   3.689   7.011   2.734  0.8513 -0.1560 -0.5353
 5365SOL     OW16907   3.188   7.766   1.416 -0.4912 -0.1204 -0.2696
 5365SOL    HW116908   3.223   7.687   1.458  0.3682  0.2559 -0.2818
 5365SOL    HW216909   3.259   7.830   1.421 -1.2790  0.7447 -0.0293
 5366SOL     OW16910   0.617   3.075   0.558 -0.5825 -0.1329  0.3047
 5366SOL    HW116911   0.584   2.995   0.597  0.3815 -0.8240 -0.2746
 5366SOL    HW216912   0.679   3.045   0.492  0.0922  1.1041  0.3733
 5367SOL     OW16913   6.636   4.801   4.910  0.0775 -0.3337  0.0037
 5367SOL    HW116914   6.648   4.884   4.957  1.5811 -1.6550  2.0177
 5367SOL    HW216915   6.723   4.778   4.878 -0.4592 -0.7952 -1.1732
 5368SOL     OW16916   3.011   3.106   3.039 -0.0267 -0.3729 -0.3301
 5368SOL    HW116917   2.945   3.111   2.969  0.0145 -1.0573 -0.4208
 5368SOL    HW216918   2.960   3.105   3.120 -0.0512  1.1762 -0.3054
 5369SOL     OW16919   7.196   4.407   4.106 -0.0393  0.0971 -0.1263
 5369SOL    HW116920   7.173   4.500   4.109  1.2557  0.4068  0.2344
 5369SOL    HW216921   7.188   4.383   4.013 -3.9899 -0.3840  0.2203
 5370SOL     OW16922   5.340   5.008   3.816 -0.0986 -0.1144  0.1160
 5370SOL    HW116923   5.331   5.041   3.726  1.2764 -0.3052 -0.1099
 5370SOL    HW216924   5.424   5.043   3.846  0.8279 -2.3866  0.3040
 5371SOL     OW16925   0.684   2.522   5.570  0.4529 -0.5712  0.4983
 5371SOL    HW116926   0.644   2.561   5.649  1.5994  0.1560  0.7289
 5371SOL    HW216927   0.686   2.428   5.588 -2.1118 -0.7489  0.0444
 5372SOL     OW16928   4.601   2.769   7.889 -0.1967  0.1710  0.6514
 5372SOL    HW116929   4.646   2.699   7.936  0.7842 -1.2535 -2.3015
 5372SOL    HW216930   4.670   2.832   7.868 -0.5148  0.4897  0.5546
 5373SOL     OW16931   7.909   3.590   3.973 -0.1244  0.0945 -0.2763
 5373SOL    HW116932   7.931   3.505   4.012  0.7401  0.5215  0.1821
 5373SOL    HW216933   7.993   3.636   3.968 -0.3833  0.4404 -1.7056
 5374SOL     OW16934   1.879   6.118   5.234 -0.2900  0.7415 -0.8169
 5374SOL    HW116935   1.815   6.107   5.164 -2.8894  0.6769  1.4659
 5374SOL    HW216936   1.876   6.036   5.283  0.6938  1.1790 -0.0049
 5375SOL     OW16937   4.894   1.505   6.022 -0.0163  0.0987 -0.4187
 5375SOL    HW116938   4.814   1.496   6.074  0.8878 -2.3471  0.6408
 5375SOL    HW216939   4.879   1.449   5.946  0.1234  0.7861 -0.9579
 5376SOL     OW16940   7.841   5.743   1.914 -0.0300  0.2114  0.1708
 5376SOL    HW116941   7.887   5.754   1.997  1.0279 -1.9937 -0.0746
 5376SOL    HW216942   7.910   5.751   1.847 -0.2393 -1.6119 -0.2849
 5377SOL     OW16943   4.877   0.173   1.160  0.3513  0.2196  0.4530
 5377SOL    HW116944   4.936   0.247   1.144  2.0569 -1.0282  0.7876
 5377SOL    HW216945   4.930   0.111   1.211 -0.7666 -1.5875 -0.5341
 5378SOL     OW16946   3.875   4.763   4.309 -0.2584  0.6104  0.0518
 5378SOL    HW116947   3.793   4.811   4.300  0.8401  2.3760 -0.7137
 5378SOL    HW216948   3.936   4.808   4.251  1.5654  0.0019  1.4463
 5379SOL     OW16949   2.799   6.416   3.901 -0.1613  0.0813 -0.3583
 5379SOL    HW116950   2.889   6.436   3.873  0.0269  0.0587  0.2138
 5379SOL    HW216951   2.799   6.322   3.917 -0.2133  0.1233 -0.1063
 5380SOL     OW16952   7.553   7.298   6.674  0.5062 -0.1854 -0.4598
 5380SOL    HW116953   7.629   7.334   6.629  0.1898  0.8203 -0.2059
 5380SOL    HW216954   7.529   7.220   6.624 -0.1949  1.2156 -2.3847
 5381SOL     OW16955   4.384   1.639   6.620 -0.7252 -0.3553  0.5080
 5381SOL    HW116956   4.341   1.675   6.697 -0.2961  0.3387  0.4337
 5381SOL    HW216957   4.474   1.624   6.648 -0.8599 -1.1974  0.4801
 5382SOL     OW16958   4.840   1.328   3.497  0.0512  0.6500  0.0296
 5382SOL    HW116959   4.802   1.244   3.469  1.4968  0.5955 -1.9631
 5382SOL    HW216960   4.864   1.371   3.415  0.3163  2.5474  1.0857
 5383SOL     OW16961   3.699   2.886   3.841 -0.0758 -0.1379  0.1480
 5383SOL    HW116962   3.659   2.839   3.915  0.8131  0.2669  0.8973
 5383SOL    HW216963   3.791   2.859   3.842  0.4668  1.6451  0.6195
 5384SOL     OW16964   0.584   6.268   2.604 -0.3658  0.0748  0.1277
 5384SOL    HW116965   0.525   6.214   2.658 -0.0038 -0.7758 -0.3257
 5384SOL    HW216966   0.668   6.264   2.649  0.0593 -1.0268 -0.7529
 5385SOL     OW16967   3.380   1.196   2.566  0.1956 -0.2617  0.5811
 5385SOL    HW116968   3.392   1.116   2.516 -0.9038 -0.0471 -0.0471
 5385SOL    HW216969   3.286   1.200   2.583  0.4170  0.2115  1.7518
 5386SOL     OW16970   4.326   7.829   5.030 -0.4429  0.3685 -0.2741
 5386SOL    HW116971   4.390   7.900   5.029  0.3698 -0.3598 -1.4270
 5386SOL    HW216972   4.272   7.843   4.953 -0.1772 -0.3413 -0.5972
 5387SOL     OW16973   0.675   2.392   5.318 -0.0115  0.1272 -0.2302
 5387SOL    HW116974   0.693   2.440   5.399 -3.0899  0.0907  0.5188
 5387SOL    HW216975   0.601   2.437   5.278 -0.4988 -1.6940 -1.4666
 5388SOL     OW16976   5.051   1.007   0.279 -0.0071 -0.3210  0.1789
 5388SOL    HW116977   5.095   1.009   0.364  2.0939  0.3589 -0.8876
 5388SOL    HW216978   5.114   0.965   0.220 -1.6290 -1.2454 -0.9561
 5389SOL     OW16979   6.173   2.332   1.895  0.1362  0.1874  0.5170
 5389SOL    HW116980   6.256   2.327   1.847 -0.2902  1.0442 -0.3269
 5389SOL    HW216981   6.105   2.328   1.827 -0.4800  1.0279  1.0633
 5390SOL     OW16982   6.310   5.045   5.195  0.4525 -0.7950 -0.4373
 5390SOL    HW116983   6.339   5.095   5.119 -1.1564 -1.0583 -1.2480
 5390SOL    HW216984   6.271   4.966   5.158  2.8300 -2.6146  0.8232
 5391SOL     OW16985   6.574   5.631   7.700 -0.4714  0.3587 -0.3334
 5391SOL    HW116986   6.641   5.576   7.660 -1.2310  0.4107 -1.6974
 5391SOL    HW216987   6.615   5.718   7.706  0.5395 -0.1997  1.3495
 5392SOL     OW16988   2.413   1.395   7.933  0.3914 -0.4168 -0.1858
 5392SOL    HW116989   2.370   1.386   7.848  0.5622  2.3412 -0.6084
 5392SOL    HW216990   2.503   1.421   7.912  0.1874  1.1592  0.8512
 5393SOL     OW16991   0.974   3.371   5.780 -0.0375 -0.7600 -0.5797
 5393SOL    HW116992   1.027   3.292   5.774  1.0450 -0.1554  0.7599
 5393SOL    HW216993   0.956   3.381   5.874 -1.0157  0.0291 -0.8423
 5394SOL     OW16994   1.209   1.017   2.633 -0.1967 -0.1059  0.1121
 5394SOL    HW116995   1.232   1.088   2.692  0.1189 -0.7708  0.7885
 5394SOL    HW216996   1.121   1.039   2.602 -0.5231  0.0374  1.1335
 5395SOL     OW16997   0.335   4.932   3.386 -0.4514  0.4423 -0.0057
 5395SOL    HW116998   0.376   5.014   3.416  2.3421 -0.4656 -1.1626
 5395SOL    HW216999   0.321   4.881   3.466  0.1244  1.0271  0.4762
 5396SOL     OW17000   3.242   4.886   0.495  0.7491  0.0252 -0.0605
 5396SOL    HW117001   3.292   4.807   0.514  0.1684 -0.4126 -0.3557
 5396SOL    HW217002   3.262   4.906   0.404 -0.5673 -0.8546 -0.5606
 5397SOL     OW17003   6.630   6.929   4.075  0.2629 -0.2107 -0.6829
 5397SOL    HW117004   6.552   6.926   4.130  0.8938  2.3291  0.4431
 5397SOL    HW217005   6.596   6.935   3.986 -0.8718  1.4688 -0.1715
 5398SOL     OW17006   1.735   3.604   2.675 -0.0669  0.0167  0.3839
 5398SOL    HW117007   1.661   3.592   2.615  0.2829 -2.0204  0.3154
 5398SOL    HW217008   1.808   3.558   2.633  0.3393 -0.9380  2.0793
 5399SOL     OW17009   3.462   1.785   0.314 -0.0735 -0.1979 -0.6975
 5399SOL    HW117010   3.402   1.734   0.368  0.5877  0.9746  1.1617
 5399SOL    HW217011   3.413   1.865   0.293 -0.0025 -0.2656 -1.1361
 5400SOL     OW17012   5.920   2.337   7.410 -0.1856  0.3614  0.6206
 5400SOL    HW117013   5.864   2.408   7.443  0.7174  0.2705  2.3983
 5400SOL    HW217014   5.859   2.275   7.369 -1.4290  0.1460  2.7302
 5401SOL     OW17015   7.723   7.946   7.585  0.0377  0.1523 -0.6161
 5401SOL    HW117016   7.737   8.028   7.536 -0.1700  0.7738  0.3554
 5401SOL    HW217017   7.632   7.950   7.614  0.5518  0.4576  1.0177
 5402SOL     OW17018   6.416   6.657   3.331 -0.3042 -0.3030 -0.3542
 5402SOL    HW117019   6.327   6.675   3.301 -0.4090  0.1598  0.2137
 5402SOL    HW217020   6.471   6.718   3.282 -0.5438  0.8848  0.8246
 5403SOL     OW17021   1.646   7.140   7.708 -0.3695  0.8405  0.2013
 5403SOL    HW117022   1.682   7.053   7.724  0.3664  1.1701  0.3407
 5403SOL    HW217023   1.551   7.126   7.703 -0.1729 -0.1838 -1.1160
 5404SOL     OW17024   3.918   6.722   4.334 -0.2646  0.6229 -0.1633
 5404SOL    HW117025   3.969   6.651   4.296  1.6417  1.7984  0.0890
 5404SOL    HW217026   3.873   6.763   4.260  1.2889  1.2305 -0.7857
 5405SOL     OW17027   2.458   5.721   3.649 -0.6509  0.1646 -0.1371
 5405SOL    HW117028   2.410   5.734   3.731 -1.9393 -1.0029 -0.6868
 5405SOL    HW217029   2.487   5.809   3.625 -2.4194  0.8981  0.2931
 5406SOL     OW17030   1.172   4.327   2.172 -1.1033  0.3418 -0.1499
 5406SOL    HW117031   1.213   4.272   2.239  0.6844  0.3438 -1.1999
 5406SOL    HW217032   1.145   4.406   2.219 -3.2520 -1.1723  1.2760
 5407SOL     OW17033   6.071   5.782   4.029  0.0881  0.0854 -0.2642
 5407SOL    HW117034   6.037   5.757   3.942 -0.3125 -0.3844  0.0248
 5407SOL    HW217035   6.133   5.852   4.011 -0.3355  0.3066 -0.8927
 5408SOL     OW17036   6.023   7.430   5.617  0.6970 -0.4995  0.2553
 5408SOL    HW117037   6.041   7.481   5.538 -0.9954 -1.3801 -0.7512
 5408SOL    HW217038   6.056   7.484   5.689  2.4266  0.2428 -1.0552
 5409SOL     OW17039   1.377   3.584   2.967 -0.7301 -0.0758  0.1772
 5409SOL    HW117040   1.352   3.676   2.980 -1.6761 -0.3978  0.6769
 5409SOL    HW217041   1.321   3.554   2.896 -0.4300 -0.2714  0.0245
 5410SOL     OW17042   1.923   7.366   2.664 -0.0136  0.0040 -0.1464
 5410SOL    HW117043   1.885   7.278   2.654 -0.6856  0.2891 -0.1672
 5410SOL    HW217044   1.847   7.425   2.663  0.5221  0.7214 -1.7808
 5411SOL     OW17045   0.241   2.379   6.921 -0.0313  0.3111 -0.5744
 5411SOL    HW117046   0.186   2.370   6.999 -1.9172  4.2317 -1.3476
 5411SOL    HW217047   0.226   2.298   6.872 -0.4333 -1.3001  2.0767
 5412SOL     OW17048   2.501   4.557   7.808 -0.7588 -0.3576 -0.2456
 5412SOL    HW117049   2.444   4.494   7.853  0.7065 -1.5754 -0.0685
 5412SOL    HW217050   2.481   4.641   7.849 -0.4177 -1.2254  1.7520
 5413SOL     OW17051   7.926   4.132   3.962  0.0296 -0.0138  0.3978
 5413SOL    HW117052   8.021   4.138   3.950  0.1623 -0.8699  0.9851
 5413SOL    HW217053   7.890   4.151   3.875  0.8284 -1.7982 -0.3501
 5414SOL     OW17054   4.328   5.347   3.292  0.1466  0.0815  0.3168
 5414SOL    HW117055   4.240   5.376   3.316  0.4139  1.1217  0.0592
 5414SOL    HW217056   4.385   5.393   3.353  0.6441  0.8120 -0.6954
 5415SOL     OW17057   2.099   4.109   5.130  0.1252  0.1753 -0.6713
 5415SOL    HW117058   2.137   4.065   5.205  0.6739  1.5299 -0.1270
 5415SOL    HW217059   2.165   4.102   5.061 -0.4819 -1.2840 -1.1254
 5416SOL     OW17060   1.701   7.041   2.695 -0.0815  0.1213 -0.0823
 5416SOL    HW117061   1.702   7.003   2.608 -1.0011  0.4347 -0.2256
 5416SOL    HW217062   1.662   7.127   2.684  0.9103  0.6506  0.4409
 5417SOL     OW17063   4.469   3.385   6.410  0.1923  0.3297  0.1549
 5417SOL    HW117064   4.537   3.450   6.394 -1.2516  1.6407 -0.7549
 5417SOL    HW217065   4.388   3.435   6.420 -0.8055 -1.2574  0.3239
 5418SOL     OW17066   6.092   7.772   3.908 -0.7848 -0.5806 -0.5125
 5418SOL    HW117067   6.116   7.692   3.956  0.5262 -0.5677 -1.1102
 5418SOL    HW217068   6.111   7.843   3.969  0.1723 -0.6100 -0.7571
 5419SOL     OW17069   2.492   7.359   5.156 -0.3012 -0.3900  0.1289
 5419SOL    HW117070   2.468   7.340   5.065 -0.0074 -2.8445  0.5085
 5419SOL    HW217071   2.587   7.365   5.155 -0.4462  1.9575 -0.1220
 5420SOL     OW17072   0.159   1.180   4.839 -0.0815  0.5809 -0.5797
 5420SOL    HW117073   0.120   1.125   4.770  0.8734 -1.4144  0.4121
 5420SOL    HW217074   0.084   1.210   4.891 -0.4706 -2.0767  0.4874
 5421SOL     OW17075   7.405   0.404   7.889  0.2490 -0.1295 -0.5940
 5421SOL    HW117076   7.484   0.390   7.942 -0.6171  3.1371  1.7283
 5421SOL    HW217077   7.334   0.370   7.942 -0.4119  1.3271 -0.5180
 5422SOL     OW17078   1.344   3.926   6.077  0.2344  0.0438 -0.0756
 5422SOL    HW117079   1.327   3.925   6.171 -0.2795  2.4850 -0.1240
 5422SOL    HW217080   1.258   3.941   6.037  0.6019  0.0168 -0.8942
 5423SOL     OW17081   4.524   0.790   5.781  0.2416  0.2677  0.1205
 5423SOL    HW117082   4.537   0.827   5.868  0.7754 -1.6633  0.8856
 5423SOL    HW217083   4.429   0.774   5.775  0.3753 -0.9070  0.9193
 5424SOL     OW17084   3.516   0.237   1.640 -0.0023  0.4287  0.1697
 5424SOL    HW117085   3.557   0.240   1.726  2.0542  2.9326 -0.8203
 5424SOL    HW217086   3.457   0.313   1.638  0.9141  1.1301 -1.0528
 5425SOL     OW17087   7.275   4.787   4.347 -0.0086 -0.5061 -0.2081
 5425SOL    HW117088   7.370   4.791   4.350 -0.0129 -0.3254 -0.2604
 5425SOL    HW217089   7.251   4.844   4.274 -0.2240  0.6538  0.7415
 5426SOL     OW17090   6.642   0.001   1.557 -0.1673  0.0497  0.7536
 5426SOL    HW117091   6.653  -0.001   1.462  1.5463  0.3032  0.9343
 5426SOL    HW217092   6.657   0.092   1.582 -2.3384  0.3338  1.0812
 5427SOL     OW17093   6.033   5.586   7.062  0.4985 -0.2890 -0.0906
 5427SOL    HW117094   6.104   5.600   7.000 -1.0826 -0.6480 -2.0538
 5427SOL    HW217095   6.019   5.492   7.062 -0.5096 -0.1563 -0.3897
 5428SOL     OW17096   2.002   1.514   6.586  0.1302  0.6362 -0.2374
 5428SOL    HW117097   2.072   1.566   6.626  0.5049  0.7480 -1.0350
 5428SOL    HW217098   1.976   1.453   6.656 -0.3371  1.9009  0.7130
 5429SOL     OW17099   6.938   2.839   3.647 -0.4369  0.3723  0.1008
 5429SOL    HW117100   6.891   2.870   3.570 -0.7866 -0.1805  0.0854
 5429SOL    HW217101   6.970   2.752   3.622 -1.3915 -0.2278  0.8996
 5430SOL     OW17102   0.550   1.730   1.456 -0.0925  0.0295 -0.3150
 5430SOL    HW117103   0.641   1.759   1.450  0.0936 -0.4213  0.2773
 5430SOL    HW217104   0.501   1.796   1.406  0.7292 -0.6373 -2.0340
 5431SOL     OW17105   6.925   2.768   3.925  0.3610 -0.0749  0.0853
 5431SOL    HW117106   6.829   2.772   3.917  0.2923 -1.8024 -0.0813
 5431SOL    HW217107   6.957   2.838   3.869 -0.8480  1.2329  1.0008
 5432SOL     OW17108   6.580   0.165   5.527  0.4250 -0.1385  0.1194
 5432SOL    HW117109   6.502   0.140   5.477 -0.2910  0.5473  0.8569
 5432SOL    HW217110   6.581   0.261   5.523 -0.6417  0.0441  2.8236
 5433SOL     OW17111   2.122   4.375   5.489  0.2638 -0.4014  0.4727
 5433SOL    HW117112   2.136   4.434   5.563  1.8506 -0.4152  0.1846
 5433SOL    HW217113   2.188   4.306   5.500 -0.8140 -1.5077  0.1586
 5434SOL     OW17114   3.032   0.221   0.096 -0.2405 -0.2551 -0.2628
 5434SOL    HW117115   3.102   0.224   0.031  0.6354 -0.5193  0.6454
 5434SOL    HW217116   3.005   0.312   0.108 -0.0009 -0.1471 -0.5643
 5435SOL     OW17117   5.252   5.454   3.428  0.0006 -0.3067  0.3146
 5435SOL    HW117118   5.167   5.454   3.384 -0.0001  1.5452  0.2731
 5435SOL    HW217119   5.231   5.464   3.521  0.1331 -0.7621  0.3926
 5436SOL     OW17120   1.525   2.973   1.286  0.3853  0.2100  0.0733
 5436SOL    HW117121   1.524   2.984   1.191 -0.4250  0.1069  0.0739
 5436SOL    HW217122   1.610   3.010   1.313  1.1871 -0.9203 -0.8263
 5437SOL     OW17123   0.798   4.538   7.341 -0.1945  0.5217 -0.5771
 5437SOL    HW117124   0.743   4.552   7.418  0.1862  3.2993 -0.7367
 5437SOL    HW217125   0.830   4.626   7.318  2.1703 -0.6602 -2.0596
 5438SOL     OW17126   7.894   1.385   2.389  0.3133 -0.7860  0.2292
 5438SOL    HW117127   7.839   1.407   2.313  0.8656  0.1004  0.0859
 5438SOL    HW217128   7.927   1.469   2.421  0.0721 -1.1533  1.4738
 5439SOL     OW17129   6.518   0.256   2.230 -0.5139  0.9520 -0.4798
 5439SOL    HW117130   6.480   0.293   2.310  1.4504  0.5252  0.6779
 5439SOL    HW217131   6.446   0.257   2.167 -1.6852  2.6801  0.8348
 5440SOL     OW17132   4.802   5.776   6.568  0.1976 -0.1468 -0.2026
 5440SOL    HW117133   4.812   5.688   6.530  0.6666  0.1403 -0.7541
 5440SOL    HW217134   4.719   5.773   6.615  0.7070 -1.2050  0.6469
 5441SOL     OW17135   7.658   5.750   3.075 -0.4421  0.6003 -0.5783
 5441SOL    HW117136   7.721   5.684   3.101  0.1955  1.1000 -0.8275
 5441SOL    HW217137   7.698   5.833   3.100 -0.3958  1.0097 -1.9309
 5442SOL     OW17138   2.512   7.342   2.330 -0.1814  0.2753  0.4120
 5442SOL    HW117139   2.491   7.435   2.318 -1.2717  0.0995  0.9092
 5442SOL    HW217140   2.607   7.340   2.341 -0.0344  1.2288 -0.6223
 5443SOL     OW17141   6.641   6.053   6.558 -0.9247 -0.1378  0.4813
 5443SOL    HW117142   6.555   6.084   6.529 -0.5117  0.8093  0.2573
 5443SOL    HW217143   6.690   6.133   6.576  0.0180 -0.6698  0.2906
 5444SOL     OW17144   5.008   7.485   5.287  0.4633 -0.4992 -0.0123
 5444SOL    HW117145   5.100   7.513   5.277  0.3162 -0.7938 -2.4340
 5444SOL    HW217146   4.998   7.471   5.381  2.7610  0.0499  0.3573
 5445SOL     OW17147   6.514   6.412   2.758  0.3556 -0.1956 -0.3562
 5445SOL    HW117148   6.581   6.420   2.825  0.5532  0.7245 -0.6523
 5445SOL    HW217149   6.558   6.369   2.685  0.1776 -1.0715  0.0500
 5446SOL     OW17150   5.564   2.272   6.551  0.0626  0.5521 -0.0913
 5446SOL    HW117151   5.587   2.360   6.522 -0.1631  1.1659  1.5479
 5446SOL    HW217152   5.646   2.223   6.548 -0.0628  0.4304 -2.2916
 5447SOL     OW17153   7.482   6.513   1.254  0.2152 -0.1033 -0.8162
 5447SOL    HW117154   7.424   6.469   1.316 -0.1546  2.3800  0.6740
 5447SOL    HW217155   7.432   6.590   1.225  1.3217  0.0469 -2.3788
 5448SOL     OW17156   1.356   2.850   2.659  0.1423  0.1337 -0.7715
 5448SOL    HW117157   1.268   2.870   2.691  0.0734 -1.3032 -0.0326
 5448SOL    HW217158   1.355   2.876   2.567 -1.4895 -1.1639 -1.1305
 5449SOL     OW17159   7.572   6.240   1.649 -0.1079  0.1291 -0.0744
 5449SOL    HW117160   7.566   6.324   1.695  0.6701  0.0298  0.2072
 5449SOL    HW217161   7.605   6.264   1.562 -0.9782  0.2436 -0.3777
 5450SOL     OW17162   4.897   6.143   5.680  0.2084  0.4439  0.1911
 5450SOL    HW117163   4.866   6.066   5.727 -1.7539  0.7416 -0.5689
 5450SOL    HW217164   4.873   6.128   5.589  4.3323 -0.3003 -0.8660
 5451SOL     OW17165   2.307   5.100   5.690 -0.3574 -0.1890  0.5110
 5451SOL    HW117166   2.402   5.103   5.692 -0.3996  2.1418  0.0803
 5451SOL    HW217167   2.279   5.133   5.775 -0.7962 -1.4993  0.8934
 5452SOL     OW17168   0.161   6.827   1.963 -0.0482  0.1492  0.0329
 5452SOL    HW117169   0.205   6.743   1.977 -0.6897  0.0556  1.5381
 5452SOL    HW217170   0.131   6.854   2.050  0.0378  1.8869 -0.4503
 5453SOL     OW17171   1.599   4.294   0.644 -0.5604  0.1946 -0.3800
 5453SOL    HW117172   1.516   4.253   0.667  0.1325 -1.1293 -0.1578
 5453SOL    HW217173   1.639   4.315   0.729  0.7517 -2.1423 -0.3619
 5454SOL     OW17174   4.957   3.456   3.623 -0.5885 -0.2182 -0.7563
 5454SOL    HW117175   4.900   3.394   3.670  0.1506 -1.4525 -1.4486
 5454SOL    HW217176   4.928   3.542   3.652 -0.9614 -0.9214  1.0202
 5455SOL     OW17177   6.544   6.080   3.419  0.2190  0.4248 -0.2756
 5455SOL    HW117178   6.460   6.065   3.463 -0.5214 -0.7707 -2.0071
 5455SOL    HW217179   6.609   6.044   3.478 -0.6112  0.1654  0.4960
 5456SOL     OW17180   5.859   7.899   7.082 -0.4621  0.1210 -0.1560
 5456SOL    HW117181   5.874   7.967   7.015 -1.5507  0.5567  0.0267
 5456SOL    HW217182   5.890   7.818   7.042 -0.0757  0.5697 -0.7651
 5457SOL     OW17183   3.916   5.650   5.106 -0.1483 -0.1073 -0.3674
 5457SOL    HW117184   3.984   5.605   5.055 -0.1365  1.5013 -1.8456
 5457SOL    HW217185   3.875   5.710   5.043 -0.6816  1.3620  1.3346
 5458SOL     OW17186   0.238   6.270   7.083 -0.2427 -0.0350  0.5263
 5458SOL    HW117187   0.219   6.334   7.014  0.4525 -0.0943  0.2734
 5458SOL    HW217188   0.163   6.211   7.082 -0.1950 -0.0908 -0.2533
 5459SOL     OW17189   3.184   6.205   4.226  0.0094  0.3069 -0.1461
 5459SOL    HW117190   3.236   6.191   4.147  0.3300  0.8830 -0.0371
 5459SOL    HW217191   3.248   6.202   4.298 -0.1697  0.5760  0.0238
 5460SOL     OW17192   0.943   3.233   4.339  0.2362 -0.2153 -0.0311
 5460SOL    HW117193   0.942   3.256   4.246 -0.2968  0.4512  0.1326
 5460SOL    HW217194   0.998   3.155   4.344  1.8330  0.8249 -0.6582
 5461SOL     OW17195   5.360   0.978   3.674  0.0216 -0.0238 -0.5471
 5461SOL    HW117196   5.314   1.029   3.607 -0.4325 -0.7703 -0.8086
 5461SOL    HW217197   5.364   0.889   3.638  0.5785 -0.2345  0.0189
 5462SOL     OW17198   1.636   5.944   3.396  0.2661  0.2170  0.1689
 5462SOL    HW117199   1.723   5.925   3.432  0.2719 -0.8413 -0.3835
 5462SOL    HW217200   1.652   6.012   3.331  0.5603  0.5995  0.6300
 5463SOL     OW17201   6.482   3.020   0.057 -0.1974  0.1619  0.5281
 5463SOL    HW117202   6.442   3.098   0.019  0.0119 -0.4970 -1.1055
 5463SOL    HW217203   6.526   2.978  -0.016 -1.2828 -2.1033  1.1182
 5464SOL     OW17204   3.131   4.038   7.030 -0.4912 -0.0443  0.6094
 5464SOL    HW117205   3.157   3.952   6.996  3.1702  0.5431  1.7006
 5464SOL    HW217206   3.138   4.029   7.125  0.5418  1.6021  0.7104
 5465SOL     OW17207   0.938   4.396   1.988  0.3883 -0.4679  0.2168
 5465SOL    HW117208   0.929   4.428   1.898 -0.7986  1.3491  0.9610
 5465SOL    HW217209   0.992   4.462   2.031  0.2666 -0.9107  1.0509
 5466SOL     OW17210   7.618   7.495   3.735 -0.0014  0.5339  0.1865
 5466SOL    HW117211   7.579   7.426   3.681 -0.3136  1.9110 -1.3765
 5466SOL    HW217212   7.712   7.480   3.730 -0.0590  0.3171 -0.2893
 5467SOL     OW17213   2.776   2.684   4.743  0.1814  0.0311  0.0733
 5467SOL    HW117214   2.810   2.746   4.808  0.3630  0.1372 -0.1241
 5467SOL    HW217215   2.684   2.672   4.767  0.2596  0.0353  0.3795
 5468SOL     OW17216   6.180   1.044   3.550 -0.7690  0.0237 -0.1597
 5468SOL    HW117217   6.099   1.064   3.596 -0.5379 -1.0449  0.7276
 5468SOL    HW217218   6.248   1.048   3.617 -0.2450 -0.2316 -0.6706
 5469SOL     OW17219   6.837   5.961   0.530 -0.6896 -0.0195  0.0856
 5469SOL    HW117220   6.819   5.880   0.579 -0.6013  0.3057  0.6652
 5469SOL    HW217221   6.933   5.967   0.527 -0.6954  0.1407  0.1783
 5470SOL     OW17222   5.796   1.717   6.183 -0.4419  0.2571 -0.8850
 5470SOL    HW117223   5.780   1.677   6.097  0.8391 -0.1389 -0.9433
 5470SOL    HW217224   5.883   1.756   6.176  0.1606 -0.7757  0.5937
 5471SOL     OW17225   7.882   1.486   6.241  0.0942 -0.1415  0.4293
 5471SOL    HW117226   7.858   1.545   6.311  0.7151  1.4463 -0.6669
 5471SOL    HW217227   7.879   1.540   6.162  1.9700 -1.2213 -0.4146
 5472SOL     OW17228   4.208   6.847   5.487 -0.2093  0.5695  0.0359
 5472SOL    HW117229   4.297   6.877   5.504 -0.0107  0.3331 -0.5503
 5472SOL    HW217230   4.219   6.774   5.425 -0.8183  0.6643 -0.1886
 5473SOL     OW17231   4.363   7.347   7.251 -0.0246 -0.4221 -0.0853
 5473SOL    HW117232   4.409   7.426   7.280 -1.2059 -0.0133  0.6822
 5473SOL    HW217233   4.401   7.276   7.304 -1.7950  0.2421  2.1140
 5474SOL     OW17234   0.550   2.418   4.820 -0.1943 -0.0433  0.1629
 5474SOL    HW117235   0.549   2.425   4.724 -0.3380 -1.1591  0.0716
 5474SOL    HW217236   0.625   2.470   4.847 -0.4550  0.6978 -0.5272
 5475SOL     OW17237   6.453   3.921   2.508  0.1417  0.2531  0.6635
 5475SOL    HW117238   6.420   3.996   2.458  1.4652  1.4338  1.5391
 5475SOL    HW217239   6.434   3.845   2.453 -1.1612  1.2255 -0.2593
 5476SOL     OW17240   0.201   3.430   3.158 -0.5508 -0.4681  0.0886
 5476SOL    HW117241   0.187   3.342   3.192 -1.0939 -0.5249 -0.2767
 5476SOL    HW217242   0.167   3.427   3.069 -3.0101  0.8236  0.9403
 5477SOL     OW17243   2.244   6.802   0.855 -0.4798 -0.2072 -0.8474
 5477SOL    HW117244   2.316   6.856   0.822  1.7809 -1.9220  1.0044
 5477SOL    HW217245   2.242   6.821   0.949 -0.7931 -2.0204 -0.4707
 5478SOL     OW17246   7.675   0.961   2.549 -0.6295  0.6071 -0.0344
 5478SOL    HW117247   7.588   0.922   2.548 -0.0488 -0.6776 -1.3162
 5478SOL    HW217248   7.663   1.047   2.508 -1.4780  0.8853  0.7678
 5479SOL     OW17249   5.970   2.466   3.896  0.0839  0.5218  0.3886
 5479SOL    HW117250   5.955   2.383   3.852 -1.0193  0.8475  0.1368
 5479SOL    HW217251   5.916   2.461   3.975  0.6165  0.6886  0.7679
 5480SOL     OW17252   4.325   2.556   0.807 -0.0327 -0.4813 -0.2082
 5480SOL    HW117253   4.402   2.512   0.770  1.1994  2.4697 -1.3288
 5480SOL    HW217254   4.356   2.590   0.891  0.4882  2.2508 -1.4554
 5481SOL     OW17255   2.586   2.188   0.549  0.0903 -0.1484  0.0430
 5481SOL    HW117256   2.626   2.137   0.619 -0.2173 -0.9738 -0.3830
 5481SOL    HW217257   2.496   2.201   0.577 -0.3504 -1.4584 -0.7204
 5482SOL     OW17258   7.587   4.873   1.040  0.2823 -0.7554 -0.2913
 5482SOL    HW117259   7.673   4.874   1.083  0.5100 -0.9977 -0.7393
 5482SOL    HW217260   7.529   4.831   1.103  0.3203  0.1079  0.3355
 5483SOL     OW17261   6.217   5.210   5.632  0.1921  0.4626 -0.4120
 5483SOL    HW117262   6.161   5.169   5.699  1.0776  0.1991  0.1805
 5483SOL    HW217263   6.219   5.146   5.561 -1.8307  1.3203 -1.2632
 5484SOL     OW17264   2.871   3.567   1.933  0.9568  0.4374  0.0005
 5484SOL    HW117265   2.918   3.632   1.880  0.6777 -0.2292 -1.0777
 5484SOL    HW217266   2.933   3.544   2.003  1.5249  0.9595 -0.3255
 5485SOL     OW17267   7.602   7.327   2.445  0.3085 -0.0418 -0.4369
 5485SOL    HW117268   7.558   7.326   2.530 -0.4067 -1.2167 -0.8038
 5485SOL    HW217269   7.534   7.305   2.382  0.9224  0.4082 -1.2755
 5486SOL     OW17270   4.263   2.358   4.492 -0.7187  0.1302 -0.7782
 5486SOL    HW117271   4.191   2.295   4.489 -1.1892  0.7179 -2.9709
 5486SOL    HW217272   4.318   2.328   4.564 -0.8858 -2.8470 -1.8157
 5487SOL     OW17273   1.017   4.110   3.715 -0.0455 -0.5732 -0.5619
 5487SOL    HW117274   1.032   4.071   3.802 -1.2534  0.4408  0.1182
 5487SOL    HW217275   1.076   4.062   3.657  0.9217 -1.1362  0.8555
 5488SOL     OW17276   1.817   0.553   1.963  0.1488 -0.5284  0.0521
 5488SOL    HW117277   1.840   0.533   1.873 -0.5428 -0.4673 -0.1397
 5488SOL    HW217278   1.743   0.495   1.983 -0.5978  0.4308  0.1280
 5489SOL     OW17279   1.765   3.798   5.938  0.2145  0.2698  0.0453
 5489SOL    HW117280   1.701   3.865   5.961  0.3964 -0.0952  1.7074
 5489SOL    HW217281   1.812   3.834   5.863  0.4593  2.1113  1.0518
 5490SOL     OW17282   4.041   4.951   2.798 -0.2827 -0.1419 -0.1465
 5490SOL    HW117283   4.128   4.936   2.761 -0.0907 -0.1647  0.3063
 5490SOL    HW217284   4.054   5.020   2.863 -0.4004 -0.9077  0.6968
 5491SOL     OW17285   1.613   4.798   0.749  0.1487 -0.3947  0.0338
 5491SOL    HW117286   1.616   4.872   0.688 -0.2534  0.8081  1.4360
 5491SOL    HW217287   1.521   4.771   0.750  0.1529 -0.4070  0.1175
 5492SOL     OW17288   6.605   6.897   3.795  0.3632 -0.0873  0.1330
 5492SOL    HW117289   6.522   6.931   3.828  1.2722  1.5902  0.7029
 5492SOL    HW217290   6.607   6.806   3.825 -1.1954 -0.0997  0.2424
 5493SOL     OW17291   1.514   3.947   4.993  0.0824 -0.0497 -0.0642
 5493SOL    HW117292   1.429   3.941   4.949 -0.0195  1.5475 -0.1141
 5493SOL    HW217293   1.516   3.873   5.053 -2.0317  0.8014  1.0869
 5494SOL     OW17294   1.245   4.199   2.400  0.6390 -0.1241 -0.0320
 5494SOL    HW117295   1.321   4.172   2.347 -0.4065 -1.1718 -1.0173
 5494SOL    HW217296   1.269   4.177   2.490  1.4674 -0.5354 -0.3500
 5495SOL     OW17297   5.850   6.175   6.303  0.1082  0.0682 -0.3595
 5495SOL    HW117298   5.841   6.145   6.393 -1.8132 -0.4132 -0.6936
 5495SOL    HW217299   5.922   6.122   6.267  0.5176 -0.1115  0.7088
 5496SOL     OW17300   5.306   5.880   7.220 -0.6399 -0.0499  0.4074
 5496SOL    HW117301   5.315   5.950   7.285 -1.2335  0.3885  0.0192
 5496SOL    HW217302   5.245   5.915   7.155 -1.0204 -0.9665  0.2672
 5497SOL     OW17303   5.501   5.338   7.135 -0.1449 -0.0255 -0.1088
 5497SOL    HW117304   5.502   5.294   7.050 -2.8899  1.3593 -0.9347
 5497SOL    HW217305   5.498   5.267   7.199 -0.0730 -1.0860 -1.2600
 5498SOL     OW17306   3.688   2.820   4.807  0.0185 -0.1219  0.8430
 5498SOL    HW117307   3.616   2.838   4.869 -0.6765 -0.4032  0.1219
 5498SOL    HW217308   3.686   2.895   4.747  1.5544  0.8360  1.9358
 5499SOL     OW17309   2.683   4.077   3.799 -0.3469 -0.5032  0.1370
 5499SOL    HW117310   2.692   4.075   3.704  0.2231 -0.1196  0.1806
 5499SOL    HW217311   2.600   4.122   3.815  0.1670  0.5647 -0.1522
 5500SOL     OW17312   2.876   1.731   2.039  0.2186  0.4764  0.0384
 5500SOL    HW117313   2.868   1.751   1.946 -0.1444  0.0168 -0.0307
 5500SOL    HW217314   2.961   1.767   2.064  0.1869  0.8600 -0.4031
 5501SOL     OW17315   1.612   5.275   3.074  0.2441  0.1531  0.6157
 5501SOL    HW117316   1.698   5.273   3.033 -0.8248 -0.7327 -1.6410
 5501SOL    HW217317   1.603   5.190   3.117  0.3183  0.0791  0.4837
 5502SOL     OW17318   7.295   2.926   6.107 -0.9103 -0.3451  0.2981
 5502SOL    HW117319   7.203   2.952   6.103 -0.8152 -0.1743 -1.2341
 5502SOL    HW217320   7.294   2.834   6.130 -1.4782 -0.3866  0.1032
 5503SOL     OW17321   7.256   0.969   3.802 -0.3677 -0.3480 -0.7394
 5503SOL    HW117322   7.271   0.934   3.714 -2.0465 -1.5623 -0.5672
 5503SOL    HW217323   7.165   0.998   3.801 -0.1576  0.3732  0.3581
 5504SOL     OW17324   2.674   3.055   5.869  0.3576 -0.5409 -0.2698
 5504SOL    HW117325   2.608   3.043   5.801  0.3660 -1.1671 -0.1723
 5504SOL    HW217326   2.624   3.067   5.949  0.3605 -0.9077 -0.2126
 5505SOL     OW17327   3.033   5.622   6.910 -0.1845  0.2141  0.2385
 5505SOL    HW117328   3.069   5.663   6.989  0.4433 -1.1518  0.6899
 5505SOL    HW217329   2.941   5.607   6.930 -0.1027  0.1767  0.5973
 5506SOL     OW17330   1.078   3.387   7.385  0.5262  0.5402  0.3046
 5506SOL    HW117331   1.004   3.345   7.429 -0.2389  1.7884  0.2234
 5506SOL    HW217332   1.095   3.331   7.309 -0.7152  0.5599 -0.0052
 5507SOL     OW17333   3.689   6.495   4.866 -0.0695 -0.3946 -0.5895
 5507SOL    HW117334   3.647   6.472   4.949 -0.9857 -1.3898 -1.3093
 5507SOL    HW217335   3.771   6.445   4.865  1.0111  1.2923  0.6676
 5508SOL     OW17336   4.591   3.172   1.191 -0.4742 -0.7632 -0.7603
 5508SOL    HW117337   4.667   3.156   1.136  0.1920  3.2468 -1.2004
 5508SOL    HW217338   4.602   3.114   1.267  1.7451 -1.9563 -1.9651
 5509SOL     OW17339   5.895   3.642   0.533 -0.2342 -0.0863 -0.0329
 5509SOL    HW117340   5.875   3.666   0.443  0.5063  1.7994  0.2970
 5509SOL    HW217341   5.974   3.588   0.526 -2.1732 -2.9567 -0.8106
 5510SOL     OW17342   6.811   6.987   7.229 -0.6653 -0.1354 -0.2905
 5510SOL    HW117343   6.760   7.018   7.154  0.2168  2.3429  0.0880
 5510SOL    HW217344   6.809   7.060   7.291  0.5335 -1.2899  1.1429
 5511SOL     OW17345   4.568   2.394   0.241  0.1640  0.1684  0.2272
 5511SOL    HW117346   4.633   2.324   0.250 -1.3311 -1.1484  1.0211
 5511SOL    HW217347   4.486   2.349   0.223 -1.6939  1.3663  4.9159
 5512SOL     OW17348   6.988   4.896   0.841 -0.3576  0.7247  0.3733
 5512SOL    HW117349   6.960   4.864   0.755  0.7969  0.9532 -0.0918
 5512SOL    HW217350   6.916   4.952   0.870 -1.1672 -0.1029 -0.0211
 5513SOL     OW17351   5.235   3.254   7.541  0.1731  0.6095 -0.1683
 5513SOL    HW117352   5.320   3.246   7.586  1.2367  4.0062 -1.4542
 5513SOL    HW217353   5.257   3.283   7.453 -2.1622 -2.0266 -1.7035
 5514SOL     OW17354   2.698   2.924   3.986 -0.2995  0.3411 -0.1754
 5514SOL    HW117355   2.693   3.019   3.971 -0.1550  0.3129 -0.4137
 5514SOL    HW217356   2.785   2.910   4.023  0.7847 -0.0252 -2.7172
 5515SOL     OW17357   5.692   4.526   5.394  0.0440  0.6190  0.1598
 5515SOL    HW117358   5.650   4.518   5.308 -0.5014  2.0503  0.2802
 5515SOL    HW217359   5.664   4.447   5.441 -0.4546  0.3078 -0.6421
 5516SOL     OW17360   0.105   7.854   0.680  0.4068 -0.5905  0.2788
 5516SOL    HW117361   0.035   7.817   0.734  0.3890 -0.8142  0.1061
 5516SOL    HW217362   0.147   7.778   0.640  2.6143 -0.6561  2.6218
 5517SOL     OW17363   7.818   6.066   4.191 -0.5102 -0.0176 -0.3649
 5517SOL    HW117364   7.906   6.049   4.223 -0.2971 -0.1821 -1.0321
 5517SOL    HW217365   7.830   6.132   4.123 -1.0919  1.2576  0.7392
 5518SOL     OW17366   4.724   5.161   1.760  0.5399  0.5030 -0.4525
 5518SOL    HW117367   4.647   5.131   1.712  0.7814  2.5919 -2.1964
 5518SOL    HW217368   4.691   5.181   1.848 -0.1353 -2.2224 -0.0364
 5519SOL     OW17369   7.294   1.937   5.688 -0.3703  0.1947 -0.0905
 5519SOL    HW117370   7.253   1.917   5.772 -3.0418  2.2573 -0.8194
 5519SOL    HW217371   7.343   2.018   5.704  1.4924 -0.9513  0.1577
 5520SOL     OW17372   7.291   2.394   6.893  0.0023 -0.1666  0.0945
 5520SOL    HW117373   7.372   2.367   6.937 -0.7206 -0.4961  1.2340
 5520SOL    HW217374   7.291   2.345   6.811  2.8146  2.6292 -1.6724
 5521SOL     OW17375   4.230   7.139   3.177 -0.0918  0.5939 -0.1349
 5521SOL    HW117376   4.186   7.165   3.097 -0.4749 -0.4318 -0.2595
 5521SOL    HW217377   4.207   7.208   3.240 -0.4651  0.9637 -0.6711
 5522SOL     OW17378   3.429   1.086   5.508  0.2021 -0.4307  0.1055
 5522SOL    HW117379   3.405   1.171   5.545  0.2838 -1.2831  2.1801
 5522SOL    HW217380   3.348   1.034   5.514  0.0059 -0.3572 -1.6315
 5523SOL     OW17381   3.135   3.531   2.896 -0.3206 -0.4129  0.7238
 5523SOL    HW117382   3.174   3.521   2.810 -1.4301 -0.8364  0.2552
 5523SOL    HW217383   3.132   3.626   2.911 -0.6978 -0.3082  0.0170
 5524SOL     OW17384   0.978   2.788   4.634 -0.1572 -0.0925  0.1764
 5524SOL    HW117385   1.041   2.858   4.616  0.0377  0.0455  1.3682
 5524SOL    HW217386   1.008   2.749   4.715 -1.0885 -0.6302  0.2630
 5525SOL     OW17387   7.352   1.980   0.421 -0.3008  0.2326  0.2011
 5525SOL    HW117388   7.346   2.069   0.386 -0.9664  0.2460  0.3487
 5525SOL    HW217389   7.394   1.930   0.351 -0.6081  0.5002 -0.1781
 5526SOL     OW17390   2.740   7.775   6.721  0.0635 -0.6944  0.2692
 5526SOL    HW117391   2.758   7.720   6.797 -0.7885 -4.5544 -2.1515
 5526SOL    HW217392   2.816   7.763   6.664 -0.5319 -0.0559 -0.6750
 5527SOL     OW17393   1.273   5.838   2.419  0.3055 -0.3262 -0.0166
 5527SOL    HW117394   1.341   5.801   2.475  0.9585 -0.8576 -1.1431
 5527SOL    HW217395   1.198   5.852   2.478  0.8580 -1.1957  0.9010
 5528SOL     OW17396   1.387   7.491   1.209 -0.2743 -0.2344 -0.5712
 5528SOL    HW117397   1.459   7.450   1.256  0.9557  1.4807 -0.9383
 5528SOL    HW217398   1.308   7.457   1.253  0.7659 -1.0865  0.6810
 5529SOL     OW17399   3.478   7.659   6.826 -0.4796  0.2364 -0.1287
 5529SOL    HW117400   3.544   7.650   6.758 -0.3654  1.6857 -0.2226
 5529SOL    HW217401   3.419   7.585   6.812  0.1330 -0.0695 -1.1361
 5530SOL     OW17402   3.691   6.241   0.806  0.0317 -0.3095  0.2971
 5530SOL    HW117403   3.615   6.224   0.862 -0.6772  1.6587 -0.0573
 5530SOL    HW217404   3.655   6.260   0.720  1.0470 -1.4499 -0.4096
 5531SOL     OW17405   3.283   5.481   6.381 -0.0814 -0.4412 -0.1921
 5531SOL    HW117406   3.310   5.466   6.472 -0.5839 -1.3684 -0.1888
 5531SOL    HW217407   3.249   5.570   6.380  1.8997  0.3460  0.0589
 5532SOL     OW17408   0.648   6.579   2.893 -0.5249  0.1241 -0.5538
 5532SOL    HW117409   0.559   6.551   2.872 -0.4913 -0.1407 -0.3455
 5532SOL    HW217410   0.650   6.584   2.988  0.0428 -1.0812 -0.4909
 5533SOL     OW17411   6.013   4.528   7.746  0.3739 -0.3890 -0.0807
 5533SOL    HW117412   6.108   4.537   7.748  0.1977  1.6904  1.4359
 5533SOL    HW217413   5.988   4.559   7.659  1.0813 -0.8178 -0.4365
 5534SOL     OW17414   7.246   0.459   6.922  0.4801  0.8011 -0.4652
 5534SOL    HW117415   7.328   0.411   6.931 -0.1975 -0.6585 -1.8016
 5534SOL    HW217416   7.261   0.519   6.849  0.1110 -0.0155 -1.2171
 5535SOL     OW17417   4.892   2.589   6.847 -0.2760 -0.2034 -0.6248
 5535SOL    HW117418   4.811   2.594   6.898  0.3925  0.7537  0.3763
 5535SOL    HW217419   4.941   2.518   6.888 -0.6291 -0.8305 -1.2764
 5536SOL     OW17420   1.880   2.717   4.956  0.3847 -0.4025 -0.2194
 5536SOL    HW117421   1.799   2.758   4.985  1.5561  1.0788  1.0806
 5536SOL    HW217422   1.874   2.626   4.986 -1.0651 -0.4884 -0.7350
 5537SOL     OW17423   0.681   4.598   6.280 -0.4599  0.5773  0.2428
 5537SOL    HW117424   0.620   4.622   6.211 -0.9244 -0.3158  0.3415
 5537SOL    HW217425   0.632   4.610   6.361  0.0124  1.4026  0.4228
 5538SOL     OW17426   6.059   3.928   4.442 -0.3605 -0.2377 -0.0557
 5538SOL    HW117427   6.053   3.879   4.524 -2.4924  0.1212  0.0370
 5538SOL    HW217428   6.133   3.987   4.454 -0.8172 -0.0019  1.7090
 5539SOL     OW17429   4.337   4.903   2.757 -0.1566  0.6972  0.2533
 5539SOL    HW117430   4.413   4.912   2.700 -0.0760  2.9160  0.6536
 5539SOL    HW217431   4.331   4.809   2.774  2.0452  0.4029 -0.3799
 5540SOL     OW17432   1.380   1.197   3.372 -0.3374 -0.2512 -0.0755
 5540SOL    HW117433   1.341   1.183   3.286 -0.6137 -1.4515  0.2321
 5540SOL    HW217434   1.309   1.230   3.426 -0.9529 -2.3931  0.4731
 5541SOL     OW17435   4.493   4.712   1.688 -0.0665  0.3199  0.0377
 5541SOL    HW117436   4.408   4.670   1.704 -0.3244  0.7473 -0.1696
 5541SOL    HW217437   4.514   4.690   1.598 -0.4626  1.0663 -0.2472
 5542SOL     OW17438   7.443   2.140   4.239 -0.1137  0.4985 -0.1697
 5542SOL    HW117439   7.394   2.070   4.283  0.9421 -0.0413  0.1670
 5542SOL    HW217440   7.395   2.220   4.262  0.2726  0.2000  1.7748
 5543SOL     OW17441   2.604   5.375   3.029 -0.4360 -0.5520  0.2340
 5543SOL    HW117442   2.614   5.403   3.120 -1.3632  0.0745  0.1423
 5543SOL    HW217443   2.604   5.279   3.033 -0.5324 -0.5203  0.8934
 5544SOL     OW17444   4.903   3.859   2.382 -0.1645  0.3551  0.1477
 5544SOL    HW117445   4.838   3.794   2.356 -0.0580  0.7282 -1.0842
 5544SOL    HW217446   4.982   3.834   2.334  0.2145  0.7108  0.5794
 5545SOL     OW17447   0.778   3.380   1.685 -0.4434 -0.3727 -0.4091
 5545SOL    HW117448   0.707   3.323   1.653 -1.6616  0.5675  0.5454
 5545SOL    HW217449   0.852   3.321   1.699 -0.8133 -1.2714 -2.0797
 5546SOL     OW17450   0.782   2.818   6.967  0.1708  0.4930 -0.6946
 5546SOL    HW117451   0.856   2.834   6.909  0.0480 -0.0187 -0.9870
 5546SOL    HW217452   0.821   2.777   7.044  0.3368  1.1942 -0.4018
 5547SOL     OW17453   4.850   2.190   5.893  0.1572 -0.2120  0.8353
 5547SOL    HW117454   4.863   2.268   5.946  1.6596  0.4137 -0.4173
 5547SOL    HW217455   4.925   2.134   5.913  0.2167 -0.3946  0.1271
 5548SOL     OW17456   4.717   2.131   4.999 -0.0148 -0.2560  0.2069
 5548SOL    HW117457   4.748   2.083   5.076  0.7965 -1.7240 -1.0241
 5548SOL    HW217458   4.775   2.207   4.993  0.1926 -0.3658  0.7813
 5549SOL     OW17459   0.915   7.329   2.442  0.5099 -0.4398 -0.5157
 5549SOL    HW117460   0.877   7.260   2.497 -1.8357 -0.7583 -2.4752
 5549SOL    HW217461   0.929   7.287   2.357  0.3001  1.1322 -1.3374
 5550SOL     OW17462   6.377   0.252   3.668 -0.3334  0.2287  0.2779
 5550SOL    HW117463   6.316   0.179   3.678 -1.4494  0.9219 -1.3461
 5550SOL    HW217464   6.403   0.250   3.576  1.4134  0.4999  0.7408
 5551SOL     OW17465   3.596   6.369   2.168 -0.4332  0.3086  0.4903
 5551SOL    HW117466   3.683   6.342   2.196 -0.6211  0.5739  1.3341
 5551SOL    HW217467   3.540   6.295   2.191 -0.3474 -0.0688 -0.5117
 5552SOL     OW17468   0.150   3.915   1.416 -0.0870  0.0621 -0.2617
 5552SOL    HW117469   0.157   3.841   1.477 -0.0820  1.0141  0.8937
 5552SOL    HW217470   0.156   3.993   1.471 -1.0951  0.9378 -1.3622
 5553SOL     OW17471   1.491   0.811   0.609 -0.0284  0.2628  0.4476
 5553SOL    HW117472   1.427   0.790   0.677 -0.3528 -0.3717 -0.0575
 5553SOL    HW217473   1.566   0.756   0.629  0.1710  0.6337  0.7363
 5554SOL     OW17474   6.214   4.027   6.646 -0.1946  0.0306 -0.3215
 5554SOL    HW117475   6.140   4.012   6.705 -2.1279  0.8284 -2.4734
 5554SOL    HW217476   6.259   4.103   6.682 -0.4861 -0.3587  0.8967
 5555SOL     OW17477   1.213   2.424   0.631  0.0075 -0.3147 -0.0894
 5555SOL    HW117478   1.167   2.474   0.563  0.1473  1.2537  0.9463
 5555SOL    HW217479   1.204   2.333   0.604 -0.9081  0.2139 -1.6191
 5556SOL     OW17480   3.755   7.484   2.080 -0.0907 -0.6340  0.3365
 5556SOL    HW117481   3.797   7.467   1.996  0.8284  2.0669  0.1953
 5556SOL    HW217482   3.684   7.545   2.060  0.9744  1.0843  1.6737
 5557SOL     OW17483   4.521   4.104   5.896 -0.4870 -0.5441  0.5078
 5557SOL    HW117484   4.436   4.078   5.932 -1.3052  1.2167 -0.1116
 5557SOL    HW217485   4.584   4.054   5.947 -1.8502 -1.2014  1.5978
 5558SOL     OW17486   4.564   1.777   6.849 -0.4332 -0.1778 -0.3581
 5558SOL    HW117487   4.469   1.787   6.843 -0.3811  1.4311  1.1606
 5558SOL    HW217488   4.599   1.846   6.793 -0.1529  0.6207  0.7853
 5559SOL     OW17489   2.360   4.709   7.416  0.7136  0.1364 -0.3729
 5559SOL    HW117490   2.298   4.672   7.479 -0.2566  0.9217 -0.8580
 5559SOL    HW217491   2.423   4.638   7.401 -0.6101 -1.0211 -0.6000
 5560SOL     OW17492   7.944   3.207   4.917  0.1532 -0.0224 -0.5205
 5560SOL    HW117493   7.967   3.300   4.922  0.2379 -0.0863  0.4742
 5560SOL    HW217494   7.864   3.205   4.864  0.6165  0.5326 -1.2417
 5561SOL     OW17495   5.564   1.119   3.045 -0.1420 -0.2157 -0.5978
 5561SOL    HW117496   5.618   1.197   3.037 -0.6093  0.2735  0.9447
 5561SOL    HW217497   5.478   1.147   3.012 -0.4543  0.0836  0.4572
 5562SOL     OW17498   7.105   7.859   3.437 -0.2197 -0.0909 -0.0540
 5562SOL    HW117499   7.025   7.895   3.397 -0.0508  1.6606  1.1093
 5562SOL    HW217500   7.082   7.845   3.528  0.2889 -1.2637 -0.0979
 5563SOL     OW17501   7.756   1.181   1.990 -0.4375 -0.4440 -0.2432
 5563SOL    HW117502   7.820   1.169   2.060  0.6088 -0.1193 -1.1366
 5563SOL    HW217503   7.680   1.221   2.034 -1.2429 -3.6075  1.3879
 5564SOL     OW17504   3.106   6.652   2.954  0.4396 -0.3533  0.0815
 5564SOL    HW117505   3.201   6.666   2.952  0.4748 -0.6228 -0.2049
 5564SOL    HW217506   3.094   6.574   3.009  0.3418  0.0347  0.6057
 5565SOL     OW17507   6.283   7.777   5.651  0.0364  0.7100 -0.4070
 5565SOL    HW117508   6.348   7.792   5.582  0.1876  2.5030  0.1080
 5565SOL    HW217509   6.206   7.827   5.622 -1.3518 -1.8167 -1.2803
 5566SOL     OW17510   6.289   0.465   7.962  0.6957  0.4306  0.4098
 5566SOL    HW117511   6.378   0.431   7.950  1.0277  0.9800  1.2062
 5566SOL    HW217512   6.232   0.389   7.949  1.2832  0.0668 -0.0670
 5567SOL     OW17513   2.907   6.006   6.797  0.5113 -0.6868 -0.4306
 5567SOL    HW117514   2.823   6.029   6.837  0.9616  1.9646 -0.8983
 5567SOL    HW217515   2.971   6.018   6.868  0.6848 -1.1178 -0.5137
 5568SOL     OW17516   4.218   0.156   2.043 -0.1109 -0.0227  0.3478
 5568SOL    HW117517   4.211   0.063   2.065  0.2129 -0.3765 -0.9760
 5568SOL    HW217518   4.293   0.187   2.094 -0.6674 -0.3201  1.3418
 5569SOL     OW17519   0.516   2.858   7.025 -0.2856  0.3992  0.2930
 5569SOL    HW117520   0.474   2.773   7.019 -0.9874  0.8742 -2.6652
 5569SOL    HW217521   0.607   2.838   7.046 -0.6451 -1.0157  0.5622
 5570SOL     OW17522   3.824   1.932   7.909  0.5152  0.0625  0.1167
 5570SOL    HW117523   3.774   1.958   7.986 -0.7554  0.0973 -0.7018
 5570SOL    HW217524   3.887   1.869   7.942  0.1624  0.2771  1.2328
 5571SOL     OW17525   3.977   5.396   2.994  0.4132 -0.2534 -0.3959
 5571SOL    HW117526   3.915   5.407   3.067  1.1473  2.6804 -0.1553
 5571SOL    HW217527   3.923   5.404   2.915  0.0558 -0.5666 -0.1864
 5572SOL     OW17528   1.510   1.291   7.500 -0.1085 -0.5877  0.1192
 5572SOL    HW117529   1.433   1.252   7.542 -1.4713  1.6377 -0.2359
 5572SOL    HW217530   1.523   1.240   7.421 -2.0106 -0.2022 -0.4661
 5573SOL     OW17531   3.049   2.779   2.729  0.2478  0.0200  0.2005
 5573SOL    HW117532   3.027   2.725   2.805 -2.6352  0.0793 -0.5162
 5573SOL    HW217533   3.046   2.718   2.655 -1.9959  0.8942 -0.4779
 5574SOL     OW17534   4.668   5.003   0.596 -0.0415  0.3187  0.5483
 5574SOL    HW117535   4.608   5.068   0.631  0.2582  1.5478 -1.1367
 5574SOL    HW217536   4.755   5.036   0.618  0.1165  0.5469 -0.3873
 5575SOL     OW17537   5.695   1.927   7.137 -0.1037  0.2395 -0.3856
 5575SOL    HW117538   5.737   1.988   7.197  0.8829 -0.4651 -0.3488
 5575SOL    HW217539   5.677   1.979   7.058  1.3508  0.4185 -0.6156
 5576SOL     OW17540   4.354   7.918   1.873 -0.5985 -0.4716  0.0142
 5576SOL    HW117541   4.363   7.857   1.800 -0.4361 -0.7526  0.2718
 5576SOL    HW217542   4.444   7.946   1.892 -0.4540 -1.8134  1.3240
 5577SOL     OW17543   0.624   4.876   3.711 -0.4257 -0.3411 -0.1741
 5577SOL    HW117544   0.595   4.966   3.701 -0.4878 -0.6034 -2.4462
 5577SOL    HW217545   0.713   4.875   3.676 -0.7937 -1.3782 -1.0818
 5578SOL     OW17546   7.367   3.159   7.111 -0.2281  0.1482 -0.1530
 5578SOL    HW117547   7.404   3.163   7.022 -0.0209  0.0060 -0.0759
 5578SOL    HW217548   7.423   3.216   7.163  0.4011 -0.7229  0.1421
 5579SOL     OW17549   4.150   1.003   2.673  0.0066  0.9385 -0.4454
 5579SOL    HW117550   4.235   1.046   2.682  0.3197  0.5265 -1.4483
 5579SOL    HW217551   4.121   0.990   2.763  1.4729  0.1636 -0.0633
 5580SOL     OW17552   2.218   1.412   0.121 -0.0714 -0.3286  0.4960
 5580SOL    HW117553   2.298   1.403   0.069  1.6252  0.0082  2.9838
 5580SOL    HW217554   2.186   1.322   0.131 -0.7305 -0.3490 -1.5525
 5581SOL     OW17555   2.053   3.288   5.472 -0.0652 -0.3628  0.1768
 5581SOL    HW117556   1.983   3.297   5.537  0.2638  1.5260  0.2991
 5581SOL    HW217557   2.134   3.291   5.523  0.1521 -0.7155 -0.1457
 5582SOL     OW17558   0.335   3.819   5.283  0.1414  0.4433 -0.4424
 5582SOL    HW117559   0.297   3.883   5.223 -0.7708  0.3080 -0.0240
 5582SOL    HW217560   0.388   3.762   5.228 -2.5680 -1.1361 -1.5087
 5583SOL     OW17561   6.717   5.711   0.625 -0.0815 -0.4884 -0.3873
 5583SOL    HW117562   6.719   5.639   0.562  1.3646 -0.9851  0.1978
 5583SOL    HW217563   6.713   5.667   0.710  0.8610  0.1189 -0.0305
 5584SOL     OW17564   0.037   4.731   3.634 -0.6427 -0.2175 -0.0965
 5584SOL    HW117565  -0.007   4.664   3.685 -0.1658  0.4096  1.1590
 5584SOL    HW217566   0.038   4.808   3.690  1.0635  0.1053 -0.5184
 5585SOL     OW17567   3.205   3.462   0.942  0.0121 -0.3787 -0.1267
 5585SOL    HW117568   3.291   3.500   0.961 -1.0443  1.1988  1.7515
 5585SOL    HW217569   3.179   3.421   1.024 -0.9158 -1.0853 -0.7688
 5586SOL     OW17570   4.208   6.654   6.362 -0.1043  0.4747 -0.5205
 5586SOL    HW117571   4.196   6.580   6.302 -0.0673  1.2594 -1.5124
 5586SOL    HW217572   4.257   6.718   6.311  1.2676  0.5440  0.8647
 5587SOL     OW17573   5.531   6.077   3.598 -0.8495 -0.4948  0.1590
 5587SOL    HW117574   5.616   6.092   3.639 -1.0620  0.4302  0.2714
 5587SOL    HW217575   5.530   6.136   3.522 -1.6819  0.0552  0.5907
 5588SOL     OW17576   7.926   3.977   1.067 -1.1773  0.3575 -0.7157
 5588SOL    HW117577   7.887   3.988   1.154 -0.4091  0.5377 -0.3841
 5588SOL    HW217578   8.021   3.979   1.084 -1.0289  0.2873 -1.5457
 5589SOL     OW17579   1.386   5.952   3.864 -0.3253  0.0567  0.0642
 5589SOL    HW117580   1.429   6.037   3.853 -1.4289  0.3216 -2.3102
 5589SOL    HW217581   1.410   5.902   3.787 -0.8785 -1.2889  0.7445
 5590SOL     OW17582   7.783   5.627   4.826 -0.1110  0.4353  0.1109
 5590SOL    HW117583   7.781   5.707   4.879  0.0009  0.5227 -0.0184
 5590SOL    HW217584   7.800   5.657   4.737 -3.2362  0.5934 -0.5173
 5591SOL     OW17585   6.136   0.262   0.972 -0.5389 -0.2205  0.2528
 5591SOL    HW117586   6.119   0.222   1.057 -2.5507  2.0979  0.9964
 5591SOL    HW217587   6.175   0.346   0.992  2.0614 -1.0222 -1.2551
 5592SOL     OW17588   7.350   4.768   1.226 -0.0165 -0.1993 -0.4310
 5592SOL    HW117589   7.292   4.730   1.160 -0.2499  0.6689 -0.7315
 5592SOL    HW217590   7.293   4.825   1.278  0.8572  1.9346 -1.7445
 5593SOL     OW17591   5.463   3.925   5.195  0.3614 -0.3439  0.3989
 5593SOL    HW117592   5.444   3.906   5.287 -1.1694 -0.2164  0.1254
 5593SOL    HW217593   5.398   3.991   5.170 -0.4349 -1.7065 -1.2618
 5594SOL     OW17594   0.684   1.890   5.319  0.4057  0.0691  0.0029
 5594SOL    HW117595   0.644   1.975   5.337 -0.3821 -0.4707  0.9064
 5594SOL    HW217596   0.709   1.894   5.227 -0.8581  0.7995 -0.3313
 5595SOL     OW17597   5.618   0.670   4.300  1.0794 -0.1949  0.3625
 5595SOL    HW117598   5.655   0.582   4.300 -0.3158 -0.8073 -1.4470
 5595SOL    HW217599   5.529   0.659   4.265  0.2406  1.6686  1.7782
 5596SOL     OW17600   4.363   5.399   6.843  0.2581  0.6336  0.6244
 5596SOL    HW117601   4.431   5.357   6.789 -1.0556 -1.4615  0.5337
 5596SOL    HW217602   4.324   5.465   6.786  1.5282  1.1469  0.3335
 5597SOL     OW17603   5.245   0.427   4.668 -0.5565  0.2613 -0.5734
 5597SOL    HW117604   5.159   0.442   4.629 -1.0197  0.0534  0.3638
 5597SOL    HW217605   5.281   0.515   4.680 -0.1923  0.3064 -1.9411
 5598SOL     OW17606   6.303   6.778   5.829 -0.0483 -0.7813  0.5376
 5598SOL    HW117607   6.368   6.708   5.837  1.0467  0.1827  0.1532
 5598SOL    HW217608   6.339   6.850   5.880 -1.1940 -0.5032  0.9669
 5599SOL     OW17609   2.351   4.922   4.364  0.2394 -0.0438 -0.1874
 5599SOL    HW117610   2.259   4.909   4.386  0.5563  1.3710  2.1131
 5599SOL    HW217611   2.361   5.017   4.359  1.0890 -0.2300 -2.6750
 5600SOL     OW17612   1.865   2.910   5.597  0.7964  0.2227 -0.6732
 5600SOL    HW117613   1.785   2.893   5.546 -1.0848  0.2384  2.1298
 5600SOL    HW217614   1.922   2.958   5.538 -1.1622 -0.0664 -2.8596
 5601SOL     OW17615   6.687   3.124   4.607  0.0613  0.5054  0.5237
 5601SOL    HW117616   6.707   3.171   4.526 -1.7294  1.5370  0.6593
 5601SOL    HW217617   6.771   3.119   4.653  0.6037  2.1048 -0.2431
 5602SOL     OW17618   4.138   6.036   7.574 -0.4509 -0.1705 -0.9687
 5602SOL    HW117619   4.129   6.120   7.528 -0.7148  0.2571 -0.1423
 5602SOL    HW217620   4.199   6.054   7.645 -0.4011 -0.7232 -0.8670
 5603SOL     OW17621   1.276   3.988   5.715 -0.4426 -0.2639  0.7427
 5603SOL    HW117622   1.280   4.069   5.767 -1.0698  0.2671 -0.0265
 5603SOL    HW217623   1.187   3.955   5.729  0.8700 -2.7582  3.9121
 5604SOL     OW17624   0.155   1.335   2.321 -0.5659  0.2606  0.6390
 5604SOL    HW117625   0.187   1.275   2.388  1.3841 -0.4974 -0.9246
 5604SOL    HW217626   0.064   1.353   2.346 -0.6144 -1.9092  2.1415
 5605SOL     OW17627   7.015   6.071   2.232  0.0467  0.1886  0.1723
 5605SOL    HW117628   6.959   6.003   2.270 -0.6971  0.3737 -0.6003
 5605SOL    HW217629   7.099   6.026   2.218 -0.1401 -0.3021  0.5948
 5606SOL     OW17630   6.609   0.785   3.213  0.4155 -0.4442  0.3810
 5606SOL    HW117631   6.567   0.806   3.129  2.6493  0.5763 -0.5236
 5606SOL    HW217632   6.588   0.692   3.227 -0.6051 -0.4365 -0.9408
 5607SOL     OW17633   2.135   5.807   4.562  0.3144  0.3302  0.0931
 5607SOL    HW117634   2.079   5.885   4.569  0.2410  0.2219  0.8020
 5607SOL    HW217635   2.219   5.834   4.598 -0.0602 -0.2444  1.4387
 5608SOL     OW17636   6.854   7.551   1.884  0.0849 -0.0403  0.2849
 5608SOL    HW117637   6.857   7.597   1.968 -2.7310 -1.6518  1.3188
 5608SOL    HW217638   6.905   7.471   1.898  1.3974  0.6979 -0.2107
 5609SOL     OW17639   5.487   6.880   2.248 -1.1900  0.2363  0.1747
 5609SOL    HW117640   5.546   6.914   2.315  0.0973  2.0908 -1.8503
 5609SOL    HW217641   5.539   6.816   2.199 -1.6045  0.0966 -0.0886
 5610SOL     OW17642   6.588   0.717   3.489  0.2631 -0.6943  0.0046
 5610SOL    HW117643   6.618   0.800   3.451 -1.7983 -0.6134 -1.5381
 5610SOL    HW217644   6.568   0.662   3.414 -1.2363 -1.5192  0.9749
 5611SOL     OW17645   5.770   5.011   6.161 -0.1896 -0.2083  0.3653
 5611SOL    HW117646   5.773   5.063   6.080  0.9212 -0.3453  0.3053
 5611SOL    HW217647   5.716   5.062   6.221  0.4112  0.7401  0.1120
 5612SOL     OW17648   6.421   3.099   5.037 -0.0501  0.5787  0.2971
 5612SOL    HW117649   6.451   3.159   4.969  0.7441 -0.8978 -0.6757
 5612SOL    HW217650   6.472   3.019   5.023 -1.1866 -0.3758  1.4907
 5613SOL     OW17651   1.283   4.551   0.674 -0.0080 -0.3025 -0.7449
 5613SOL    HW117652   1.249   4.629   0.630  0.8248  0.0578 -0.7554
 5613SOL    HW217653   1.376   4.549   0.652  0.6504  0.4280  1.7386
 5614SOL     OW17654   7.987   5.660   2.778  0.5744 -0.4325  0.1191
 5614SOL    HW117655   8.047   5.585   2.777  1.1286 -0.0017  0.6063
 5614SOL    HW217656   7.902   5.623   2.753  0.7225 -1.3276  0.8892
 5615SOL     OW17657   3.903   7.754   7.241  0.8445  0.0657 -0.8414
 5615SOL    HW117658   3.909   7.664   7.271  1.1391  0.9729  1.9599
 5615SOL    HW217659   3.881   7.747   7.148  1.7421 -2.8797 -0.8883
 5616SOL     OW17660   5.685   6.822   1.477 -0.0520  0.4046 -0.2098
 5616SOL    HW117661   5.760   6.763   1.472 -1.0813 -1.1507  2.0773
 5616SOL    HW217662   5.716   6.896   1.529  0.0882  0.0462  0.2201
 5617SOL     OW17663   3.158   0.957   5.204 -0.1751 -0.0719 -0.1887
 5617SOL    HW117664   3.253   0.969   5.205 -0.1988  0.1497 -0.4739
 5617SOL    HW217665   3.124   1.030   5.255 -0.2592  0.5292 -1.0867
 5618SOL     OW17666   6.381   5.151   4.948 -0.1815 -0.0052 -0.0947
 5618SOL    HW117667   6.298   5.185   4.917  0.2333  0.2663 -0.9137
 5618SOL    HW217668   6.437   5.149   4.871  0.8388  0.6057  0.6095
 5619SOL     OW17669   7.653   0.246   7.594  0.8636 -0.2022  0.0622
 5619SOL    HW117670   7.620   0.308   7.529  0.2122 -0.6057 -0.0004
 5619SOL    HW217671   7.739   0.280   7.619  0.4405  0.8164  0.1527
 5620SOL     OW17672   2.533   7.311   4.868 -0.4709  0.3149 -0.4832
 5620SOL    HW117673   2.509   7.244   4.804 -0.1670  0.4810 -0.7728
 5620SOL    HW217674   2.466   7.379   4.858 -0.9608 -0.0890  0.0322
 5621SOL     OW17675   2.028   6.815   3.182 -0.5307  0.3446  0.2845
 5621SOL    HW117676   2.073   6.830   3.098 -1.2355  1.2021  0.0551
 5621SOL    HW217677   2.099   6.814   3.247 -0.1073  0.9471 -0.1624
 5622SOL     OW17678   7.324   1.979   5.985 -0.1934  0.1176 -0.1458
 5622SOL    HW117679   7.368   1.895   5.997 -1.4689 -0.3795  1.2642
 5622SOL    HW217680   7.392   2.044   6.005 -0.0978 -0.6402  2.1971
 5623SOL     OW17681   4.999   4.431   3.285  0.2668  0.6620 -0.5516
 5623SOL    HW117682   4.950   4.451   3.206  0.2157  0.1993 -0.6370
 5623SOL    HW217683   4.952   4.476   3.355 -0.7728 -0.4638 -0.5025
 5624SOL     OW17684   5.521   6.820   5.819  0.2103 -0.7115 -0.3951
 5624SOL    HW117685   5.496   6.728   5.810  2.5349 -1.6245  1.8781
 5624SOL    HW217686   5.616   6.820   5.809  0.5161  1.0947  2.0898
 5625SOL     OW17687   3.267   7.310   5.725  0.3497  0.1770 -0.4525
 5625SOL    HW117688   3.251   7.219   5.700  1.7829  0.0624 -1.0014
 5625SOL    HW217689   3.347   7.333   5.679  1.9011  0.6251  2.3759
 5626SOL     OW17690   3.325   4.583   5.327 -0.0989 -0.7360  0.3854
 5626SOL    HW117691   3.377   4.533   5.265  1.3070 -0.0677  1.0081
 5626SOL    HW217692   3.292   4.657   5.275 -0.0041 -0.8760  0.1215
 5627SOL     OW17693   2.276   6.521   7.437  0.7964  0.4025  0.8460
 5627SOL    HW117694   2.197   6.517   7.383  2.3384  0.8047 -1.4827
 5627SOL    HW217695   2.282   6.613   7.463 -0.0053  0.1882  1.8255
 5628SOL     OW17696   2.817   4.119   1.817  0.6015  0.1044 -0.3619
 5628SOL    HW117697   2.797   4.073   1.736  0.1520  2.0805 -1.4241
 5628SOL    HW217698   2.873   4.192   1.790 -0.6728  1.5785  0.8916
 5629SOL     OW17699   7.945   3.243   5.484 -0.4899  0.8866  0.0273
 5629SOL    HW117700   8.039   3.225   5.484 -1.1383 -2.9051 -0.5327
 5629SOL    HW217701   7.929   3.286   5.400  0.7030  1.5633  0.1252
 5630SOL     OW17702   1.729   0.314   5.376  0.2032  0.0025  0.0179
 5630SOL    HW117703   1.750   0.324   5.283  0.9176  1.2414  0.3094
 5630SOL    HW217704   1.741   0.401   5.414 -2.7681  0.1411  0.7628
 5631SOL     OW17705   5.042   7.573   2.917  0.7980 -0.2673  0.2693
 5631SOL    HW117706   5.114   7.512   2.932  2.7620  1.8176 -0.4639
 5631SOL    HW217707   5.022   7.564   2.824  1.4834  0.5992  0.0309
 5632SOL     OW17708   3.059   5.057   7.717  0.0313 -0.5640  0.1307
 5632SOL    HW117709   2.985   5.113   7.697  0.7222  0.0689 -0.7117
 5632SOL    HW217710   3.041   4.976   7.670  0.2515 -0.1202 -0.7283
 5633SOL     OW17711   6.480   6.713   7.733  0.1632  0.3552 -0.3041
 5633SOL    HW117712   6.397   6.701   7.688  0.0550  0.4268 -0.1238
 5633SOL    HW217713   6.485   6.807   7.749 -0.8019  0.0746  1.7548
 5634SOL     OW17714   0.524   1.266   7.922 -0.4767 -0.6051  0.2259
 5634SOL    HW117715   0.484   1.189   7.961 -0.3899 -0.6156  0.2966
 5634SOL    HW217716   0.578   1.303   7.992 -1.4716  0.2124  0.5793
 5635SOL     OW17717   0.051   7.104   0.787 -0.1450 -0.0409 -0.7201
 5635SOL    HW117718   0.037   7.046   0.862  0.6570  0.3006 -0.2965
 5635SOL    HW217719   0.106   7.054   0.727  0.2545  0.1446 -0.5124
 5636SOL     OW17720   3.516   3.377   0.731 -0.3030  0.5593  0.4300
 5636SOL    HW117721   3.550   3.449   0.678  0.9065 -1.3851 -1.5156
 5636SOL    HW217722   3.431   3.356   0.691 -0.4001  0.5132  0.6577
 5637SOL     OW17723   2.309   7.620   3.587 -0.3753  0.5116  0.1744
 5637SOL    HW117724   2.294   7.532   3.553  0.1231  0.6340 -0.3697
 5637SOL    HW217725   2.324   7.607   3.680  0.0457 -0.0197  0.0347
 5638SOL     OW17726   3.937   6.133   7.922  0.0117  0.2709  0.3710
 5638SOL    HW117727   3.883   6.134   7.843  2.1422  0.1027 -1.1228
 5638SOL    HW217728   3.895   6.068   7.979 -0.1980 -1.3090 -1.5659
 5639SOL     OW17729   7.662   2.466   0.832  0.0101 -0.1078 -0.2673
 5639SOL    HW117730   7.738   2.440   0.780 -0.4737 -2.1377 -0.0310
 5639SOL    HW217731   7.591   2.475   0.768  0.2047  0.7871 -0.3633
 5640SOL     OW17732   3.207   0.229   4.861 -0.5299 -0.0491 -1.0490
 5640SOL    HW117733   3.282   0.246   4.804  0.4630 -0.4546  0.1142
 5640SOL    HW217734   3.229   0.272   4.944 -0.6543 -1.8815 -0.0280
 5641SOL     OW17735   4.744   3.775   4.790 -0.3472 -0.0201  0.0961
 5641SOL    HW117736   4.743   3.810   4.700 -0.4134 -0.4936 -0.0880
 5641SOL    HW217737   4.730   3.852   4.845  2.6588  0.7919 -0.1432
 5642SOL     OW17738   7.833   2.080   4.901 -0.1125 -0.8805 -0.3678
 5642SOL    HW117739   7.886   2.091   4.822  0.0680 -0.0577 -0.1375
 5642SOL    HW217740   7.894   2.095   4.973  0.0025 -2.8564 -0.0364
 5643SOL     OW17741   1.718   0.682   2.431  0.6160  0.0527  0.3973
 5643SOL    HW117742   1.688   0.750   2.370  1.4833 -0.0392 -0.1366
 5643SOL    HW217743   1.690   0.714   2.517 -1.5897 -0.3442 -0.1390
 5644SOL     OW17744   4.538   3.337   2.440  0.4091 -0.1776 -0.0797
 5644SOL    HW117745   4.460   3.330   2.495  0.7149 -0.0776  0.3700
 5644SOL    HW217746   4.598   3.272   2.476  0.5488 -0.2234 -0.4004
 5645SOL     OW17747   4.640   2.272   3.424 -0.3849 -0.4924  0.0934
 5645SOL    HW117748   4.635   2.271   3.519  0.0453 -1.1962  0.1156
 5645SOL    HW217749   4.729   2.302   3.405 -0.4857 -0.3041 -0.0860
 5646SOL     OW17750   4.409   4.102   5.054 -0.4556 -0.6960  0.5143
 5646SOL    HW117751   4.323   4.140   5.037 -1.2362 -2.6341  0.0409
 5646SOL    HW217752   4.436   4.140   5.138 -2.0782 -0.6427  1.0260
 5647SOL     OW17753   3.412   1.384   1.577 -0.2872  0.2827  0.5483
 5647SOL    HW117754   3.378   1.310   1.526 -1.0965  1.2093 -0.2764
 5647SOL    HW217755   3.347   1.397   1.646  0.1653 -0.1592  1.0617
 5648SOL     OW17756   1.856   2.830   5.882  0.6628  0.1375 -0.5744
 5648SOL    HW117757   1.812   2.745   5.887  0.8824 -0.1544 -3.0425
 5648SOL    HW217758   1.876   2.841   5.790  2.6976  1.8472  0.0343
 5649SOL     OW17759   1.019   3.052   6.344 -0.1009  0.1593 -0.2664
 5649SOL    HW117760   1.034   3.041   6.250 -0.4266 -1.2924 -0.1657
 5649SOL    HW217761   1.101   3.025   6.385 -0.8238 -1.7321 -0.0215
 5650SOL     OW17762   7.993   3.452   7.238 -0.2353 -0.4801 -0.1955
 5650SOL    HW117763   8.072   3.484   7.195  0.1529 -1.6274 -0.3628
 5650SOL    HW217764   8.004   3.357   7.239 -1.3127 -0.6006  0.3680
 5651SOL     OW17765   1.116   7.086   6.627 -0.2583  0.1528 -0.0134
 5651SOL    HW117766   1.078   7.167   6.593 -2.3363 -0.6353  0.3551
 5651SOL    HW217767   1.166   7.113   6.703 -1.3549  1.0475  0.4050
 5652SOL     OW17768   7.944   6.638   1.223 -0.2463 -0.2755  0.3878
 5652SOL    HW117769   7.860   6.622   1.181 -0.5736  0.4138  0.7674
 5652SOL    HW217770   7.934   6.724   1.264  0.2197 -0.7316  1.4758
 5653SOL     OW17771   4.856   5.690   2.247  0.6674  0.2376 -0.3171
 5653SOL    HW117772   4.901   5.607   2.265 -0.3152 -0.3410 -0.4804
 5653SOL    HW217773   4.797   5.702   2.322 -1.5663 -0.8802 -1.8360
 5654SOL     OW17774   3.622   4.362   4.306  0.0679 -0.0743 -0.1914
 5654SOL    HW117775   3.662   4.402   4.229  0.0292 -0.8667 -0.6289
 5654SOL    HW217776   3.676   4.285   4.324  0.3130  0.3279  0.8198
 5655SOL     OW17777   0.521   5.925   3.160 -0.5709  0.4773  0.2612
 5655SOL    HW117778   0.579   5.998   3.139 -0.5122  0.4114  0.1967
 5655SOL    HW217779   0.525   5.917   3.255  1.1084 -0.8569  0.0946
 5656SOL     OW17780   5.975   3.995   0.792  0.4670 -0.1893 -0.3294
 5656SOL    HW117781   6.056   4.035   0.824  1.4679 -1.0956 -1.7037
 5656SOL    HW217782   5.906   4.046   0.834  1.7285  1.5915 -0.3401
 5657SOL     OW17783   0.006   1.141   3.238 -0.5828  0.2043 -0.0829
 5657SOL    HW117784   0.088   1.179   3.206 -0.9504  2.1824  1.2090
 5657SOL    HW217785  -0.040   1.215   3.279 -2.7556 -0.9956 -0.3020
 5658SOL     OW17786   3.896   5.873   3.149 -0.1473  0.5310 -1.0112
 5658SOL    HW117787   3.941   5.792   3.172 -0.0369  0.8824  0.0237
 5658SOL    HW217788   3.809   5.845   3.121 -0.0945  0.0549 -0.6923
 5659SOL     OW17789   5.664   6.732   0.755  0.5465  0.0017 -0.0873
 5659SOL    HW117790   5.755   6.733   0.723  0.5934  1.4532  0.0728
 5659SOL    HW217791   5.669   6.688   0.840  1.0595 -0.1542 -0.1933
 5660SOL     OW17792   3.753   4.212   7.762 -0.1513  0.3131  0.1921
 5660SOL    HW117793   3.849   4.208   7.757 -0.0811  1.3133  0.5285
 5660SOL    HW217794   3.733   4.179   7.849 -0.1170 -0.0083  0.0773
 5661SOL     OW17795   1.002   5.228   5.831  0.6814  0.8683  0.2103
 5661SOL    HW117796   1.042   5.178   5.760  0.1202 -0.0839  0.5576
 5661SOL    HW217797   0.908   5.217   5.817  0.5697  0.6123  1.1421
 5662SOL     OW17798   0.705   1.486   0.037 -0.2463 -0.4626  0.2966
 5662SOL    HW117799   0.770   1.482   0.108  2.0981 -1.0909 -1.8264
 5662SOL    HW217800   0.751   1.451  -0.039 -2.2086  1.6582 -1.9313
 5663SOL     OW17801   0.054   0.969   5.464  0.2618  0.6126  0.1667
 5663SOL    HW117802   0.138   1.005   5.491  0.9263 -0.5390 -0.3523
 5663SOL    HW217803   0.070   0.875   5.453 -0.8341  0.5409 -0.9146
 5664SOL     OW17804   5.975   4.113   5.832 -0.1656  0.3787 -0.0969
 5664SOL    HW117805   6.015   4.058   5.899  0.0075  2.5396  1.6403
 5664SOL    HW217806   6.035   4.188   5.823 -0.9824  0.8842 -1.5218
 5665SOL     OW17807   4.918   6.294   7.315  0.2292 -0.3045  0.0788
 5665SOL    HW117808   4.978   6.367   7.302 -0.5285 -0.2105 -3.1296
 5665SOL    HW217809   4.833   6.335   7.330  0.4076 -0.5037  1.8011
 5666SOL     OW17810   2.723   4.844   6.752 -0.3623  0.5032 -0.2856
 5666SOL    HW117811   2.757   4.769   6.702  0.4982  0.5175  0.2624
 5666SOL    HW217812   2.677   4.805   6.826  0.6878  0.5144  0.3849
 5667SOL     OW17813   6.864   7.014   7.558  0.2455  0.0855 -0.4458
 5667SOL    HW117814   6.903   7.091   7.517  2.9878 -0.4288  1.0637
 5667SOL    HW217815   6.897   6.940   7.508  2.1556 -0.4286  1.5127
 5668SOL     OW17816   3.270   1.417   4.280 -0.9302 -0.5839  0.3407
 5668SOL    HW117817   3.213   1.460   4.344 -2.0426  0.3886 -1.2528
 5668SOL    HW217818   3.218   1.416   4.199  1.4761  0.7525 -1.2758
 5669SOL     OW17819   7.177   4.009   2.477  0.1935  0.6427 -0.4381
 5669SOL    HW117820   7.163   3.914   2.479  1.4451  0.4590  0.1065
 5669SOL    HW217821   7.122   4.042   2.548 -0.2327  0.3273 -0.6155
 5670SOL     OW17822   7.204   1.687   7.087  0.3083  0.0937  0.4805
 5670SOL    HW117823   7.239   1.642   7.011  0.3195 -1.5569  1.4429
 5670SOL    HW217824   7.169   1.617   7.142 -0.5326  1.3427  1.5625
 5671SOL     OW17825   5.172   6.570   2.746 -0.4849 -0.4707  0.4727
 5671SOL    HW117826   5.155   6.612   2.662 -0.9241  0.7055  1.1381
 5671SOL    HW217827   5.234   6.500   2.726 -1.7398 -1.1534 -1.0563
 5672SOL     OW17828   7.860   2.424   7.969  0.1339  0.0019  0.5866
 5672SOL    HW117829   7.922   2.397   8.037  1.2112  0.5859 -0.1397
 5672SOL    HW217830   7.899   2.392   7.888 -0.1995  0.9125  0.0639
 5673SOL     OW17831   5.203   3.057   1.272  1.0474 -0.1549  0.9134
 5673SOL    HW117832   5.272   3.097   1.219  3.1685 -2.1074  2.1085
 5673SOL    HW217833   5.138   3.026   1.209  2.9729 -1.4290 -0.4956
 5674SOL     OW17834   3.326   7.021   7.050 -0.1458  0.4109 -0.1250
 5674SOL    HW117835   3.392   6.988   7.111 -1.8923 -0.9226  1.1054
 5674SOL    HW217836   3.333   6.963   6.974 -0.5984 -0.4007  0.4413
 5675SOL     OW17837   7.335   0.018   1.917  0.5084  0.6556 -0.9359
 5675SOL    HW117838   7.265  -0.044   1.897  0.8159  0.5594 -1.7359
 5675SOL    HW217839   7.298   0.104   1.896 -0.5106  0.9151  1.7937
 5676SOL     OW17840   1.328   5.335   6.224 -0.1188 -0.1190 -0.1882
 5676SOL    HW117841   1.307   5.348   6.131  1.5086  1.8169 -0.3169
 5676SOL    HW217842   1.368   5.248   6.228  1.1632  0.3956 -1.5491
 5677SOL     OW17843   5.644   0.863   5.042  0.1605  0.0477 -0.3559
 5677SOL    HW117844   5.578   0.794   5.030  0.0121  0.3302 -1.1615
 5677SOL    HW217845   5.594   0.945   5.036  0.1546  0.2159  1.6575
 5678SOL     OW17846   2.415   5.184   4.336 -0.3961  0.3166  0.5316
 5678SOL    HW117847   2.412   5.273   4.300 -1.5712  0.4539  0.9668
 5678SOL    HW217848   2.489   5.186   4.397 -0.0872  0.8422  0.1454
 5679SOL     OW17849   5.316   3.157   5.092  0.5505  0.4828 -0.4433
 5679SOL    HW117850   5.305   3.252   5.081  0.6385  0.5549  0.0479
 5679SOL    HW217851   5.227   3.124   5.105  0.6364  0.6986  0.8218
 5680SOL     OW17852   5.875   3.673   0.265 -0.9159 -0.3841  0.0145
 5680SOL    HW117853   5.801   3.633   0.220  0.8941 -0.4863 -2.9792
 5680SOL    HW217854   5.950   3.656   0.208  1.0238  1.6114  1.8911
 5681SOL     OW17855   1.893   4.624   1.881 -0.9022 -0.4840  0.1250
 5681SOL    HW117856   1.821   4.562   1.892  0.4071 -1.9243  0.7467
 5681SOL    HW217857   1.963   4.590   1.937  0.4492  0.5979 -0.8663
 5682SOL     OW17858   0.203   0.500   5.316  0.0023  0.4567 -0.0377
 5682SOL    HW117859   0.147   0.424   5.334 -0.5844  0.8584 -0.1534
 5682SOL    HW217860   0.146   0.575   5.327  0.5745  0.8860  0.0329
 5683SOL     OW17861   1.523   3.122   5.868 -0.6502  0.1100 -0.1915
 5683SOL    HW117862   1.568   3.190   5.818 -1.0202 -0.4766 -1.3432
 5683SOL    HW217863   1.455   3.090   5.809 -2.7464  1.1208  1.6023
 5684SOL     OW17864   6.438   3.253   7.653 -0.2360 -0.3581 -0.1844
 5684SOL    HW117865   6.504   3.237   7.586  2.0287  1.7044  1.4849
 5684SOL    HW217866   6.397   3.336   7.627  1.0417  0.7504  1.2254
 5685SOL     OW17867   3.901   7.369   7.931  0.0790  0.4800 -0.3136
 5685SOL    HW117868   3.838   7.374   8.004 -0.4997  1.1640 -0.8433
 5685SOL    HW217869   3.962   7.301   7.957  0.1659  1.0458  1.0482
 5686SOL     OW17870   1.288   1.114   1.962  0.2890  0.2606  0.4098
 5686SOL    HW117871   1.346   1.039   1.958 -0.3593 -0.2813  1.0496
 5686SOL    HW217872   1.341   1.184   2.001  0.6921 -0.0538  0.4201
 5687SOL     OW17873   2.388   4.275   4.656  0.3378 -1.0684  0.2046
 5687SOL    HW117874   2.424   4.250   4.571  0.1464  0.2823 -0.2792
 5687SOL    HW217875   2.427   4.360   4.675 -1.2188 -0.3968  0.4893
 5688SOL     OW17876   5.065   5.973   4.226 -0.2244 -0.1976 -0.1822
 5688SOL    HW117877   5.115   6.002   4.303 -0.9347 -0.7575  0.4886
 5688SOL    HW217878   5.014   6.050   4.201  0.6689  0.2619 -0.6414
 5689SOL     OW17879   3.156   3.216   0.835 -0.1382 -0.4423 -0.5953
 5689SOL    HW117880   3.061   3.210   0.835 -0.1609 -0.2817  1.6125
 5689SOL    HW217881   3.175   3.293   0.889  1.3641 -2.7990  2.3411
 5690SOL     OW17882   1.252   4.684   0.908 -0.0742 -0.1265  0.0614
 5690SOL    HW117883   1.252   4.637   0.825 -0.5442  2.5402 -1.4777
 5690SOL    HW217884   1.172   4.656   0.952  0.1547 -1.5059 -0.3787
 5691SOL     OW17885   2.525   4.507   1.984  0.3056 -0.0417 -0.2458
 5691SOL    HW117886   2.455   4.481   2.045  1.6012  0.0262  1.3198
 5691SOL    HW217887   2.558   4.424   1.950  1.1248 -0.2196  0.9467
 5692SOL     OW17888   5.289   2.094   1.081  0.2623  0.7532 -1.0005
 5692SOL    HW117889   5.328   2.165   1.133 -2.4454  2.5632 -1.3632
 5692SOL    HW217890   5.246   2.037   1.145  1.0934  0.2850 -0.8506
 5693SOL     OW17891   7.550   3.970   3.653  0.3589 -0.2195  0.1911
 5693SOL    HW117892   7.584   3.882   3.637  0.2823 -0.6082  2.0196
 5693SOL    HW217893   7.607   4.028   3.603  0.7448 -1.2554 -0.5896
 5694SOL     OW17894   1.191   1.705   6.828 -0.6664  0.3351 -0.2643
 5694SOL    HW117895   1.113   1.720   6.882  0.9689 -0.7040  2.5092
 5694SOL    HW217896   1.262   1.746   6.878  0.7130  0.4617 -2.2946
 5695SOL     OW17897   1.709   3.718   3.197  0.0383  0.2509 -0.1026
 5695SOL    HW117898   1.803   3.734   3.190  0.0207  0.0481 -0.8511
 5695SOL    HW217899   1.685   3.679   3.113 -0.5538 -0.4872  0.4015
 5696SOL     OW17900   5.371   3.904   4.784  0.2358  0.3121 -0.7294
 5696SOL    HW117901   5.417   3.936   4.707  1.5139  0.0537 -0.0918
 5696SOL    HW217902   5.348   3.983   4.833  0.8822  0.3992 -0.5618
 5697SOL     OW17903   0.000   4.389   7.193  0.1573  0.1036 -0.0095
 5697SOL    HW117904   0.012   4.313   7.136  1.2515 -1.2802  1.9802
 5697SOL    HW217905  -0.081   4.370   7.241  0.4099  0.1927  0.4572
 5698SOL     OW17906   2.434   2.834   1.880  0.1160 -1.1113 -0.4643
 5698SOL    HW117907   2.351   2.855   1.922  1.3215 -1.8650  2.4344
 5698SOL    HW217908   2.477   2.774   1.941  2.2810 -1.6454 -2.4512
 5699SOL     OW17909   7.772   0.864   1.692 -0.0537 -0.1910  0.4912
 5699SOL    HW117910   7.866   0.846   1.687 -0.8746 -5.2335  0.7543
 5699SOL    HW217911   7.755   0.872   1.786  0.2032  1.7780  0.4018
 5700SOL     OW17912   7.300   4.327   4.326 -0.6545  0.1038  0.0667
 5700SOL    HW117913   7.266   4.350   4.240  0.4264 -0.4650 -0.5268
 5700SOL    HW217914   7.236   4.362   4.388 -0.8041  1.6324 -0.9270
 5701SOL     OW17915   2.464   6.083   2.097  0.1050  0.0695 -0.0041
 5701SOL    HW117916   2.442   6.130   2.016  0.5661  2.1920  1.0461
 5701SOL    HW217917   2.556   6.059   2.086  0.3078  0.7838  0.0650
 5702SOL     OW17918   3.525   3.446   5.639  0.6542  0.4193  0.3270
 5702SOL    HW117919   3.452   3.492   5.681  0.0341 -0.8242  0.6481
 5702SOL    HW217920   3.491   3.418   5.554  0.6863 -0.3241  0.5529
 5703SOL     OW17921   6.024   3.692   1.238 -0.2878  0.5568  0.2431
 5703SOL    HW117922   6.064   3.651   1.315 -0.5641  1.3789  0.8287
 5703SOL    HW217923   6.043   3.631   1.166  0.0844 -0.1518  0.9323
 5704SOL     OW17924   6.987   4.852   6.546  0.2950  0.3035 -0.4389
 5704SOL    HW117925   6.921   4.908   6.505  1.0248  0.4090 -1.4859
 5704SOL    HW217926   6.942   4.815   6.622 -0.3653  1.8736 -0.0339
 5705SOL     OW17927   1.510   0.444   3.271  0.4945  0.1751  0.1613
 5705SOL    HW117928   1.548   0.446   3.183  2.3114 -0.8467  0.9031
 5705SOL    HW217929   1.509   0.351   3.295 -0.0723  0.4385  1.1810
 5706SOL     OW17930   0.197   6.284   5.537 -0.5345 -0.6685  0.5787
 5706SOL    HW117931   0.147   6.365   5.535 -0.8139 -0.8644 -0.4351
 5706SOL    HW217932   0.238   6.284   5.623 -1.0446  0.2369  0.8299
 5707SOL     OW17933   7.095   2.709   5.769 -0.0040 -0.3941 -0.4254
 5707SOL    HW117934   7.072   2.715   5.862  0.9487 -0.7924 -0.1451
 5707SOL    HW217935   7.189   2.728   5.767  0.0503 -0.7217 -1.2631
 5708SOL     OW17936   1.320   7.867   7.003 -0.5788 -0.2135  0.0017
 5708SOL    HW117937   1.339   7.774   7.013 -0.4076  0.0157  2.1824
 5708SOL    HW217938   1.226   7.874   7.023 -0.2723  0.2556  1.3488
 5709SOL     OW17939   4.938   0.145   4.742 -0.2898 -0.6242 -0.0339
 5709SOL    HW117940   4.901   0.233   4.739 -0.0324 -0.4740  1.0355
 5709SOL    HW217941   5.014   0.149   4.683  1.3218  0.6444  2.0256
 5710SOL     OW17942   3.644   7.191   1.037 -0.6446  0.0354  0.4975
 5710SOL    HW117943   3.726   7.181   0.989 -0.6562 -0.3518  0.5578
 5710SOL    HW217944   3.583   7.228   0.972 -0.7246 -0.7151  0.1469
 5711SOL     OW17945   2.322   4.337   5.068  0.0169 -0.1313 -0.0508
 5711SOL    HW117946   2.365   4.419   5.087  0.7330 -0.6294  0.4820
 5711SOL    HW217947   2.306   4.297   5.153 -0.5866 -0.4154 -0.2911
 5712SOL     OW17948   0.747   2.715   2.330 -0.3921 -0.7672 -0.5854
 5712SOL    HW117949   0.673   2.705   2.390  1.0921 -3.6449  0.8748
 5712SOL    HW217950   0.713   2.688   2.245 -1.9111  1.1939 -0.6304
 5713SOL     OW17951   0.523   3.263   4.067 -0.1138  0.2294  0.2248
 5713SOL    HW117952   0.481   3.245   4.151 -0.4887  0.6252  0.1240
 5713SOL    HW217953   0.528   3.359   4.063  0.2207  0.2008 -0.0470
 5714SOL     OW17954   3.502   7.474   2.701  0.2779  0.0539  0.5339
 5714SOL    HW117955   3.518   7.543   2.637  1.0820  0.0282  0.7078
 5714SOL    HW217956   3.439   7.512   2.762  1.2960  0.9099  1.0605
 5715SOL     OW17957   3.254   7.225   7.375  0.1693 -0.3216 -0.2772
 5715SOL    HW117958   3.164   7.203   7.400  0.4162 -1.0326 -0.0041
 5715SOL    HW217959   3.305   7.146   7.395  0.9919  0.3545  0.3084
 5716SOL     OW17960   3.183   7.674   5.402  0.4146  0.4168 -0.0681
 5716SOL    HW117961   3.205   7.581   5.399 -2.9316 -0.4363  0.0731
 5716SOL    HW217962   3.229   7.712   5.327 -0.1150 -1.8110 -1.5481
 5717SOL     OW17963   6.411   3.299   5.695  0.0197 -0.6894 -0.2727
 5717SOL    HW117964   6.463   3.227   5.660 -1.2521 -1.7916  0.0826
 5717SOL    HW217965   6.332   3.300   5.641 -0.1527  0.1840 -0.0144
 5718SOL     OW17966   6.847   0.239   5.067  0.4328  0.8971  0.4603
 5718SOL    HW117967   6.911   0.173   5.038 -0.4267 -0.5752  1.8340
 5718SOL    HW217968   6.893   0.322   5.057  1.4468  0.1296 -1.5610
 5719SOL     OW17969   3.110   5.826   1.021 -0.1142 -0.4752  0.2566
 5719SOL    HW117970   3.061   5.799   1.098 -0.1948  0.2962  0.4734
 5719SOL    HW217971   3.182   5.880   1.055 -0.8475  0.8590 -0.2979
 5720SOL     OW17972   1.315   4.049   5.285  0.3983  0.7034 -0.2397
 5720SOL    HW117973   1.374   4.067   5.358  1.4233 -0.0783 -0.8680
 5720SOL    HW217974   1.350   4.101   5.212  0.1850  0.4231 -0.5465
 5721SOL     OW17975   7.699   2.459   3.489 -0.4951 -0.0657  0.0550
 5721SOL    HW117976   7.787   2.435   3.519 -0.5191  0.3153  0.4286
 5721SOL    HW217977   7.690   2.551   3.511 -1.3838 -0.3569  0.9492
 5722SOL     OW17978   6.230   0.665   0.198  0.2270 -0.2482 -0.6552
 5722SOL    HW117979   6.216   0.596   0.134 -0.7210 -1.5210  0.8818
 5722SOL    HW217980   6.156   0.725   0.185  0.9801  0.4503 -1.8952
 5723SOL     OW17981   6.512   7.571   2.759 -0.1457 -0.3774 -0.1354
 5723SOL    HW117982   6.540   7.576   2.850 -1.6918  0.0182  0.3293
 5723SOL    HW217983   6.552   7.647   2.718  2.8895 -2.0736 -0.4712
 5724SOL     OW17984   5.481   0.554   3.829 -0.2852  0.1362  0.0258
 5724SOL    HW117985   5.535   0.551   3.749 -0.1669  1.4441  0.0592
 5724SOL    HW217986   5.470   0.647   3.848  0.8112 -0.1701  2.3158
 5725SOL     OW17987   3.375   2.496   2.695  0.3896 -0.7204 -0.3415
 5725SOL    HW117988   3.376   2.436   2.620 -0.2042 -1.2566  0.0710
 5725SOL    HW217989   3.285   2.492   2.727  0.4529  0.0909 -0.0600
 5726SOL     OW17990   6.995   2.565   2.364 -0.0416  0.0569  0.1507
 5726SOL    HW117991   7.069   2.505   2.373  0.7110  1.2869  2.5717
 5726SOL    HW217992   6.921   2.508   2.343  0.9878 -1.5439  0.7267
 5727SOL     OW17993   3.518   1.437   0.631 -0.2613 -0.2569  0.1122
 5727SOL    HW117994   3.459   1.398   0.567 -0.3561 -1.2347  0.7934
 5727SOL    HW217995   3.465   1.505   0.673  0.3440  1.6364 -2.0748
 5728SOL     OW17996   7.929   5.229   5.166 -0.0006 -0.5952  0.2102
 5728SOL    HW117997   7.909   5.225   5.260  0.6051 -0.5451  0.3441
 5728SOL    HW217998   7.929   5.322   5.145  1.0841 -0.5373  0.4335
 5729SOL     OW17999   6.563   4.273   2.460 -0.0512  0.4630 -0.5452
 5729SOL    HW118000   6.539   4.197   2.407 -1.1539  0.6658 -0.3560
 5729SOL    HW218001   6.641   4.246   2.508 -0.3203 -0.4790 -0.6301
 5730SOL     OW18002   1.807   2.245   2.301 -0.5889 -0.0825 -0.6239
 5730SOL    HW118003   1.731   2.266   2.355 -2.1444 -2.9714 -1.5837
 5730SOL    HW218004   1.782   2.272   2.213 -0.1010 -0.0598 -0.7546
 5731SOL     OW18005   7.411   5.237   1.109 -0.0229  0.0021  0.1480
 5731SOL    HW118006   7.506   5.230   1.105  0.1197  1.2953  1.1184
 5731SOL    HW218007   7.386   5.270   1.023  0.4599  0.2343  0.0957
 5732SOL     OW18008   3.066   2.339   7.659  0.9476  0.0917 -0.4881
 5732SOL    HW118009   3.036   2.299   7.578 -2.6032  1.2689  0.1466
 5732SOL    HW218010   3.082   2.266   7.718  0.6630 -0.6336 -1.3026
 5733SOL     OW18011   7.336   5.392   3.090  0.1383 -0.2789  0.1673
 5733SOL    HW118012   7.291   5.320   3.047  0.5133  0.5739 -1.7358
 5733SOL    HW218013   7.413   5.351   3.131 -0.1777 -1.1081 -0.0596
 5734SOL     OW18014   5.584   1.316   6.505 -0.0328 -0.1327  0.7267
 5734SOL    HW118015   5.517   1.360   6.453  0.7782  0.3264  0.0445
 5734SOL    HW218016   5.666   1.355   6.475  0.5828 -1.1045  1.1273
 5735SOL     OW18017   4.946   3.584   3.232  0.0171  0.2017  0.2187
 5735SOL    HW118018   4.973   3.558   3.144  1.3177  0.9751  0.3839
 5735SOL    HW218019   5.022   3.566   3.287 -0.0691  1.6576  0.8245
 5736SOL     OW18020   4.374   1.691   2.821  0.4329 -0.1031 -0.1324
 5736SOL    HW118021   4.386   1.635   2.745  0.3275  1.4237 -1.2911
 5736SOL    HW218022   4.387   1.780   2.788  2.9643  0.4501  2.1217
 5737SOL     OW18023   2.275   5.825   3.872  0.3620 -0.0290  0.5124
 5737SOL    HW118024   2.204   5.767   3.898 -1.6354  2.4511  0.7587
 5737SOL    HW218025   2.263   5.904   3.925  0.8161  2.0811 -2.4109
 5738SOL     OW18026   7.278   1.272   7.868  0.1681  0.1597 -0.4471
 5738SOL    HW118027   7.284   1.327   7.946  0.3908  1.3270 -1.2791
 5738SOL    HW218028   7.189   1.236   7.870  0.3946 -0.3636  0.6974
 5739SOL     OW18029   6.173   5.675   3.023 -0.2687  0.3693 -0.1100
 5739SOL    HW118030   6.078   5.680   3.023 -0.1972  2.3286 -0.2202
 5739SOL    HW218031   6.197   5.664   2.931 -0.3894  0.3028 -0.1330
 5740SOL     OW18032   6.617   3.491   6.233 -0.1235  0.0669 -0.3353
 5740SOL    HW118033   6.618   3.547   6.310 -0.2597  1.1359 -1.0983
 5740SOL    HW218034   6.595   3.550   6.161  1.4770 -0.6180 -1.4207
 5741SOL     OW18035   3.344   1.515   5.950  0.1992 -0.5030  0.2265
 5741SOL    HW118036   3.340   1.485   5.860  1.0909 -3.5031  1.1358
 5741SOL    HW218037   3.351   1.610   5.944  0.1977 -0.6693 -2.8308
 5742SOL     OW18038   0.144   3.442   6.882 -0.4299  0.2456  0.0074
 5742SOL    HW118039   0.185   3.359   6.855 -0.3842  0.2049  0.2021
 5742SOL    HW218040   0.051   3.421   6.890 -0.2941 -0.0183  0.9551
 5743SOL     OW18041   4.651   3.581   0.962  0.5716 -0.0901  0.4931
 5743SOL    HW118042   4.624   3.492   0.939  2.6128 -0.5382 -0.2821
 5743SOL    HW218043   4.613   3.636   0.893  0.7024 -0.5705  0.0307
 5744SOL     OW18044   6.982   7.105   2.954  1.2791 -0.0299  0.1261
 5744SOL    HW118045   6.970   7.134   2.863 -0.7956  0.3452  0.5111
 5744SOL    HW218046   7.018   7.181   2.999 -0.8125  0.8472  0.3424
 5745SOL     OW18047   0.188   4.339   3.469 -0.4775  0.0792 -0.1267
 5745SOL    HW118048   0.148   4.253   3.477  0.9701 -0.5270  0.7289
 5745SOL    HW218049   0.265   4.326   3.414 -1.4593  1.2683 -1.8707
 5746SOL     OW18050   6.880   7.583   2.902  0.1067  0.1497  0.5757
 5746SOL    HW118051   6.927   7.541   2.830 -1.0195 -0.9864  0.4728
 5746SOL    HW218052   6.922   7.669   2.912 -0.1923  0.6364 -1.9295
 5747SOL     OW18053   1.631   7.444   6.167 -0.6002 -0.1017  0.0087
 5747SOL    HW118054   1.668   7.508   6.227 -0.2126  0.9467 -1.3325
 5747SOL    HW218055   1.539   7.438   6.193 -0.2144 -0.4281  1.3584
 5748SOL     OW18056   7.976   1.536   7.147 -0.3264  0.1433  0.2135
 5748SOL    HW118057   7.923   1.580   7.213  0.0500 -1.1202  1.4008
 5748SOL    HW218058   7.952   1.578   7.064 -1.2823  1.3151  1.0654
 5749SOL     OW18059   1.154   0.452   0.031  0.4746  0.8432 -0.0777
 5749SOL    HW118060   1.142   0.424   0.122  0.4263 -0.2109 -0.4036
 5749SOL    HW218061   1.068   0.486   0.006 -0.5826 -2.1864 -0.8482
 5750SOL     OW18062   6.392   7.669   0.987 -0.2748  0.3081  0.5512
 5750SOL    HW118063   6.359   7.593   0.939 -0.8494 -1.0736  3.0552
 5750SOL    HW218064   6.484   7.676   0.963 -0.5708 -0.3069 -0.7775
 5751SOL     OW18065   0.191   5.103   5.144  0.3643 -0.0418 -0.1520
 5751SOL    HW118066   0.222   5.164   5.211 -0.6955  0.3179  0.0132
 5751SOL    HW218067   0.107   5.138   5.117 -0.3350 -1.5290  0.0670
 5752SOL     OW18068   2.393   7.327   1.334  0.5071  0.0573  0.6111
 5752SOL    HW118069   2.318   7.268   1.333  0.9639 -0.5669  1.6578
 5752SOL    HW218070   2.401   7.359   1.244 -0.7887 -0.1489  0.4218
 5753SOL     OW18071   2.502   7.075   7.847 -0.3196  0.0522  0.2358
 5753SOL    HW118072   2.472   6.993   7.887 -1.2296 -0.2246 -1.0004
 5753SOL    HW218073   2.442   7.141   7.881 -0.1773  0.0587  0.4793
 5754SOL     OW18074   3.366   2.947   4.628 -0.0865 -0.8860 -0.0488
 5754SOL    HW118075   3.402   2.991   4.705  0.4575 -2.4808  0.6496
 5754SOL    HW218076   3.422   2.974   4.556 -0.1131 -0.0013  0.2566
 5755SOL     OW18077   2.261   4.583   6.306 -0.2039  0.1105  0.3442
 5755SOL    HW118078   2.182   4.529   6.315  2.0257 -2.9922  2.0725
 5755SOL    HW218079   2.247   4.632   6.225 -1.7620 -4.1186 -2.0965
 5756SOL     OW18080   3.646   3.101   0.173  0.1851  0.0009  0.7622
 5756SOL    HW118081   3.724   3.152   0.195 -0.4825  0.8707  1.1723
 5756SOL    HW218082   3.650   3.026   0.232 -0.4890  1.2375  2.4313
 5757SOL     OW18083   1.257   7.417   0.300  0.3385  0.9075  0.2325
 5757SOL    HW118084   1.183   7.419   0.240  0.5829 -0.4246 -0.1115
 5757SOL    HW218085   1.255   7.330   0.339  1.0461  1.2597  1.0761
 5758SOL     OW18086   0.850   1.843   7.523 -0.2168  0.1500 -0.0501
 5758SOL    HW118087   0.762   1.816   7.498  0.3156 -1.2898 -0.3793
 5758SOL    HW218088   0.875   1.782   7.592 -0.3791  2.0197  1.7199
 5759SOL     OW18089   3.966   1.733   5.542 -0.1317 -0.2577 -0.1814
 5759SOL    HW118090   3.998   1.801   5.482 -2.1657  1.0795  0.2001
 5759SOL    HW218091   4.033   1.665   5.538  0.9861  0.8878 -2.0954
 5760SOL     OW18092   4.056   3.775   6.127  0.0208 -0.5958 -0.6622
 5760SOL    HW118093   4.101   3.706   6.079 -0.8429 -2.1721  0.7277
 5760SOL    HW218094   3.990   3.809   6.066 -0.3334 -1.8137 -0.9680
 5761SOL     OW18095   7.077   3.394   6.028  0.0993 -0.4082 -0.2623
 5761SOL    HW118096   7.112   3.480   6.003  0.4449 -0.3013  0.5604
 5761SOL    HW218097   7.110   3.380   6.117 -2.3785 -0.0939  0.7496
 5762SOL     OW18098   4.082   1.993   4.845  0.2287  0.7116  0.1033
 5762SOL    HW118099   4.037   1.990   4.761  2.3947  0.6024 -1.0694
 5762SOL    HW218100   4.011   2.004   4.909 -1.5469 -0.4299 -1.5986
 5763SOL     OW18101   0.654   2.215   1.025 -0.4565 -0.0439  0.0568
 5763SOL    HW118102   0.658   2.272   1.102 -0.3677  2.1258 -1.5163
 5763SOL    HW218103   0.727   2.245   0.970  0.6692 -2.8276 -0.0532
 5764SOL     OW18104   4.775   2.933   4.502 -0.6674  0.5961  0.3183
 5764SOL    HW118105   4.860   2.889   4.499 -1.1880 -0.4252  0.2915
 5764SOL    HW218106   4.793   3.022   4.471  0.3230  0.2843 -0.0294
 5765SOL     OW18107   0.074   0.945   3.949  0.3642 -0.0897 -0.1390
 5765SOL    HW118108   0.132   0.887   3.997 -0.7622 -0.5502  0.6850
 5765SOL    HW218109  -0.007   0.895   3.939 -0.1410  0.8135 -0.6413
 5766SOL     OW18110   6.726   5.042   3.333  0.4683 -0.4376  0.1013
 5766SOL    HW118111   6.745   4.958   3.291  0.9087  0.5395 -1.7002
 5766SOL    HW218112   6.644   5.028   3.380 -0.5843 -1.3034 -1.9240
 5767SOL     OW18113   4.831   2.576   4.498 -0.1185 -0.2787 -0.5442
 5767SOL    HW118114   4.920   2.610   4.503  0.1619 -1.2637  3.3238
 5767SOL    HW218115   4.780   2.635   4.553 -1.3576 -1.0599 -0.8424
 5768SOL     OW18116   5.574   0.960   5.893 -0.0916  0.0586 -0.1942
 5768SOL    HW118117   5.613   1.026   5.836  2.8272 -2.2562 -1.0032
 5768SOL    HW218118   5.487   0.944   5.857 -0.3328  2.4940 -0.7399
 5769SOL     OW18119   3.371   4.784   7.931 -0.0421 -0.1414 -0.2861
 5769SOL    HW118120   3.338   4.760   8.018  2.1961 -0.7723  0.4190
 5769SOL    HW218121   3.339   4.873   7.917  0.5894  0.4168  1.7030
 5770SOL     OW18122   0.014   6.371   5.842  0.5021 -0.2002 -0.5708
 5770SOL    HW118123  -0.032   6.287   5.838  0.1502  0.0478 -2.5225
 5770SOL    HW218124  -0.035   6.427   5.782  1.5609  0.9770 -0.3444
 5771SOL     OW18125   0.555   6.263   7.451  0.3291 -0.0967 -0.2725
 5771SOL    HW118126   0.499   6.283   7.376 -2.8988  0.1508  2.0794
 5771SOL    HW218127   0.598   6.347   7.472 -2.0192  0.9208  0.6829
 5772SOL     OW18128   5.210   0.461   7.627  0.4064  0.3288  0.0605
 5772SOL    HW118129   5.184   0.445   7.718  1.4132  1.6401  0.5867
 5772SOL    HW218130   5.198   0.376   7.584 -0.5362 -0.1839  1.2948
 5773SOL     OW18131   3.929   3.003   1.617 -0.1198 -0.0106 -0.2172
 5773SOL    HW118132   3.912   2.913   1.643 -0.0281 -0.0962 -0.4490
 5773SOL    HW218133   3.914   3.004   1.523  1.1598 -0.0985 -0.4417
 5774SOL     OW18134   5.018   1.214   4.377 -0.1691 -0.2676 -0.7210
 5774SOL    HW118135   5.017   1.223   4.472  0.4433  2.0415 -0.8977
 5774SOL    HW218136   5.085   1.148   4.360  0.4653  0.0760  0.3955
 5775SOL     OW18137   3.840   5.836   2.600 -0.6378 -0.8774  0.2552
 5775SOL    HW118138   3.861   5.814   2.691  1.5366 -0.2098 -0.0511
 5775SOL    HW218139   3.925   5.832   2.555 -1.4279  0.4739 -1.3765
 5776SOL     OW18140   0.235   1.894   6.918  0.2253 -0.6608 -0.0794
 5776SOL    HW118141   0.323   1.856   6.923 -1.4372 -5.2826 -2.5428
 5776SOL    HW218142   0.196   1.876   7.004  1.2987  0.5175  0.6727
 5777SOL     OW18143   1.371   2.074   6.239 -0.0547  0.1844  0.2434
 5777SOL    HW118144   1.385   2.165   6.214  1.9347 -0.0625  0.4155
 5777SOL    HW218145   1.342   2.031   6.158  0.2768  0.7000 -0.1529
 5778SOL     OW18146   4.289   2.673   4.056  0.2407  0.4620  0.3635
 5778SOL    HW118147   4.331   2.717   4.129  1.8292  0.9857 -0.8404
 5778SOL    HW218148   4.353   2.677   3.985 -1.5542  0.6262 -1.2954
 5779SOL     OW18149   6.814   6.844   4.292  0.0590  0.4508  0.0313
 5779SOL    HW118150   6.868   6.796   4.229 -0.7157  0.9078 -0.9999
 5779SOL    HW218151   6.753   6.894   4.237 -1.4741 -0.1306  1.1759
 5780SOL     OW18152   1.502   6.004   1.099 -0.1053  0.2870 -0.4030
 5780SOL    HW118153   1.544   6.025   1.182  0.7608  0.7446 -0.9480
 5780SOL    HW218154   1.408   6.014   1.116  0.0490  0.0470  0.6032
 5781SOL     OW18155   1.728   3.159   5.412 -0.2679 -0.5968 -0.2118
 5781SOL    HW118156   1.794   3.146   5.344  1.5546  0.8685  1.2191
 5781SOL    HW218157   1.694   3.071   5.429  2.5526 -1.6539  0.2281
 5782SOL     OW18158   4.141   1.209   7.269 -0.2938 -0.1086  0.1538
 5782SOL    HW118159   4.185   1.257   7.199  0.3438 -1.5317 -0.4344
 5782SOL    HW218160   4.102   1.277   7.323  1.1696  1.1135 -0.2834
 5783SOL     OW18161   3.330   7.054   5.578  0.9546 -0.2647  0.1604
 5783SOL    HW118162   3.310   6.981   5.636  0.6128  0.4179  0.9195
 5783SOL    HW218163   3.261   7.053   5.512 -1.0562  1.4560  2.1712
 5784SOL     OW18164   7.430   3.121   3.223 -0.1917  0.4067 -0.6074
 5784SOL    HW118165   7.457   3.144   3.134  1.9939  1.2610  0.2235
 5784SOL    HW218166   7.368   3.189   3.248  1.5901  2.0001 -0.3819
 5785SOL     OW18167   5.441   2.460   5.078 -0.0242  0.0157  0.1563
 5785SOL    HW118168   5.534   2.472   5.098  0.2020  0.3518 -1.0964
 5785SOL    HW218169   5.417   2.380   5.125  0.8003  0.1265  0.7866
 5786SOL     OW18170   7.213   3.758   0.186  0.1724  0.1513  0.0454
 5786SOL    HW118171   7.306   3.768   0.207  0.1549  0.2585  0.0763
 5786SOL    HW218172   7.198   3.664   0.186 -0.1240  0.1710  1.9077
 5787SOL     OW18173   5.505   1.507   3.511 -0.4039  0.7145  0.1952
 5787SOL    HW118174   5.473   1.457   3.586 -1.6468 -0.2061 -0.9042
 5787SOL    HW218175   5.461   1.467   3.436  0.2020  2.1265 -0.9351
 5788SOL     OW18176   4.916   3.225   6.740  0.0444  0.4380  0.1392
 5788SOL    HW118177   4.846   3.288   6.718  0.5837  1.0564  0.1822
 5788SOL    HW218178   4.870   3.142   6.753 -0.7319  0.9288  0.5582
 5789SOL     OW18179   5.907   7.127   4.591 -0.5344  0.4603 -0.2293
 5789SOL    HW118180   5.910   7.089   4.679 -0.8503  1.5700  0.2810
 5789SOL    HW218181   5.844   7.073   4.544 -1.5538  0.7918  0.7129
 5790SOL     OW18182   6.821   3.535   5.840 -0.4059 -0.1170 -0.6390
 5790SOL    HW118183   6.863   3.453   5.865 -0.0249  0.6050  1.1639
 5790SOL    HW218184   6.733   3.509   5.813  0.8214 -1.5140 -3.4769
 5791SOL     OW18185   3.500   4.948   4.652 -0.8088 -0.4134 -0.1489
 5791SOL    HW118186   3.496   4.957   4.747 -0.4371 -1.0122 -0.0742
 5791SOL    HW218187   3.419   4.988   4.621 -0.2720  1.0800  0.3262
 5792SOL     OW18188   4.936   4.468   4.877 -0.4328  0.3641 -0.2751
 5792SOL    HW118189   4.873   4.522   4.829 -1.4275 -0.1948  0.3901
 5792SOL    HW218190   5.003   4.530   4.906 -1.6131  1.2668  0.5692
 5793SOL     OW18191   0.506   4.319   4.473  0.4032  0.6631 -0.1614
 5793SOL    HW118192   0.550   4.237   4.450  0.4799  0.8077 -0.5404
 5793SOL    HW218193   0.528   4.334   4.565 -1.1316 -0.6927  0.4504
 5794SOL     OW18194   5.191   6.497   3.491 -0.3824  0.3091 -0.1472
 5794SOL    HW118195   5.115   6.506   3.434 -1.5565  1.0407  1.4964
 5794SOL    HW218196   5.266   6.508   3.433 -1.4414 -2.8550 -2.2526
 5795SOL     OW18197   4.370   0.909   5.327 -0.1005  0.9706  0.3269
 5795SOL    HW118198   4.331   0.934   5.411  1.0915  0.9164  0.9123
 5795SOL    HW218199   4.316   0.953   5.262 -1.9414 -0.1727  1.0452
 5796SOL     OW18200   1.745   7.204   1.304  0.0713 -0.3233 -0.0707
 5796SOL    HW118201   1.748   7.111   1.327 -1.7041 -0.1338  1.0730
 5796SOL    HW218202   1.829   7.239   1.334  1.2546 -1.7550 -1.5718
 5797SOL     OW18203   0.002   4.715   4.292 -0.5350 -0.5057  0.3455
 5797SOL    HW118204   0.016   4.809   4.286  0.3129 -0.6819 -0.8599
 5797SOL    HW218205  -0.054   4.703   4.368  0.9617  0.8088  1.6941
 5798SOL     OW18206   3.515   5.227   5.471 -0.3704 -0.3771 -0.1474
 5798SOL    HW118207   3.431   5.181   5.478 -1.5832  1.9084  0.7916
 5798SOL    HW218208   3.523   5.246   5.377 -0.6733 -1.0610 -0.3124
 5799SOL     OW18209   3.415   5.136   1.821 -0.0414 -0.2597 -0.3636
 5799SOL    HW118210   3.384   5.225   1.839 -2.1202 -0.7914 -1.1608
 5799SOL    HW218211   3.459   5.143   1.736 -1.9184 -0.3406 -1.3746
 5800SOL     OW18212   2.409   1.466   4.316  0.0753 -0.1356 -0.1918
 5800SOL    HW118213   2.362   1.549   4.311 -0.2268 -0.1671  1.9420
 5800SOL    HW218214   2.342   1.400   4.294 -0.0340  0.0625 -0.4598
 5801SOL     OW18215   2.672   4.032   0.771  0.3535  0.1423  0.4739
 5801SOL    HW118216   2.684   4.122   0.801  0.8910 -0.6178  2.5588
 5801SOL    HW218217   2.761   4.000   0.754  0.3660 -0.9069  2.4508
 5802SOL     OW18218   0.028   4.026   4.261 -0.2939  0.1128 -0.0216
 5802SOL    HW118219   0.051   4.057   4.174 -1.7909 -0.4583 -0.6354
 5802SOL    HW218220  -0.065   4.049   4.272  0.2394  1.4835  2.0026
 5803SOL     OW18221   1.891   2.622   1.238  0.5340  0.2057  0.4035
 5803SOL    HW118222   1.915   2.531   1.220  0.9285  0.6423 -1.3671
 5803SOL    HW218223   1.890   2.664   1.152 -2.9130  1.1139  0.7999
 5804SOL     OW18224   1.003   2.188   2.544 -0.2436  0.0689  0.8371
 5804SOL    HW118225   1.055   2.112   2.517  0.9395  0.6157  1.5451
 5804SOL    HW218226   0.986   2.236   2.463  0.1692 -0.2273  0.5772
 5805SOL     OW18227   4.431   7.344   6.638  0.5185  0.3465 -0.0496
 5805SOL    HW118228   4.517   7.361   6.677  1.5726 -0.9135 -1.7017
 5805SOL    HW218229   4.429   7.400   6.561 -0.2571  0.5606  0.1283
 5806SOL     OW18230   0.018   6.617   4.365 -0.4931 -0.6627 -0.5988
 5806SOL    HW118231   0.024   6.572   4.450 -1.6292  0.6823  0.1997
 5806SOL    HW218232   0.082   6.571   4.310  2.5021  0.3837  1.8464
 5807SOL     OW18233   5.633   3.710   4.597 -0.0965 -0.4139 -0.3782
 5807SOL    HW118234   5.717   3.689   4.555  0.0292 -1.5887  0.4344
 5807SOL    HW218235   5.578   3.634   4.580 -0.7238 -0.0098 -0.1700
 5808SOL     OW18236   5.773   0.471   2.734  0.1162  0.3421  0.2599
 5808SOL    HW118237   5.764   0.532   2.661  2.6871  0.7895  0.2609
 5808SOL    HW218238   5.731   0.516   2.808 -2.4336 -0.0853 -0.8868
 5809SOL     OW18239   3.287   7.551   1.525  0.4980 -0.4929 -0.4697
 5809SOL    HW118240   3.286   7.455   1.522  1.1779 -0.5019 -0.4688
 5809SOL    HW218241   3.378   7.574   1.547 -0.0574  0.1028  1.2676
 5810SOL     OW18242   2.120   5.766   6.728 -0.3291  0.0103  0.8930
 5810SOL    HW118243   2.127   5.718   6.810 -0.3389  0.0861  0.9381
 5810SOL    HW218244   2.046   5.727   6.682  0.7328 -1.1732  0.1644
 5811SOL     OW18245   2.859   0.818   0.215 -0.1500 -0.1536 -0.3762
 5811SOL    HW118246   2.798   0.749   0.188 -0.1919  0.0994 -0.9543
 5811SOL    HW218247   2.806   0.878   0.267 -0.2884 -0.1688 -0.4993
 5812SOL     OW18248   2.129   0.323   1.580 -0.0404  0.2191  0.5856
 5812SOL    HW118249   2.088   0.409   1.589 -0.9467  0.0132 -1.4715
 5812SOL    HW218250   2.065   0.262   1.615 -0.8130  0.0691 -1.0440
 5813SOL     OW18251   7.195   5.088   4.440 -0.5310  0.4957 -0.0023
 5813SOL    HW118252   7.257   5.017   4.458 -1.0768  0.3262  1.2366
 5813SOL    HW218253   7.220   5.158   4.500 -1.5147  0.4361  0.4944
 5814SOL     OW18254   5.744   4.925   4.884 -0.4500  0.2188 -0.0105
 5814SOL    HW118255   5.698   4.875   4.951  0.2650  0.3071  0.5425
 5814SOL    HW218256   5.835   4.897   4.891  0.1136  2.1746  0.8485
 5815SOL     OW18257   3.543   0.476   3.444 -0.1594  0.3125 -0.6741
 5815SOL    HW118258   3.591   0.446   3.367  0.3093  2.5379 -1.2724
 5815SOL    HW218259   3.491   0.549   3.412 -0.7990  0.5520  0.8975
 5816SOL     OW18260   7.658   5.383   7.830 -0.2282  0.1831  1.0385
 5816SOL    HW118261   7.669   5.343   7.744  2.7999 -0.2531  1.5589
 5816SOL    HW218262   7.580   5.341   7.866 -0.6436 -0.7447 -0.9019
 5817SOL     OW18263   1.453   0.734   4.106  0.4570 -0.0277  0.1697
 5817SOL    HW118264   1.384   0.669   4.094 -0.6670  1.4504 -1.5688
 5817SOL    HW218265   1.535   0.686   4.093 -0.3939 -0.8423 -2.2997
 5818SOL     OW18266   1.615   0.925   6.545 -0.3720 -0.7621  0.4094
 5818SOL    HW118267   1.590   1.009   6.506  0.8287  0.2813  1.7795
 5818SOL    HW218268   1.710   0.921   6.534 -0.2104 -1.1583  1.8060
 5819SOL     OW18269   0.903   6.970   2.082  0.1725 -0.3581  0.1443
 5819SOL    HW118270   0.947   6.912   2.021 -0.9398 -0.8232 -0.2376
 5819SOL    HW218271   0.822   6.924   2.106 -1.0730  1.3091 -0.6881
 5820SOL     OW18272   5.673   5.483   3.386 -0.3545  0.1249 -0.5649
 5820SOL    HW118273   5.611   5.543   3.426  0.9497  0.3683  1.1150
 5820SOL    HW218274   5.620   5.428   3.328 -2.2356 -0.1247  1.3739
 5821SOL     OW18275   0.698   1.918   0.975 -0.4139  0.0785 -0.1893
 5821SOL    HW118276   0.623   1.903   0.917 -0.1654  0.3694 -0.5895
 5821SOL    HW218277   0.687   2.007   1.007 -0.6373 -0.1357  0.3492
 5822SOL     OW18278   2.249   0.205   2.319 -0.1091  0.4072  0.6167
 5822SOL    HW118279   2.265   0.225   2.227  1.9563  0.6855  1.0009
 5822SOL    HW218280   2.227   0.112   2.320 -1.1820  0.6448 -0.2619
 5823SOL     OW18281   6.977   0.167   4.483  0.0400 -0.1056  0.2354
 5823SOL    HW118282   7.006   0.244   4.531 -1.5817  0.6454  0.0550
 5823SOL    HW218283   7.030   0.166   4.404  0.9171  0.1217  0.8196
 5824SOL     OW18284   5.261   3.810   6.163 -0.2769 -0.3741  0.4042
 5824SOL    HW118285   5.259   3.885   6.105  2.0772 -1.2881 -0.9535
 5824SOL    HW218286   5.205   3.745   6.120  1.8721 -1.2349 -1.1717
 5825SOL     OW18287   2.267   5.392   7.132 -0.0466  0.6450 -0.1301
 5825SOL    HW118288   2.259   5.320   7.195 -0.5225  0.4738 -0.3814
 5825SOL    HW218289   2.315   5.354   7.059  0.9576  0.9885  0.3424
 5826SOL     OW18290   3.636   1.929   0.101 -0.5042 -0.1789  0.3863
 5826SOL    HW118291   3.576   1.950   0.173  0.6171  0.9216  1.0235
 5826SOL    HW218292   3.719   1.969   0.128  0.6235 -2.0513 -0.2875
 5827SOL     OW18293   1.906   6.460   7.674 -0.0492 -0.2306 -0.2060
 5827SOL    HW118294   1.866   6.377   7.699 -0.6042  0.0364 -0.2077
 5827SOL    HW218295   1.999   6.450   7.696 -0.1073 -0.8705 -0.2595
 5828SOL     OW18296   0.705   5.139   3.302  0.1958 -0.5705 -0.0333
 5828SOL    HW118297   0.660   5.186   3.371 -1.5603  0.2926 -1.7184
 5828SOL    HW218298   0.712   5.049   3.334 -0.8040 -0.2377  1.1506
 5829SOL     OW18299   6.111   1.664   4.329 -0.0968 -0.3555 -0.0441
 5829SOL    HW118300   6.144   1.741   4.282 -0.1083 -0.2035  0.1932
 5829SOL    HW218301   6.163   1.591   4.295  1.8852  0.1581  1.7376
 5830SOL     OW18302   7.415   1.850   2.625  0.4817 -0.7508 -0.2024
 5830SOL    HW118303   7.357   1.774   2.617  0.7942 -0.9577 -0.5073
 5830SOL    HW218304   7.383   1.896   2.702  0.8828 -1.6956  0.5416
 5831SOL     OW18305   4.187   1.721   1.200 -0.1814  0.1617  0.0250
 5831SOL    HW118306   4.201   1.774   1.279 -0.8131 -0.8764  0.8431
 5831SOL    HW218307   4.274   1.686   1.180  0.2944  1.6601 -0.6627
 5832SOL     OW18308   3.938   2.117   3.565 -0.2730 -0.4987 -0.4088
 5832SOL    HW118309   3.877   2.105   3.492  0.3391 -1.0311 -0.8407
 5832SOL    HW218310   4.009   2.170   3.529  1.3577 -2.9920 -0.9892
 5833SOL     OW18311   3.591   2.629   6.018 -0.4313  0.0483  0.1452
 5833SOL    HW118312   3.534   2.553   6.027 -0.9964  0.5432  0.7022
 5833SOL    HW218313   3.597   2.643   5.923 -1.5994  0.2842  0.1064
 5834SOL     OW18314   7.415   7.060   4.810 -0.3482 -0.0172  0.0653
 5834SOL    HW118315   7.500   7.094   4.838 -0.5863  2.1080 -1.6581
 5834SOL    HW218316   7.364   7.053   4.891  0.7755  0.7863  0.8559
 5835SOL     OW18317   6.087   2.480   5.492  0.2358  0.2484  0.1555
 5835SOL    HW118318   6.069   2.427   5.569 -0.6189 -1.1544 -0.9787
 5835SOL    HW218319   6.106   2.567   5.527 -0.0403 -0.3832  1.9446
 5836SOL     OW18320   0.781   4.890   4.271  0.0403  0.0424 -0.2407
 5836SOL    HW118321   0.750   4.925   4.188  0.1434 -0.4600 -0.4980
 5836SOL    HW218322   0.832   4.961   4.311 -0.6151  0.5285 -0.2735
 5837SOL     OW18323   7.601   2.547   4.506  0.2189 -0.3878 -0.2626
 5837SOL    HW118324   7.613   2.483   4.577  2.9451 -0.8726 -1.1142
 5837SOL    HW218325   7.635   2.629   4.542 -0.2917 -0.1469 -0.3212
 5838SOL     OW18326   5.145   1.375   2.777 -0.4003  0.3837  0.1912
 5838SOL    HW118327   5.067   1.338   2.736 -0.1315 -0.1379  0.1431
 5838SOL    HW218328   5.124   1.380   2.870  0.1632 -1.4888  0.4502
 5839SOL     OW18329   6.505   2.084   2.411  0.0632  0.0576 -0.5639
 5839SOL    HW118330   6.437   2.043   2.465  1.5458 -1.5558  0.1583
 5839SOL    HW218331   6.554   2.139   2.472 -0.6897  1.3414 -1.1151
 5840SOL     OW18332   0.188   5.071   3.714 -0.0389  0.4070  0.1968
 5840SOL    HW118333   0.095   5.059   3.734 -0.1365  1.8126  0.6029
 5840SOL    HW218334   0.234   5.021   3.781 -0.4032  3.7337  3.0442
 5841SOL     OW18335   2.017   3.830   1.831 -0.0303 -0.8310  0.2857
 5841SOL    HW118336   1.979   3.910   1.795  1.8465  0.7260  1.6586
 5841SOL    HW218337   2.022   3.770   1.756 -1.0920  0.4694 -0.8537
 5842SOL     OW18338   6.145   5.575   4.469 -0.0324 -0.2291  0.3975
 5842SOL    HW118339   6.171   5.487   4.494  1.9166  0.3128  0.3440
 5842SOL    HW218340   6.199   5.595   4.392 -3.2437 -0.4651 -2.0313
 5843SOL     OW18341   6.488   6.176   1.160 -0.1045 -0.0400  0.0305
 5843SOL    HW118342   6.459   6.244   1.221  1.0590  0.2778  0.2359
 5843SOL    HW218343   6.427   6.182   1.087 -0.6302  0.5364  0.5108
 5844SOL     OW18344   6.922   7.279   4.862 -0.3013 -0.5428 -0.0860
 5844SOL    HW118345   6.851   7.239   4.912  0.2428 -0.4576  0.7640
 5844SOL    HW218346   6.971   7.330   4.927 -0.7261  1.1421 -1.0594
 5845SOL     OW18347   6.710   7.450   3.079 -0.4382  0.1733  0.2971
 5845SOL    HW118348   6.682   7.380   3.020 -2.0872  0.1077  1.1235
 5845SOL    HW218349   6.770   7.503   3.027 -0.2117 -1.0935 -0.7550
 5846SOL     OW18350   7.953   1.911   3.321 -0.6408 -0.2057  0.4062
 5846SOL    HW118351   7.883   1.970   3.294 -0.1205 -0.8590 -2.5527
 5846SOL    HW218352   8.032   1.948   3.282 -0.0485 -1.9223 -0.0747
 5847SOL     OW18353   6.876   7.230   7.372 -0.0604 -0.4723 -0.0289
 5847SOL    HW118354   6.955   7.257   7.324 -0.5701 -0.4788 -0.8841
 5847SOL    HW218355   6.852   7.307   7.423 -0.3050  0.0070 -0.8549
 5848SOL     OW18356   0.134   1.173   3.811 -0.5072 -0.0431 -0.1034
 5848SOL    HW118357   0.116   1.086   3.846 -1.3984 -0.0093 -0.4588
 5848SOL    HW218358   0.052   1.221   3.824 -1.7232 -0.7736 -4.5196
 5849SOL     OW18359   4.502   1.336   0.000 -0.5042 -0.3660  0.1087
 5849SOL    HW118360   4.452   1.350   0.081 -1.0159 -0.9213 -0.1082
 5849SOL    HW218361   4.436   1.327  -0.068 -0.0999 -0.8567 -0.2227
 5850SOL     OW18362   4.577   5.883   4.476  0.1852 -0.2583  0.1011
 5850SOL    HW118363   4.638   5.857   4.408  1.4201 -0.1547  1.1539
 5850SOL    HW218364   4.596   5.824   4.549 -0.5924  0.1390  0.6309
 5851SOL     OW18365   5.817   2.147   2.183 -0.0759  0.3680 -0.4543
 5851SOL    HW118366   5.814   2.052   2.198  1.7582  0.4706  0.6165
 5851SOL    HW218367   5.906   2.164   2.153  0.3719  2.1140  1.7827
 5852SOL     OW18368   4.562   5.824   3.658  0.0722  0.6822 -0.1834
 5852SOL    HW118369   4.611   5.800   3.579 -0.5765 -0.3161 -0.2825
 5852SOL    HW218370   4.550   5.742   3.705 -1.3629  0.9351 -0.0743
 5853SOL     OW18371   0.529   4.602   5.837  0.5466  0.1024  0.3429
 5853SOL    HW118372   0.588   4.605   5.913  1.4319 -0.3849 -0.3135
 5853SOL    HW218373   0.552   4.520   5.792 -0.6894 -0.1329  0.1177
 5854SOL     OW18374   1.955   5.863   1.956 -0.6903  0.5032 -0.5573
 5854SOL    HW118375   1.946   5.799   1.886 -2.0945  3.6377 -3.3793
 5854SOL    HW218376   2.024   5.922   1.927 -1.2075  1.7963  0.7492
 5855SOL     OW18377   0.614   1.565   7.203  0.4904  0.3224  0.0590
 5855SOL    HW118378   0.589   1.653   7.232 -0.1207  0.3345 -0.4943
 5855SOL    HW218379   0.573   1.556   7.117 -2.1707 -1.7389  1.4757
 5856SOL     OW18380   1.049   2.548   5.324 -0.1159  0.5012  0.0938
 5856SOL    HW118381   0.995   2.615   5.365 -0.3466  0.0461  0.5409
 5856SOL    HW218382   1.139   2.582   5.332 -0.1480  0.3853  1.0612
 5857SOL     OW18383   4.651   6.926   4.856  0.1333  0.0703 -0.2753
 5857SOL    HW118384   4.639   6.853   4.795  2.1048  0.4669 -1.1794
 5857SOL    HW218385   4.743   6.923   4.879  0.0346  1.7366  0.3978
 5858SOL     OW18386   6.653   5.563   5.522  0.3084  0.1310  0.5768
 5858SOL    HW118387   6.619   5.563   5.611 -1.9340  1.9117 -0.2302
 5858SOL    HW218388   6.603   5.495   5.477 -0.6794  1.2642 -0.0623
 5859SOL     OW18389   2.939   7.476   5.856  0.0413 -0.7459 -0.2190
 5859SOL    HW118390   2.903   7.398   5.814 -1.7992 -0.0772  0.0900
 5859SOL    HW218391   2.874   7.544   5.841  0.4062  0.0760  1.7379
 5860SOL     OW18392   5.649   4.304   7.078 -0.5357  0.3044  0.1754
 5860SOL    HW118393   5.615   4.353   7.154 -1.2434  0.6229 -0.3356
 5860SOL    HW218394   5.720   4.250   7.113  0.0637  1.4869  0.8087
 5861SOL     OW18395   7.991   3.374   5.719  0.2371  0.2160  0.6568
 5861SOL    HW118396   7.987   3.323   5.639 -0.0503 -1.8906  1.9826
 5861SOL    HW218397   7.974   3.464   5.691  0.3419 -0.4485 -1.6495
 5862SOL     OW18398   6.471   6.323   1.502  0.1761 -0.3901 -0.2690
 5862SOL    HW118399   6.426   6.384   1.560  0.3563 -2.2789  1.8889
 5862SOL    HW218400   6.400   6.278   1.455  0.0033  0.4897 -0.8602
 5863SOL     OW18401   4.673   3.895   3.701  0.5706 -0.2495 -0.0429
 5863SOL    HW118402   4.738   3.965   3.700  0.5838 -0.2712 -0.4879
 5863SOL    HW218403   4.591   3.940   3.723  1.2367 -0.6436  3.6087
 5864SOL     OW18404   5.328   1.342   4.483  0.2663  0.2471 -0.1961
 5864SOL    HW118405   5.282   1.273   4.530 -0.0554  0.8197  0.3385
 5864SOL    HW218406   5.302   1.423   4.528  1.9795  0.5538  0.2993
 5865SOL     OW18407   3.261   0.959   5.819  0.1441 -0.0249 -0.0832
 5865SOL    HW118408   3.248   0.911   5.901  1.5604 -0.5520 -0.1563
 5865SOL    HW218409   3.349   0.996   5.827  0.0818  0.3593 -1.1498
 5866SOL     OW18410   1.465   5.744   2.623 -0.2963  0.4643  0.3764
 5866SOL    HW118411   1.458   5.800   2.700  0.6863  0.0709  0.7647
 5866SOL    HW218412   1.551   5.702   2.632 -0.2886  0.2158 -0.7978
 5867SOL     OW18413   7.249   4.463   2.795  0.4545  0.0330 -0.7643
 5867SOL    HW118414   7.295   4.433   2.717  0.9931 -1.3271  0.0559
 5867SOL    HW218415   7.319   4.482   2.858 -0.0141  0.3622 -0.3431
 5868SOL     OW18416   5.840   7.362   7.596 -0.0632 -0.1674  0.2574
 5868SOL    HW118417   5.915   7.319   7.556 -0.2789  1.0211 -1.4536
 5868SOL    HW218418   5.841   7.332   7.687  2.4337 -0.2005  0.2394
 5869SOL     OW18419   7.180   6.788   6.993  0.3659 -0.9495  0.1280
 5869SOL    HW118420   7.218   6.751   7.072  1.1718 -2.0849 -0.7819
 5869SOL    HW218421   7.111   6.847   7.025  2.4083  0.6124  1.7634
 5870SOL     OW18422   5.011   2.641   3.559 -0.2197  0.5367 -0.2753
 5870SOL    HW118423   5.031   2.642   3.653  0.7490  1.3993 -0.4946
 5870SOL    HW218424   4.915   2.636   3.556 -0.2670  0.6102  0.7523
 5871SOL     OW18425   4.987   7.972   0.525  0.1039  0.3896  0.0408
 5871SOL    HW118426   4.982   8.066   0.509 -2.0671  0.3516  0.3845
 5871SOL    HW218427   4.984   7.963   0.620  1.6274  0.0169  0.0730
 5872SOL     OW18428   3.260   4.659   0.708  0.3149  0.7540 -0.1830
 5872SOL    HW118429   3.308   4.675   0.789  0.7336  2.2510 -0.7041
 5872SOL    HW218430   3.170   4.641   0.736  0.6374  0.4549  0.6526
 5873SOL     OW18431   6.564   6.379   5.156 -0.2045 -0.3045 -0.3206
 5873SOL    HW118432   6.615   6.385   5.237 -0.9387 -1.8825  0.2858
 5873SOL    HW218433   6.580   6.462   5.111  0.7668  0.3030  1.1132
 5874SOL     OW18434   5.137   2.536   4.684 -0.0258 -0.6938  0.3256
 5874SOL    HW118435   5.203   2.504   4.746 -0.8205  0.3772  1.7627
 5874SOL    HW218436   5.060   2.482   4.702 -0.8442  0.8586  1.5940
 5875SOL     OW18437   0.215   1.726   3.058 -0.0184 -0.9666  0.6602
 5875SOL    HW118438   0.190   1.703   3.148 -0.4325 -1.5410  0.4029
 5875SOL    HW218439   0.304   1.693   3.049 -0.6271 -2.6037  0.2710
 5876SOL     OW18440   1.925   5.079   4.240 -0.0017 -0.5650  0.7662
 5876SOL    HW118441   1.887   5.082   4.328 -0.1560 -2.2442  0.7792
 5876SOL    HW218442   1.862   5.028   4.189  0.3156  0.0037 -0.2133
 5877SOL     OW18443   1.186   0.799   4.593 -0.6037  0.5589  0.5723
 5877SOL    HW118444   1.126   0.760   4.657  0.2185  0.8327  1.5216
 5877SOL    HW218445   1.213   0.882   4.634 -0.3410  0.8977 -0.2857
 5878SOL     OW18446   7.707   2.917   0.341 -0.2936  0.2165  0.8235
 5878SOL    HW118447   7.661   2.963   0.411  1.3384 -0.6644  2.5272
 5878SOL    HW218448   7.692   2.824   0.361 -1.4776 -0.0247 -1.1424
 5879SOL     OW18449   4.962   4.517   3.028  0.5033 -0.5147  0.4849
 5879SOL    HW118450   5.056   4.496   3.024  0.7277 -0.4625  3.8542
 5879SOL    HW218451   4.919   4.441   2.990  1.8601 -0.6990 -0.7806
 5880SOL     OW18452   7.683   0.911   1.937 -0.5528  0.2951 -0.6724
 5880SOL    HW118453   7.608   0.871   1.980  0.2353 -0.6723 -0.2071
 5880SOL    HW218454   7.684   1.001   1.969 -0.9228  0.0294  0.0879
 5881SOL     OW18455   5.192   4.808   3.036 -0.0639  0.8932 -0.3887
 5881SOL    HW118456   5.246   4.878   3.074  0.4048  1.4934 -2.0759
 5881SOL    HW218457   5.102   4.831   3.060  0.2645  1.0242  0.7042
 5882SOL     OW18458   1.561   3.322   6.786  0.2109 -0.6533 -0.2410
 5882SOL    HW118459   1.504   3.394   6.812 -1.0614 -1.0843 -1.7855
 5882SOL    HW218460   1.505   3.244   6.790  0.4307 -0.9723 -2.5950
 5883SOL     OW18461   6.710   4.220   7.736  1.1539 -0.1285  0.4692
 5883SOL    HW118462   6.648   4.249   7.802 -0.8256 -2.6155 -0.2551
 5883SOL    HW218463   6.785   4.187   7.786  1.4846  1.8838  1.3541
 5884SOL     OW18464   3.897   2.876   0.873  0.5846  0.6026  0.2133
 5884SOL    HW118465   3.982   2.892   0.915  1.0806 -0.9870 -0.1647
 5884SOL    HW218466   3.886   2.781   0.877 -0.7848  0.7277 -0.5007
 5885SOL     OW18467   2.944   4.114   0.917 -0.1322 -0.3093  0.2781
 5885SOL    HW118468   2.972   4.056   0.988 -0.6023  0.4083  1.0667
 5885SOL    HW218469   2.952   4.061   0.838 -1.1471 -1.6707  1.0535
 5886SOL     OW18470   1.469   6.654   4.446 -0.3232 -0.3560  0.6658
 5886SOL    HW118471   1.535   6.619   4.506  1.4411  0.1893 -0.8858
 5886SOL    HW218472   1.385   6.632   4.486  0.7929 -2.1580  2.0862
 5887SOL     OW18473   7.841   6.765   1.863 -0.0126 -0.3912 -0.3046
 5887SOL    HW118474   7.818   6.772   1.956 -0.8124  1.5278 -0.6385
 5887SOL    HW218475   7.921   6.816   1.855  1.7846 -3.0996 -0.0943
 5888SOL     OW18476   4.010   4.569   4.164  0.3051 -0.1522 -0.2459
 5888SOL    HW118477   4.082   4.517   4.200 -0.1134  1.1623  2.6255
 5888SOL    HW218478   3.973   4.614   4.240 -1.4084  1.8065 -2.1820
 5889SOL     OW18479   1.432   0.096   5.247  0.7367 -0.3453  0.3178
 5889SOL    HW118480   1.476   0.092   5.331 -0.8117 -0.2840  1.1583
 5889SOL    HW218481   1.414   0.005   5.224  0.3721 -0.3149  0.4819
 5890SOL     OW18482   4.524   5.963   7.654 -0.8277  0.1224  0.2039
 5890SOL    HW118483   4.564   5.968   7.741 -0.6790 -2.3944  0.3075
 5890SOL    HW218484   4.439   6.006   7.664  0.3896  2.4693  0.8365
 5891SOL     OW18485   0.828   0.647   5.495  0.0426  0.2629 -0.2499
 5891SOL    HW118486   0.836   0.690   5.581 -0.0258  0.1145 -0.1680
 5891SOL    HW218487   0.918   0.619   5.475  0.2713  1.3996 -0.8071
 5892SOL     OW18488   3.234   6.676   0.798  0.3710 -0.6182  0.7467
 5892SOL    HW118489   3.237   6.747   0.862  1.7383  1.3060 -1.3831
 5892SOL    HW218490   3.321   6.675   0.758 -0.1012 -2.4972 -0.3117
 5893SOL     OW18491   6.827   3.515   7.341  0.6464 -0.5079  0.6270
 5893SOL    HW118492   6.917   3.489   7.323  0.5077  0.5932 -1.8361
 5893SOL    HW218493   6.775   3.466   7.277 -0.3544  0.0046  1.0380
 5894SOL     OW18494   3.767   4.837   2.234  0.0875  0.4558  0.0519
 5894SOL    HW118495   3.714   4.873   2.305  0.2365  2.2024 -0.6884
 5894SOL    HW218496   3.750   4.895   2.160  1.8998  0.1799 -0.6093
 5895SOL     OW18497   5.304   7.847   5.317 -0.0444 -0.6227 -0.3683
 5895SOL    HW118498   5.296   7.894   5.234 -2.9863 -1.2879 -0.5097
 5895SOL    HW218499   5.393   7.813   5.316  0.0818 -0.3664 -3.1073
 5896SOL     OW18500   1.723   3.992   5.342 -0.4829  0.3026 -0.1302
 5896SOL    HW118501   1.708   4.060   5.408  0.4738 -0.7977  1.2542
 5896SOL    HW218502   1.705   4.035   5.259 -0.7239  2.0095  0.7804
 5897SOL     OW18503   2.094   5.338   0.437  0.4602 -0.0000  0.4860
 5897SOL    HW118504   2.147   5.415   0.455 -0.1526  0.3233  0.9041
 5897SOL    HW218505   2.004   5.370   0.436  0.4337  0.1257 -3.6482
 5898SOL     OW18506   0.020   4.762   7.490 -0.0644 -0.4195  0.1249
 5898SOL    HW118507   0.063   4.757   7.575 -2.8497  2.4444  1.8040
 5898SOL    HW218508  -0.057   4.706   7.500 -0.2761 -0.2577 -0.6221
 5899SOL     OW18509   3.524   5.901   2.814  0.3636  0.2881 -0.3520
 5899SOL    HW118510   3.562   5.894   2.902 -0.8500 -1.1729  0.0770
 5899SOL    HW218511   3.537   5.814   2.776 -1.5901  0.0705 -0.5785
 5900SOL     OW18512   1.799   1.560   5.271 -0.8143 -0.6565 -0.3452
 5900SOL    HW118513   1.840   1.478   5.298 -1.2779 -0.6066  0.5217
 5900SOL    HW218514   1.753   1.591   5.349 -1.7671 -0.2597 -1.0481
 5901SOL     OW18515   1.904   3.470   0.870  0.3567  0.0128 -0.7375
 5901SOL    HW118516   1.912   3.384   0.911  1.3428 -0.6271 -2.2338
 5901SOL    HW218517   1.834   3.460   0.807  1.0702  0.0540 -1.5392
 5902SOL     OW18518   4.149   7.640   3.161  0.2342 -0.2735  0.4655
 5902SOL    HW118519   4.241   7.646   3.135 -0.0040  1.7438 -0.0017
 5902SOL    HW218520   4.123   7.731   3.178 -1.5944 -0.8484  0.8537
 5903SOL     OW18521   5.097   3.471   4.295 -0.3117  0.2681 -0.0024
 5903SOL    HW118522   5.012   3.516   4.298 -1.2447 -1.1915 -2.6666
 5903SOL    HW218523   5.161   3.542   4.293 -1.5712  1.4429  0.1096
 5904SOL     OW18524   3.324   3.688   7.399  0.4810  0.2170  0.7313
 5904SOL    HW118525   3.356   3.774   7.371 -0.1712  0.5482  1.0020
 5904SOL    HW218526   3.403   3.640   7.423  1.0090  0.1504 -1.0395
 5905SOL     OW18527   3.504   1.627   3.377  0.3752 -0.0521 -0.1841
 5905SOL    HW118528   3.412   1.630   3.353  0.6081 -0.2119 -1.1181
 5905SOL    HW218529   3.538   1.714   3.356  0.0863  0.5113  1.6281
 5906SOL     OW18530   1.733   4.669   5.919  0.0133  0.0863  0.2157
 5906SOL    HW118531   1.672   4.663   5.845 -1.0246  0.4875  1.0194
 5906SOL    HW218532   1.818   4.645   5.883 -0.3340  1.0992 -1.3029
 5907SOL     OW18533   0.593   3.514   7.990 -0.3007 -0.4919  0.5504
 5907SOL    HW118534   0.563   3.604   7.979 -1.3599 -0.7955  0.9013
 5907SOL    HW218535   0.519   3.469   8.030 -0.0365 -1.6896 -0.2840
 5908SOL     OW18536   6.410   4.288   1.223 -0.1445  0.1861  0.2681
 5908SOL    HW118537   6.427   4.195   1.237 -0.8554  0.2428  1.5900
 5908SOL    HW218538   6.455   4.309   1.141 -1.2408 -1.6738 -0.8516
 5909SOL     OW18539   3.810   6.279   6.872  0.1100 -0.1076  0.3627
 5909SOL    HW118540   3.848   6.367   6.875 -0.5048  0.1425  0.8616
 5909SOL    HW218541   3.774   6.272   6.783 -0.0184  0.2210  0.3865
 5910SOL     OW18542   5.087   7.856   5.871  0.1149 -0.1061  0.4231
 5910SOL    HW118543   5.177   7.835   5.898  0.3777  2.9196  2.0683
 5910SOL    HW218544   5.097   7.929   5.810 -1.3557  2.3401  2.9911
 5911SOL     OW18545   6.068   5.802   4.598 -0.6761 -0.1590 -0.1640
 5911SOL    HW118546   6.108   5.718   4.576 -1.7732 -0.8626  0.4459
 5911SOL    HW218547   6.070   5.852   4.517 -0.9011 -1.1494 -0.7841
 5912SOL     OW18548   7.134   1.770   0.362  0.4490 -0.4848  0.5130
 5912SOL    HW118549   7.124   1.703   0.294  0.3109 -0.5932  0.6383
 5912SOL    HW218550   7.225   1.800   0.354  0.6141 -0.9431  0.6930
 5913SOL     OW18551   0.031   5.247   6.218 -0.0789  0.4164 -0.5361
 5913SOL    HW118552   0.044   5.307   6.291  0.0029 -0.8216  0.4943
 5913SOL    HW218553  -0.051   5.201   6.239  0.9523 -1.3255 -0.2187
 5914SOL     OW18554   3.431   7.477   7.762 -0.0214 -0.1730 -0.2195
 5914SOL    HW118555   3.355   7.534   7.747 -1.7394 -2.0520  1.2083
 5914SOL    HW218556   3.493   7.533   7.808  0.5764  2.1452 -3.6199
 5915SOL     OW18557   7.118   2.691   6.256  0.0666 -0.0141  0.0698
 5915SOL    HW118558   7.066   2.654   6.185  0.3874 -1.3402  0.5106
 5915SOL    HW218559   7.103   2.632   6.330  1.8701 -0.1789  0.3221
 5916SOL     OW18560   6.066   4.010   2.985  0.0936 -0.7814 -0.4881
 5916SOL    HW118561   6.061   4.067   2.908 -0.7153 -0.8605 -0.4991
 5916SOL    HW218562   6.097   4.068   3.055  0.0565 -0.5199 -0.6863
 5917SOL     OW18563   3.903   0.831   0.403 -0.4424 -0.5367  0.0175
 5917SOL    HW118564   3.860   0.746   0.396 -0.5090 -0.6918  2.0416
 5917SOL    HW218565   3.831   0.893   0.416 -0.4387 -0.0759 -1.9725
 5918SOL     OW18566   7.316   3.713   2.368  0.0997  0.2318  0.2082
 5918SOL    HW118567   7.286   3.752   2.286  0.2685  0.9611  0.4861
 5918SOL    HW218568   7.375   3.779   2.405  0.7689 -0.4985  0.4554
 5919SOL     OW18569   7.924   0.187   6.329 -0.1158  0.3713  0.3148
 5919SOL    HW118570   7.832   0.193   6.304  0.4149  0.9545 -1.5537
 5919SOL    HW218571   7.963   0.267   6.295  1.3782 -0.5607 -0.2242
 5920SOL     OW18572   0.376   2.533   4.239  0.1115 -0.1134 -0.4429
 5920SOL    HW118573   0.435   2.606   4.220  2.0496 -1.5676 -0.1985
 5920SOL    HW218574   0.289   2.571   4.236  1.1468  2.4833  0.9525
 5921SOL     OW18575   7.592   0.893   4.694 -0.1374  0.4784  0.2449
 5921SOL    HW118576   7.607   0.860   4.605  0.9136  0.7565  0.3116
 5921SOL    HW218577   7.589   0.814   4.748 -3.3333  0.1217 -0.3648
 5922SOL     OW18578   6.930   2.948   0.062 -0.2172  0.1046 -0.2428
 5922SOL    HW118579   6.945   2.953   0.157  0.9663  1.7816 -0.5033
 5922SOL    HW218580   6.993   2.883   0.031  0.7726  1.0108 -0.1487
 5923SOL     OW18581   5.041   4.009   3.466 -0.1230 -0.2803  0.0742
 5923SOL    HW118582   5.057   4.083   3.523 -1.4701 -0.8652  1.2511
 5923SOL    HW218583   5.005   4.047   3.386 -0.3998  0.3678  0.5076
 5924SOL     OW18584   7.063   5.555   7.698 -0.0113  0.1901 -0.6208
 5924SOL    HW118585   7.057   5.650   7.697 -1.2776  0.1133 -0.8369
 5924SOL    HW218586   7.155   5.537   7.679  0.6790  1.4030  1.4369
 5925SOL     OW18587   0.350   5.062   2.237  0.4455 -0.4061 -0.2194
 5925SOL    HW118588   0.350   4.970   2.212 -1.9265 -0.4061 -0.3227
 5925SOL    HW218589   0.434   5.095   2.206  1.3070 -2.5116 -0.2264
 5926SOL     OW18590   7.069   7.888   1.537 -0.4854 -0.0171  0.0936
 5926SOL    HW118591   7.035   7.813   1.489 -1.6360  0.5409  0.0145
 5926SOL    HW218592   7.033   7.965   1.492 -1.3385  0.5159  1.6421
 5927SOL     OW18593   0.224   0.157   3.116  0.3713  0.7005 -0.0424
 5927SOL    HW118594   0.151   0.101   3.141  1.3086 -1.8389 -2.7321
 5927SOL    HW218595   0.196   0.199   3.035  1.3870  0.6685 -0.4210
 5928SOL     OW18596   0.282   3.646   4.216  0.0286  0.0800  0.1395
 5928SOL    HW118597   0.325   3.712   4.270 -0.8093 -1.0603  2.2335
 5928SOL    HW218598   0.227   3.697   4.156 -2.6784  1.2608  3.4786
 5929SOL     OW18599   0.267   7.008   6.429 -0.0387 -0.4439 -0.8012
 5929SOL    HW118600   0.278   7.066   6.354  0.8581 -0.7494 -0.9160
 5929SOL    HW218601   0.320   7.047   6.499  1.4104 -1.6560 -1.1922
 5930SOL     OW18602   1.304   5.960   6.061 -0.1548  0.1413 -0.1285
 5930SOL    HW118603   1.271   5.870   6.057 -2.4546  0.9702 -0.4651
 5930SOL    HW218604   1.331   5.979   5.971 -2.1178  0.6537 -0.6346
 5931SOL     OW18605   0.652   5.558   1.031 -0.2548 -0.4242  0.2998
 5931SOL    HW118606   0.609   5.484   0.989 -0.1174 -1.1240  1.3645
 5931SOL    HW218607   0.605   5.569   1.114  0.3866  0.0263  0.6101
 5932SOL     OW18608   7.918   6.854   5.722 -0.3203  0.0299  0.3944
 5932SOL    HW118609   7.858   6.841   5.796 -0.0381 -1.4243  0.3822
 5932SOL    HW218610   7.872   6.916   5.665 -2.0745 -1.4624  0.1205
 5933SOL     OW18611   6.369   2.126   3.648  0.4494  0.3157  0.9017
 5933SOL    HW118612   6.378   2.088   3.561 -1.1991  0.7067  0.5388
 5933SOL    HW218613   6.358   2.220   3.632  0.7473  0.4733  1.5782
 5934SOL     OW18614   4.763   4.908   5.615 -0.4714  0.3907 -0.2069
 5934SOL    HW118615   4.668   4.918   5.611 -0.8532 -2.3936  0.9000
 5934SOL    HW218616   4.789   4.960   5.692 -1.2211  0.3441  0.0828
 5935SOL     OW18617   1.399   1.993   5.259 -0.0321  0.2051  0.4361
 5935SOL    HW118618   1.306   2.014   5.264  0.3052  1.4394  2.1840
 5935SOL    HW218619   1.440   2.052   5.322  1.9591 -0.1974 -0.4532
 5936SOL     OW18620   5.762   1.317   1.053  0.3393 -0.3803  0.8228
 5936SOL    HW118621   5.686   1.260   1.065 -0.6099 -0.0066 -2.8122
 5936SOL    HW218622   5.829   1.260   1.015 -0.4577  0.6624 -2.3681
 5937SOL     OW18623   1.852   4.057   5.014 -0.5858  0.2755 -0.1039
 5937SOL    HW118624   1.944   4.072   5.037  0.1469 -2.1716 -1.3107
 5937SOL    HW218625   1.850   4.060   4.918 -1.7146 -0.0264 -0.1030
 5938SOL     OW18626   5.239   6.770   1.942  0.5537  0.1515 -0.0480
 5938SOL    HW118627   5.247   6.765   2.037  2.0115 -1.3789 -0.2194
 5938SOL    HW218628   5.248   6.863   1.922  1.8320  0.3066  1.1948
 5939SOL     OW18629   2.491   5.841   5.384 -0.7596 -0.1825  0.6153
 5939SOL    HW118630   2.458   5.811   5.469  1.4610 -0.4957  1.4183
 5939SOL    HW218631   2.557   5.776   5.360 -0.3144  0.7114 -0.6500
 5940SOL     OW18632   7.410   7.374   4.280  0.3197 -0.0612  0.1877
 5940SOL    HW118633   7.455   7.332   4.354 -0.0629 -0.1648  0.3632
 5940SOL    HW218634   7.446   7.332   4.203 -0.2196 -0.8587  0.3711
 5941SOL     OW18635   2.586   4.996   3.936  0.5748  0.2809 -0.0571
 5941SOL    HW118636   2.601   5.084   3.902 -0.1368  0.9048  1.1972
 5941SOL    HW218637   2.659   4.982   3.997  1.6132 -0.6654 -1.4926
 5942SOL     OW18638   6.458   0.867   7.729 -0.5648 -0.0754 -0.3770
 5942SOL    HW118639   6.480   0.787   7.682  2.0787  0.5395 -0.2537
 5942SOL    HW218640   6.420   0.837   7.812 -0.2849 -1.1832 -0.6529
 5943SOL     OW18641   4.952   4.785   1.333  0.4127  0.5137 -0.0916
 5943SOL    HW118642   5.042   4.761   1.309  0.5172  0.9478 -0.1541
 5943SOL    HW218643   4.953   4.784   1.429 -0.1763 -1.8424 -0.0784
 5944SOL     OW18644   1.331   7.229   6.260 -0.0485 -0.0526 -0.3894
 5944SOL    HW118645   1.306   7.302   6.204 -0.8822  1.1228  1.4392
 5944SOL    HW218646   1.276   7.156   6.231 -2.2416  1.1956  0.4131
 5945SOL     OW18647   4.566   6.211   7.368  0.4217  0.3565  0.4508
 5945SOL    HW118648   4.479   6.218   7.328  0.6576 -0.2062 -0.1607
 5945SOL    HW218649   4.613   6.289   7.337  0.5039  0.0790 -0.1272
 5946SOL     OW18650   1.265   5.331   0.876 -0.4213  0.1014  0.1851
 5946SOL    HW118651   1.225   5.340   0.963  0.2936 -0.0867  0.5345
 5946SOL    HW218652   1.337   5.269   0.889 -0.8689 -0.6320 -0.7261
 5947SOL     OW18653   3.931   2.811   5.373  0.0078 -0.1675 -0.0508
 5947SOL    HW118654   3.929   2.853   5.287 -0.5708  0.5324  0.2998
 5947SOL    HW218655   3.942   2.883   5.434 -1.1160 -0.5080  0.5643
 5948SOL     OW18656   1.986   4.010   1.254  0.2180 -0.2169 -0.0788
 5948SOL    HW118657   1.916   3.954   1.288 -1.1271  1.0413 -0.6997
 5948SOL    HW218658   1.969   4.014   1.160  1.4687 -0.3540 -0.3147
 5949SOL     OW18659   2.184   6.908   6.869  0.3732  0.2746 -0.1437
 5949SOL    HW118660   2.156   6.882   6.781  1.6416  2.2434 -1.1592
 5949SOL    HW218661   2.265   6.860   6.884  0.2785  0.1198 -0.1192
 5950SOL     OW18662   2.959   4.616   3.433 -0.0218  0.0153 -0.3351
 5950SOL    HW118663   2.895   4.586   3.498 -0.0700 -0.3536 -0.5505
 5950SOL    HW218664   3.011   4.538   3.413  0.1042  0.1696 -0.6139
 5951SOL     OW18665   0.078   7.619   7.632 -0.3389 -0.1285 -0.3286
 5951SOL    HW118666   0.080   7.538   7.581 -1.0021  0.1972 -0.8745
 5951SOL    HW218667  -0.008   7.656   7.615  0.1031  0.8904 -0.3666
 5952SOL     OW18668   1.169   0.491   5.093 -0.0150 -0.2226 -0.5889
 5952SOL    HW118669   1.198   0.405   5.125  0.5153 -0.3680 -1.4508
 5952SOL    HW218670   1.093   0.512   5.147 -0.1586 -1.2462 -0.3859
 5953SOL     OW18671   7.557   4.339   3.367  0.0608  0.0858  0.3298
 5953SOL    HW118672   7.543   4.403   3.436  0.7055 -1.1547  1.6320
 5953SOL    HW218673   7.645   4.358   3.334  0.0182  0.2528  0.3138
 5954SOL     OW18674   1.231   3.224   2.048  0.3553  0.8591 -0.2291
 5954SOL    HW118675   1.255   3.198   1.959  0.2683  0.4156 -0.1250
 5954SOL    HW218676   1.315   3.239   2.092  0.4654 -0.7401  0.1491
 5955SOL     OW18677   0.685   1.722   0.614  0.3890  0.0012 -0.1476
 5955SOL    HW118678   0.778   1.733   0.636  0.2457 -0.1418  0.5337
 5955SOL    HW218679   0.639   1.733   0.697 -0.2595  0.6901 -0.5954
 5956SOL     OW18680   2.569   6.987   2.382  0.3473  0.1161  0.0048
 5956SOL    HW118681   2.630   6.929   2.426  1.3389  0.9431 -0.2443
 5956SOL    HW218682   2.542   7.050   2.449  0.5479  0.3509 -0.1321
 5957SOL     OW18683   2.689   3.292   6.818 -0.1462  0.1873  0.2249
 5957SOL    HW118684   2.695   3.229   6.746  1.1855  0.6223 -0.0664
 5957SOL    HW218685   2.724   3.245   6.894  2.5907  1.0964 -0.3793
 5958SOL     OW18686   0.840   5.543   4.815  0.6377  0.5266  0.7344
 5958SOL    HW118687   0.855   5.474   4.751 -0.6068  0.7052  0.2215
 5958SOL    HW218688   0.753   5.524   4.850  0.7590  1.1891  1.4087
 5959SOL     OW18689   3.395   2.109   0.634  0.4635  0.0798  0.4651
 5959SOL    HW118690   3.473   2.163   0.650  0.6637 -0.3814  1.0948
 5959SOL    HW218691   3.354   2.147   0.557  1.2473  0.4071  0.2112
 5960SOL     OW18692   1.700   0.663   0.651  0.2188  0.5284  0.3964
 5960SOL    HW118693   1.789   0.664   0.686 -0.2391 -0.2970  1.6134
 5960SOL    HW218694   1.706   0.608   0.573  0.4548 -0.8978  1.3923
 5961SOL     OW18695   5.618   2.576   2.629 -0.0980 -0.0997  0.8489
 5961SOL    HW118696   5.566   2.545   2.555  1.0107  0.3897 -0.1517
 5961SOL    HW218697   5.559   2.635   2.677 -0.2883  0.9116 -0.6072
 5962SOL     OW18698   7.993   3.366   2.149 -0.4385  0.6201  0.1250
 5962SOL    HW118699   7.911   3.408   2.172 -0.8042  0.4877 -0.8974
 5962SOL    HW218700   8.059   3.435   2.158 -0.7617  0.9076  0.2643
 5963SOL     OW18701   3.220   0.049   1.183 -0.2952 -0.7349 -0.8540
 5963SOL    HW118702   3.233   0.036   1.090  0.0178  0.8063 -1.0465
 5963SOL    HW218703   3.125   0.055   1.194 -0.2812  0.2862 -1.2580
 5964SOL     OW18704   4.919   3.785   2.636 -0.3663  0.5166  0.5257
 5964SOL    HW118705   4.914   3.807   2.543 -1.2553 -0.9264  0.2106
 5964SOL    HW218706   4.828   3.773   2.663 -0.0719  0.2504  1.4158
 5965SOL     OW18707   3.241   3.265   3.992 -0.5118  0.2251 -0.1189
 5965SOL    HW118708   3.285   3.180   3.992  0.3488  0.6635  0.4415
 5965SOL    HW218709   3.311   3.328   4.010 -1.1770  1.0332 -0.3509
 5966SOL     OW18710   2.404   2.990   5.679 -0.0511 -0.2599  0.1472
 5966SOL    HW118711   2.315   3.024   5.671  0.0231  0.0227  0.5013
 5966SOL    HW218712   2.433   2.977   5.589 -0.3235 -0.0212  0.0228
 5967SOL     OW18713   7.673   2.922   4.965 -0.1351 -0.0463 -0.1012
 5967SOL    HW118714   7.622   3.001   4.986  0.0430 -0.4590  2.0053
 5967SOL    HW218715   7.754   2.932   5.015  0.2592 -1.1711 -0.5003
 5968SOL     OW18716   3.546   5.816   2.032 -0.2592 -0.4011  0.0033
 5968SOL    HW118717   3.453   5.839   2.027 -0.0514  0.2881 -0.7336
 5968SOL    HW218718   3.583   5.846   1.949  0.5784 -0.8858  0.1959
 5969SOL     OW18719   6.896   2.084   6.745 -0.7486 -0.7506 -0.4089
 5969SOL    HW118720   6.888   2.018   6.677  2.1402 -1.7959  0.1779
 5969SOL    HW218721   6.922   2.164   6.699 -0.7585 -0.9386 -0.7364
 5970SOL     OW18722   4.006   6.112   6.937  0.6133 -1.3731  0.6593
 5970SOL    HW118723   4.081   6.132   6.993  1.3977 -1.7832 -0.2174
 5970SOL    HW218724   3.955   6.192   6.935  0.3650 -1.4696  2.2689
 5971SOL     OW18725   5.122   2.297   0.779  0.4214  0.1065  0.2934
 5971SOL    HW118726   5.069   2.361   0.732 -1.4354 -0.9079  0.9778
 5971SOL    HW218727   5.181   2.350   0.833 -2.4768  1.2715  2.4137
 5972SOL     OW18728   4.321   3.346   6.163  0.2276  0.0825 -0.3430
 5972SOL    HW118729   4.371   3.265   6.176  0.1524  0.4490  2.6089
 5972SOL    HW218730   4.378   3.415   6.197 -0.5363  1.0188 -0.9490
 5973SOL     OW18731   2.320   6.969   3.624 -0.5261  1.1117  0.4648
 5973SOL    HW118732   2.389   6.952   3.560 -1.0412  0.1729  0.1458
 5973SOL    HW218733   2.362   7.023   3.690  0.6104  0.3150  0.4166
 5974SOL     OW18734   7.622   4.614   5.639 -0.8478 -0.3897  0.1262
 5974SOL    HW118735   7.624   4.638   5.732  0.8574 -0.8389  0.2189
 5974SOL    HW218736   7.678   4.536   5.633  0.7816  0.8717 -1.6230
 5975SOL     OW18737   2.633   0.564   0.458 -0.1258 -0.0456 -0.8298
 5975SOL    HW118738   2.598   0.629   0.396 -0.6578  2.5003  2.0289
 5975SOL    HW218739   2.638   0.611   0.541  1.9276 -2.9672  0.7665
 5976SOL     OW18740   5.427   7.430   2.360  0.0709  0.1648  0.2931
 5976SOL    HW118741   5.371   7.505   2.342 -0.9635 -0.7174 -0.2394
 5976SOL    HW218742   5.461   7.446   2.448  0.6376  1.7228 -0.2106
 5977SOL     OW18743   6.040   0.471   0.473  0.3717 -0.9455 -0.3661
 5977SOL    HW118744   6.055   0.426   0.556 -0.1248 -0.5170 -0.0484
 5977SOL    HW218745   6.103   0.543   0.472  0.0329 -0.6452 -0.1355
 5978SOL     OW18746   1.795   7.451   3.834  0.1528  0.1677 -0.2057
 5978SOL    HW118747   1.805   7.356   3.828  0.7220  0.2073  0.0802
 5978SOL    HW218748   1.797   7.469   3.928 -0.2244  0.4360 -0.2468
 5979SOL     OW18749   5.544   1.892   3.096  0.3588 -0.4556 -0.1067
 5979SOL    HW118750   5.496   1.931   3.023 -0.7274  0.4036  1.0571
 5979SOL    HW218751   5.547   1.960   3.163  3.0815 -0.5413 -0.0798
 5980SOL     OW18752   5.266   7.612   3.992  0.4217 -0.5319 -0.0428
 5980SOL    HW118753   5.174   7.587   4.002  0.8330 -2.3628 -0.6391
 5980SOL    HW218754   5.292   7.643   4.079 -1.1535  1.4431 -0.2341
 5981SOL     OW18755   6.429   3.188   1.721  0.1475 -0.4684 -0.2032
 5981SOL    HW118756   6.520   3.213   1.736  0.1094 -0.7808  0.5718
 5981SOL    HW218757   6.378   3.265   1.748  0.1487 -0.4962 -0.1238
 5982SOL     OW18758   0.372   6.314   3.047  0.2010  0.3682 -0.2926
 5982SOL    HW118759   0.386   6.388   2.988 -1.9168 -0.4684 -1.9015
 5982SOL    HW218760   0.305   6.261   3.003 -0.0397 -1.2509  1.9708
 5983SOL     OW18761   7.138   5.598   5.379 -0.1944 -0.3562 -0.2802
 5983SOL    HW118762   7.209   5.570   5.436 -0.1704  1.9839  0.9053
 5983SOL    HW218763   7.062   5.606   5.437 -0.5982  0.3850 -0.8931
 5984SOL     OW18764   1.733   6.139   0.799 -0.1965 -0.2879  0.3664
 5984SOL    HW118765   1.777   6.056   0.813  0.3626 -0.3090 -1.4253
 5984SOL    HW218766   1.672   6.123   0.727 -0.8956  0.5591  0.7516
 5985SOL     OW18767   2.655   7.641   1.376 -0.3853 -0.6638 -0.7368
 5985SOL    HW118768   2.611   7.719   1.344 -0.4038 -0.6836 -0.7604
 5985SOL    HW218769   2.746   7.651   1.348 -0.3041 -0.4660 -0.4003
 5986SOL     OW18770   6.574   5.106   1.328 -0.2660  0.9695  0.2569
 5986SOL    HW118771   6.558   5.012   1.338 -1.5164  1.2357  0.8912
 5986SOL    HW218772   6.628   5.113   1.250  0.4853 -0.3396  0.6500
 5987SOL     OW18773   3.084   4.893   4.146 -0.0368  0.0060  0.0677
 5987SOL    HW118774   3.119   4.860   4.063 -2.2392 -2.2914 -0.0336
 5987SOL    HW218775   3.098   4.987   4.144  0.7678 -0.1555 -2.5073
 5988SOL     OW18776   5.425   0.219   5.287 -0.3720 -0.0835  0.1690
 5988SOL    HW118777   5.400   0.145   5.232  2.4085 -0.1749 -1.0578
 5988SOL    HW218778   5.446   0.289   5.226  1.5951  0.2071  1.1168
 5989SOL     OW18779   4.998   1.402   6.595 -0.6438 -0.0340 -0.1256
 5989SOL    HW118780   5.016   1.313   6.562  1.8045  0.3923  0.0350
 5989SOL    HW218781   4.953   1.387   6.678  0.7691 -1.1556  0.4699
 5990SOL     OW18782   4.365   2.518   2.440 -0.2933 -0.3170  0.2655
 5990SOL    HW118783   4.395   2.609   2.435  0.3341 -0.5151  0.3909
 5990SOL    HW218784   4.364   2.488   2.350  1.5731 -0.8436  0.3883
 5991SOL     OW18785   3.581   3.863   4.372  0.1558  0.2730  0.1943
 5991SOL    HW118786   3.625   3.930   4.320  1.2907 -2.3108 -2.3658
 5991SOL    HW218787   3.652   3.823   4.424  0.0545 -0.8670 -0.5185
 5992SOL     OW18788   3.273   3.409   3.397  0.0348 -0.1913  0.5089
 5992SOL    HW118789   3.276   3.400   3.302 -1.1029 -0.6294  0.5142
 5992SOL    HW218790   3.352   3.363   3.427  0.5034  0.1133 -0.2187
 5993SOL     OW18791   1.400   5.294   7.182 -0.2042  0.2041  0.2466
 5993SOL    HW118792   1.435   5.266   7.098 -1.0913  0.0784 -0.0857
 5993SOL    HW218793   1.438   5.380   7.196  0.0684  0.1604 -0.2076
 5994SOL     OW18794   2.752   0.174   0.391  0.6564 -0.3449 -0.2179
 5994SOL    HW118795   2.809   0.099   0.371  0.2573 -0.4173 -1.0807
 5994SOL    HW218796   2.812   0.248   0.398  0.8323 -0.3544 -1.4779
 5995SOL     OW18797   5.830   6.433   0.304  0.0043 -0.7549 -0.4066
 5995SOL    HW118798   5.875   6.361   0.350  2.4450 -0.3694 -2.0931
 5995SOL    HW218799   5.737   6.416   0.318  0.6255 -1.8061  2.8840
 5996SOL     OW18800   7.516   1.905   1.325  0.1830  0.0014 -0.1967
 5996SOL    HW118801   7.440   1.900   1.382 -0.6415  0.9419 -1.1941
 5996SOL    HW218802   7.588   1.932   1.383 -0.0644 -1.6310  0.8827
 5997SOL     OW18803   4.942   5.293   4.301 -0.1213  0.5601  0.5875
 5997SOL    HW118804   4.853   5.260   4.313  0.9487 -1.6156  3.1119
 5997SOL    HW218805   4.985   5.227   4.248  0.2590  1.1442  0.1705
 5998SOL     OW18806   6.410   4.303   3.465  0.2374 -0.4592  0.1579
 5998SOL    HW118807   6.350   4.375   3.484  0.0234 -0.3100 -1.0062
 5998SOL    HW218808   6.393   4.239   3.533 -0.1105  0.2674  0.7664
 5999SOL     OW18809   0.299   2.727   0.847  0.2834  0.3039  0.0146
 5999SOL    HW118810   0.225   2.748   0.904  1.7434  0.3999  1.9461
 5999SOL    HW218811   0.352   2.807   0.848  1.1382 -0.2576 -0.1586
 6000SOL     OW18812   3.336   4.869   6.800  0.1219 -0.5321  0.5376
 6000SOL    HW118813   3.259   4.824   6.765  1.8536 -2.0361 -1.4095
 6000SOL    HW218814   3.408   4.843   6.742  1.6915  2.6322  0.9576
 6001SOL     OW18815   2.309   3.218   3.276  0.4461 -0.2912  0.0654
 6001SOL    HW118816   2.275   3.292   3.327 -0.1150 -1.5354  1.5076
 6001SOL    HW218817   2.232   3.179   3.235  0.2515 -2.3349  2.3165
 6002SOL     OW18818   2.466   7.264   0.341  0.1680 -0.1759  0.1620
 6002SOL    HW118819   2.521   7.200   0.387  0.4317  1.0759  1.6486
 6002SOL    HW218820   2.497   7.349   0.373 -1.6213  0.6116 -0.1410
 6003SOL     OW18821   3.403   0.279   0.875  0.3332  0.3847  0.8160
 6003SOL    HW118822   3.476   0.244   0.926 -0.3768  0.5932  2.0205
 6003SOL    HW218823   3.342   0.205   0.868  1.1692 -0.1404 -1.2135
 6004SOL     OW18824   0.409   5.806   0.210 -0.1144  0.3542  0.3037
 6004SOL    HW118825   0.457   5.865   0.268  0.0452  1.0874 -0.5586
 6004SOL    HW218826   0.322   5.844   0.204  0.4843  1.5044 -1.6374
 6005SOL     OW18827   0.696   4.067   6.007  0.2929  0.2022 -0.0962
 6005SOL    HW118828   0.766   4.118   5.967 -0.6942  1.6678  0.0245
 6005SOL    HW218829   0.624   4.129   6.018 -1.1146 -1.3374 -0.4223
 6006SOL     OW18830   0.958   0.151   7.697 -0.1610  0.4508 -0.1596
 6006SOL    HW118831   1.019   0.218   7.730 -0.2302 -0.3538  1.6705
 6006SOL    HW218832   1.013   0.074   7.683 -0.1886  0.7003 -1.6878
 6007SOL     OW18833   3.379   3.161   2.022 -0.3075  0.3757 -0.0131
 6007SOL    HW118834   3.427   3.190   2.100 -0.8021  1.0509  0.0397
 6007SOL    HW218835   3.402   3.069   2.013 -0.0294  0.3657  0.7738
 6008SOL     OW18836   5.607   3.544   7.797  0.2141  0.3376  0.1903
 6008SOL    HW118837   5.511   3.553   7.795  0.2113  0.4566  0.8168
 6008SOL    HW218838   5.628   3.502   7.714 -0.1728  2.3745 -0.9936
 6009SOL     OW18839   4.968   6.403   0.054  0.1030  1.2925 -0.1445
 6009SOL    HW118840   4.899   6.354   0.009 -0.5112  1.1948  0.8787
 6009SOL    HW218841   5.048   6.352   0.038 -0.4221  0.2902  0.3663
 6010SOL     OW18842   2.614   2.170   7.680 -0.2420  0.4802  0.0492
 6010SOL    HW118843   2.593   2.085   7.642  1.6283 -1.0852  2.3892
 6010SOL    HW218844   2.532   2.200   7.718 -0.6997 -0.7415  0.0451
 6011SOL     OW18845   6.821   0.715   0.591  0.1310 -0.4065  0.4934
 6011SOL    HW118846   6.862   0.785   0.642  1.1730 -0.4532 -0.2522
 6011SOL    HW218847   6.827   0.638   0.647 -1.2924  0.1624  1.4395
 6012SOL     OW18848   5.641   7.086   4.789  0.4155 -0.8761  0.3046
 6012SOL    HW118849   5.645   7.162   4.847  0.9772  0.9096 -1.9700
 6012SOL    HW218850   5.726   7.042   4.801  1.1259  0.3231 -0.2309
 6013SOL     OW18851   6.008   3.307   7.518 -0.1959  0.2508  0.0056
 6013SOL    HW118852   6.089   3.264   7.547  0.7384 -0.1217 -3.0181
 6013SOL    HW218853   6.013   3.395   7.555  1.5903  0.2243 -0.1303
 6014SOL     OW18854   1.929   4.793   7.772 -0.1432  0.0295  0.5623
 6014SOL    HW118855   1.955   4.873   7.818  0.1148 -0.4239  1.2243
 6014SOL    HW218856   1.835   4.803   7.759 -0.4971 -0.4583  2.4863
 6015SOL     OW18857   0.439   1.331   6.586  0.1213  0.1292 -0.2453
 6015SOL    HW118858   0.453   1.246   6.627  0.8766 -1.0309 -2.8041
 6015SOL    HW218859   0.521   1.378   6.600 -0.3062  0.4708  1.1907
 6016SOL     OW18860   1.306   7.718   0.782 -0.2554  0.4343 -0.0153
 6016SOL    HW118861   1.332   7.795   0.731 -1.0565  1.1658  0.6584
 6016SOL    HW218862   1.316   7.745   0.873 -0.1338 -0.4064  0.2174
 6017SOL     OW18863   5.779   7.413   6.250  0.4855  0.4109 -0.8827
 6017SOL    HW118864   5.781   7.400   6.155  0.0809 -0.8031 -0.7422
 6017SOL    HW218865   5.686   7.406   6.273  0.7693 -1.2975 -0.1601
 6018SOL     OW18866   5.566   1.082   7.123  0.4830 -0.2712  0.2329
 6018SOL    HW118867   5.594   1.139   7.051 -0.1007 -1.5802 -1.0539
 6018SOL    HW218868   5.568   1.139   7.200 -2.5581  2.2670 -1.4050
 6019SOL     OW18869   7.937   0.475   3.688 -0.1335  0.6427 -0.0191
 6019SOL    HW118870   7.862   0.526   3.719 -0.9461 -0.4851 -0.0637
 6019SOL    HW218871   7.906   0.437   3.605  1.1124  1.5690 -0.9258
 6020SOL     OW18872   6.628   5.715   4.107 -0.0506 -0.6708 -0.1146
 6020SOL    HW118873   6.677   5.742   4.029  0.4507 -1.1373  0.0332
 6020SOL    HW218874   6.574   5.791   4.130 -0.3504 -0.6045 -1.0379
 6021SOL     OW18875   3.247   4.690   7.026 -0.2053  0.3200 -0.2994
 6021SOL    HW118876   3.313   4.736   6.975 -0.8733 -0.0348 -1.5057
 6021SOL    HW218877   3.215   4.622   6.967 -0.6944 -0.3552  0.7455
 6022SOL     OW18878   1.021   3.398   4.810  1.0103  0.1391 -0.5712
 6022SOL    HW118879   1.023   3.493   4.825 -1.5589  0.2701 -0.8079
 6022SOL    HW218880   1.063   3.386   4.725  2.1314  0.9487 -0.1546
 6023SOL     OW18881   0.100   3.377   2.648  0.6251 -0.3475 -0.3544
 6023SOL    HW118882   0.068   3.441   2.584 -0.3374  0.2188  0.6941
 6023SOL    HW218883   0.044   3.300   2.635  0.6677 -0.3662 -0.4303
 6024SOL     OW18884   2.658   6.267   7.984 -0.2534 -0.0144  0.1663
 6024SOL    HW118885   2.733   6.307   8.027  0.2487 -0.8861  0.0946
 6024SOL    HW218886   2.585   6.326   8.005  0.7350  1.7208 -1.1012
 6025SOL     OW18887   6.208   2.359   7.073 -0.4235 -0.1364 -0.1729
 6025SOL    HW118888   6.149   2.289   7.047 -0.3270 -1.2783  2.6200
 6025SOL    HW218889   6.294   2.317   7.079 -0.6449 -0.1947  3.1376
 6026SOL     OW18890   1.770   7.799   3.784 -0.0910 -0.1283 -0.0562
 6026SOL    HW118891   1.818   7.813   3.866 -0.7706 -1.0676  0.5132
 6026SOL    HW218892   1.689   7.756   3.811 -0.5949  0.1040 -1.1658
 6027SOL     OW18893   5.801   6.838   3.794  0.0867 -0.0354 -0.3187
 6027SOL    HW118894   5.710   6.810   3.799  0.8506 -2.5259  0.2740
 6027SOL    HW218895   5.839   6.784   3.724  1.2985  0.4055 -0.0154
 6028SOL     OW18896   5.737   2.845   7.983 -0.2407 -0.2831 -0.1111
 6028SOL    HW118897   5.813   2.892   8.019 -0.7205  0.9549 -0.6887
 6028SOL    HW218898   5.723   2.773   8.044  0.3888  0.4399  0.9098
 6029SOL     OW18899   3.917   7.700   0.242 -0.4350 -0.4472 -0.1805
 6029SOL    HW118900   3.913   7.787   0.281 -0.0576  0.6431 -2.4504
 6029SOL    HW218901   3.976   7.651   0.299 -0.8696  0.6922  1.2846
 6030SOL     OW18902   7.935   1.474   3.525  0.4309  0.0413 -0.0665
 6030SOL    HW118903   7.876   1.531   3.573 -0.2096 -1.6859  1.2647
 6030SOL    HW218904   8.018   1.479   3.574  0.4429  0.0302 -0.0849
 6031SOL     OW18905   6.581   1.973   4.889 -0.5163 -0.1132  0.0646
 6031SOL    HW118906   6.597   2.030   4.813 -0.6140 -2.4333 -1.7382
 6031SOL    HW218907   6.656   1.914   4.892 -0.4827 -0.0023  1.8343
 6032SOL     OW18908   7.798   3.925   5.699  0.0695  0.0821 -0.2447
 6032SOL    HW118909   7.892   3.946   5.704  0.2627 -0.7918 -0.1976
 6032SOL    HW218910   7.783   3.905   5.606 -0.1233  0.4586 -0.2951
 6033SOL     OW18911   7.146   2.234   0.053 -0.3802 -0.2677 -0.1797
 6033SOL    HW118912   7.059   2.233   0.013 -0.4705  0.9531 -0.0255
 6033SOL    HW218913   7.206   2.225  -0.021 -0.6167 -0.3334 -0.3637
 6034SOL     OW18914   2.020   4.466   0.015  0.2406  0.5493  0.0799
 6034SOL    HW118915   1.998   4.559   0.008  0.6950  0.7391  1.0685
 6034SOL    HW218916   2.017   4.448   0.108  3.5090  0.4089  0.2020
 6035SOL     OW18917   0.172   0.378   4.090  0.2320 -0.0497 -0.3898
 6035SOL    HW118918   0.088   0.422   4.103 -0.4348 -0.5211 -2.8622
 6035SOL    HW218919   0.178   0.316   4.162  0.5939  3.0853  2.4321
 6036SOL     OW18920   6.082   3.300   5.545 -0.1484  0.1048 -0.3425
 6036SOL    HW118921   6.128   3.376   5.510 -1.1281  0.4419 -0.9204
 6036SOL    HW218922   6.023   3.336   5.611 -0.1179 -0.2380 -0.1262
 6037SOL     OW18923   6.146   5.206   0.108  0.1412  0.0493 -0.2937
 6037SOL    HW118924   6.068   5.262   0.113 -0.0785 -0.3639  1.0916
 6037SOL    HW218925   6.218   5.265   0.128 -0.0689 -0.0932  0.9397
 6038SOL     OW18926   4.336   1.081   6.151  0.0199  0.1263 -0.0413
 6038SOL    HW118927   4.348   0.994   6.114 -1.9928 -0.6164  0.9841
 6038SOL    HW218928   4.423   1.108   6.179  0.8118 -1.1435 -1.2528
 6039SOL     OW18929   6.623   3.403   7.203 -0.0345  0.7411  0.3270
 6039SOL    HW118930   6.544   3.457   7.209 -0.0546  0.7657 -0.1539
 6039SOL    HW218931   6.601   3.336   7.139  0.1303  0.3939  0.6293
 6040SOL     OW18932   5.487   2.680   4.506 -0.5077 -0.3254 -0.5822
 6040SOL    HW118933   5.505   2.586   4.508 -0.5259 -0.3148 -0.0142
 6040SOL    HW218934   5.551   2.715   4.444  1.3367 -0.3099  1.2753
 6041SOL     OW18935   5.073   6.871   7.398 -0.3700  0.4232 -0.1465
 6041SOL    HW118936   5.125   6.865   7.317  0.1995  0.5012  0.2062
 6041SOL    HW218937   5.098   6.793   7.448 -1.5408 -0.1970 -0.5134
 6042SOL     OW18938   7.404   3.618   7.372 -0.9147 -0.5283 -0.3820
 6042SOL    HW118939   7.379   3.550   7.436 -0.3519  0.2044  0.6346
 6042SOL    HW218940   7.499   3.616   7.372 -0.9169 -0.6589 -1.3682
 6043SOL     OW18941   4.579   3.649   7.126  0.0084 -0.4498 -0.4658
 6043SOL    HW118942   4.619   3.729   7.092 -1.1899 -0.4495 -1.8784
 6043SOL    HW218943   4.590   3.657   7.221  1.1234  0.7285 -0.6643
 6044SOL     OW18944   6.025   4.919   1.797 -0.0658 -0.7410 -0.2717
 6044SOL    HW118945   6.006   4.997   1.746 -0.2769 -0.4869  0.1867
 6044SOL    HW218946   6.102   4.942   1.849 -0.1122 -0.8436 -0.1551
 6045SOL     OW18947   2.189   3.989   0.396  0.3281 -0.0470  0.0652
 6045SOL    HW118948   2.172   3.925   0.465 -0.0242 -0.1661 -0.1327
 6045SOL    HW218949   2.239   4.058   0.440 -0.3992  0.1587  0.5865
 6046SOL     OW18950   4.532   2.590   0.413  0.1897 -0.0421 -0.3470
 6046SOL    HW118951   4.549   2.514   0.357  1.3745  0.0535 -0.1177
 6046SOL    HW218952   4.443   2.616   0.390  0.7317  0.1185 -2.3496
 6047SOL     OW18953   3.210   2.383   2.183  0.0858 -0.5645 -0.5171
 6047SOL    HW118954   3.125   2.339   2.191 -0.4203  0.5309  0.1251
 6047SOL    HW218955   3.197   2.469   2.222  2.2680 -1.3860  2.1963
 6048SOL     OW18956   2.683   1.637   4.463  0.2076 -0.1247  0.1593
 6048SOL    HW118957   2.673   1.611   4.371  0.1760  0.6239 -0.0505
 6048SOL    HW218958   2.594   1.633   4.498 -0.8271  5.4473 -1.4212
 6049SOL     OW18959   3.872   6.084   2.478  0.3416 -0.0237  1.1200
 6049SOL    HW118960   3.826   6.099   2.561 -1.5918 -0.2151  0.1258
 6049SOL    HW218961   3.844   5.997   2.450  0.5097  0.2595  0.0142
 6050SOL     OW18962   5.090   7.757   7.841 -0.0813  0.1506  0.1231
 6050SOL    HW118963   5.067   7.850   7.840 -1.9162 -0.2815  1.5006
 6050SOL    HW218964   5.115   7.738   7.750  0.2628  1.9693 -0.1798
 6051SOL     OW18965   5.044   1.471   3.969  0.0990 -0.3050 -0.1849
 6051SOL    HW118966   5.008   1.409   4.033 -1.6596 -0.9613 -1.7572
 6051SOL    HW218967   5.010   1.441   3.885  0.2565  2.0395 -1.1299
 6052SOL     OW18968   3.304   6.276   0.177  0.6319  0.2537 -0.0240
 6052SOL    HW118969   3.394   6.248   0.191 -0.0203 -1.1515  1.6555
 6052SOL    HW218970   3.259   6.199   0.143 -0.2362  0.4980  0.5219
 6053SOL     OW18971   5.123   4.021   1.827  0.0075  0.1154  0.0137
 6053SOL    HW118972   5.081   4.039   1.743  1.2827 -0.3112 -0.7332
 6053SOL    HW218973   5.104   3.928   1.844  2.5332 -0.7208 -1.4591
 6054SOL     OW18974   7.647   2.316   4.323 -0.3839 -0.9833  0.8253
 6054SOL    HW118975   7.564   2.273   4.304 -0.8875  0.6788 -0.8278
 6054SOL    HW218976   7.625   2.388   4.382 -0.5486  0.9737 -1.5173
 6055SOL     OW18977   5.479   1.459   3.951  0.6301 -0.2790  1.0247
 6055SOL    HW118978   5.407   1.516   3.978  0.0317 -0.3545 -0.3859
 6055SOL    HW218979   5.558   1.502   3.984  0.3280  2.1274 -1.2560
 6056SOL     OW18980   4.754   5.368   6.749 -0.1944 -0.5052  0.3851
 6056SOL    HW118981   4.847   5.353   6.732 -0.5239 -0.3085 -1.6420
 6056SOL    HW218982   4.753   5.423   6.828  1.4860  1.4588 -0.9184
 6057SOL     OW18983   3.906   5.037   5.521  0.2458 -0.3663 -0.3622
 6057SOL    HW118984   3.993   5.048   5.559  0.5569 -1.6963 -0.6594
 6057SOL    HW218985   3.854   5.108   5.559  1.1270 -0.3335  0.8200
 6058SOL     OW18986   2.060   5.323   1.251 -0.1074 -0.3408  0.3031
 6058SOL    HW118987   2.107   5.256   1.300 -1.0968 -1.4692 -0.2415
 6058SOL    HW218988   2.037   5.280   1.168 -0.6961  0.6972 -0.0826
 6059SOL     OW18989   5.556   3.553   4.019 -0.4031  0.3625  0.4027
 6059SOL    HW118990   5.526   3.462   4.021  0.8542 -0.0492  0.9067
 6059SOL    HW218991   5.560   3.579   4.111 -0.2872  0.7596  0.2841
 6060SOL     OW18992   0.599   5.178   6.154 -0.2105 -0.4680  0.0381
 6060SOL    HW118993   0.571   5.259   6.197  0.2357 -0.9914  1.3643
 6060SOL    HW218994   0.694   5.184   6.153 -0.1443 -1.2575  0.7404
 6061SOL     OW18995   7.011   7.911   4.743  0.4161 -0.3354  0.7493
 6061SOL    HW118996   7.003   7.832   4.796 -1.5500 -1.7008 -1.4645
 6061SOL    HW218997   7.084   7.893   4.684 -0.0545 -0.5304  0.2212
 6062SOL     OW18998   3.224   6.020   7.208 -0.1164  0.8925  0.5302
 6062SOL    HW118999   3.264   5.954   7.265 -1.5706  0.8481  1.5267
 6062SOL    HW219000   3.294   6.083   7.192  0.5279  0.5145  1.7710
 6063SOL     OW19001   0.359   6.589   1.780  0.0062  0.6629 -0.5785
 6063SOL    HW119002   0.297   6.558   1.845  1.4709 -0.0767  0.4910
 6063SOL    HW219003   0.305   6.613   1.705 -1.4730 -0.9732 -0.0686
 6064SOL     OW19004   3.235   7.983   3.619 -0.3052 -0.3523 -0.1392
 6064SOL    HW119005   3.286   8.060   3.594  0.2847 -0.9081 -0.6658
 6064SOL    HW219006   3.159   7.985   3.561  0.0682 -0.5517 -0.6442
 6065SOL     OW19007   4.534   4.502   7.316  0.3879  0.1646 -0.8258
 6065SOL    HW119008   4.452   4.551   7.320  0.1114 -0.4136  0.8410
 6065SOL    HW219009   4.515   4.426   7.262 -0.2410 -0.1040 -0.2218
 6066SOL     OW19010   5.351   3.337   6.641  0.4281 -0.0841 -0.1918
 6066SOL    HW119011   5.361   3.389   6.562  0.5719  0.4352  0.1709
 6066SOL    HW219012   5.263   3.356   6.672  0.1684 -0.7146 -0.5320
 6067SOL     OW19013   6.606   5.286   6.383  0.1488 -0.2746  0.6028
 6067SOL    HW119014   6.615   5.200   6.342  1.3752  0.5339 -0.8553
 6067SOL    HW219015   6.638   5.273   6.473  0.4675 -1.3006  0.3474
 6068SOL     OW19016   5.428   2.750   1.338 -0.5523  0.2906  0.8832
 6068SOL    HW119017   5.389   2.754   1.251  0.2632 -0.4567  0.4826
 6068SOL    HW219018   5.515   2.789   1.328 -0.2023 -0.3999  1.2203
 6069SOL     OW19019   0.422   2.971   0.951  0.0455 -0.1980 -0.1912
 6069SOL    HW119020   0.443   3.064   0.956  0.8557 -0.3712 -0.2862
 6069SOL    HW219021   0.411   2.944   1.042 -0.2421 -0.0010 -0.1662
 6070SOL     OW19022   4.536   5.082   0.269 -0.1929 -0.4209 -0.1721
 6070SOL    HW119023   4.602   5.028   0.314 -0.4045 -1.2319 -0.8124
 6070SOL    HW219024   4.585   5.127   0.201  0.5715  2.6121  2.3041
 6071SOL     OW19025   1.770   2.512   0.921  0.2814 -0.2060 -0.3737
 6071SOL    HW119026   1.805   2.497   0.834 -0.6525 -0.0796 -0.7825
 6071SOL    HW219027   1.759   2.607   0.927  0.6966 -0.1826  0.0213
 6072SOL     OW19028   3.717   1.363   2.099  0.0346 -0.3808  0.3022
 6072SOL    HW119029   3.667   1.328   2.025  3.0121 -1.6408 -1.2102
 6072SOL    HW219030   3.694   1.307   2.173  1.7609 -3.1316 -1.1843
 6073SOL     OW19031   6.452   7.824   2.320 -0.2064  0.1504  0.0360
 6073SOL    HW119032   6.392   7.749   2.314  1.7635 -1.4770 -0.0635
 6073SOL    HW219033   6.464   7.851   2.229 -0.1631 -0.0269 -0.0112
 6074SOL     OW19034   3.110   2.286   1.107 -0.2214 -0.1388  0.2488
 6074SOL    HW119035   3.074   2.253   1.190 -2.4937 -1.0999 -1.0660
 6074SOL    HW219036   3.036   2.331   1.066  0.8312  0.1585 -1.3482
 6075SOL     OW19037   0.872   3.699   0.619 -0.4874  0.3068 -0.5380
 6075SOL    HW119038   0.820   3.689   0.539  1.2538  0.4205 -1.7013
 6075SOL    HW219039   0.951   3.746   0.591  0.3970 -0.1620  1.1203
 6076SOL     OW19040   7.752   3.503   2.545 -0.4974 -0.4589  0.3492
 6076SOL    HW119041   7.793   3.487   2.630  2.3025  1.2508 -0.6097
 6076SOL    HW219042   7.696   3.579   2.560  0.2716  0.0690  0.6176
 6077SOL     OW19043   3.941   6.748   5.353 -0.5161  0.3310  0.4036
 6077SOL    HW119044   3.852   6.764   5.319 -0.2375 -0.8820 -0.9566
 6077SOL    HW219045   3.996   6.811   5.306  0.1310 -2.4676 -2.7757
 6078SOL     OW19046   6.565   1.495   3.276 -0.2014 -0.7360 -0.6550
 6078SOL    HW119047   6.657   1.522   3.282 -1.0142  1.7070  1.6109
 6078SOL    HW219048   6.524   1.560   3.220 -1.0312 -0.4698  0.2601
 6079SOL     OW19049   7.003   3.297   1.869  0.4344 -0.0703 -0.6739
 6079SOL    HW119050   7.034   3.350   1.943 -0.6679 -2.6145  1.7074
 6079SOL    HW219051   6.918   3.334   1.847  0.3521  0.1332 -0.0295
 6080SOL     OW19052   0.618   5.466   2.908 -0.0447  0.1536  0.2836
 6080SOL    HW119053   0.588   5.525   2.978 -0.5036  0.0809  0.1504
 6080SOL    HW219054   0.604   5.378   2.944  0.2716  0.1240  0.3302
 6081SOL     OW19055   5.179   0.783   5.778 -0.0733  0.7229 -0.4536
 6081SOL    HW119056   5.252   0.801   5.719  0.9910 -1.0896  0.3002
 6081SOL    HW219057   5.104   0.772   5.720  0.3971  1.7320 -1.2821
 6082SOL     OW19058   3.012   0.452   5.679 -0.2273 -0.2923 -0.1097
 6082SOL    HW119059   2.924   0.487   5.667 -0.7315 -1.2046  0.7888
 6082SOL    HW219060   3.004   0.395   5.756  1.1758 -0.2870  0.0457
 6083SOL     OW19061   2.551   7.027   5.403  0.4376 -0.2918 -0.3696
 6083SOL    HW119062   2.500   7.058   5.329  2.8670  2.5863 -0.9110
 6083SOL    HW219063   2.488   7.020   5.474 -1.0318  1.6237 -1.4313
 6084SOL     OW19064   0.242   0.623   2.998  0.3835  0.3826 -0.0734
 6084SOL    HW119065   0.292   0.547   2.968  1.2923  0.2726  1.6569
 6084SOL    HW219066   0.153   0.591   3.010  1.3498 -1.1842  3.4366
 6085SOL     OW19067   1.551   5.796   2.211 -0.1626  0.0721  0.1551
 6085SOL    HW119068   1.600   5.732   2.263  0.3336  0.4704  0.1824
 6085SOL    HW219069   1.580   5.781   2.121  0.1688  0.4429  0.1964
 6086SOL     OW19070   0.538   1.210   6.890  0.7405 -0.6822 -0.0439
 6086SOL    HW119071   0.480   1.160   6.832  0.3338  0.0964 -0.3219
 6086SOL    HW219072   0.609   1.240   6.832  1.7607 -2.1349  0.4151
 6087SOL     OW19073   3.103   0.408   0.695  0.0372 -0.1187 -0.4759
 6087SOL    HW119074   3.113   0.420   0.789  0.2432 -0.0261 -0.5102
 6087SOL    HW219075   3.044   0.478   0.668 -0.3813 -0.4153 -0.3435
 6088SOL     OW19076   0.359   6.561   2.863  0.4042 -0.1828  0.2080
 6088SOL    HW119077   0.316   6.633   2.908  0.7923 -0.0991  0.4488
 6088SOL    HW219078   0.294   6.528   2.802  0.2993  0.5265 -0.0700
 6089SOL     OW19079   3.341   6.565   5.013  0.0887 -0.1511  0.0074
 6089SOL    HW119080   3.274   6.604   5.069 -2.5057  2.2861 -4.5276
 6089SOL    HW219081   3.301   6.483   4.982 -0.2958  0.6130 -1.5826
 6090SOL     OW19082   5.913   6.359   4.203  0.6892 -0.8983  0.2905
 6090SOL    HW119083   5.859   6.438   4.209 -0.7655 -1.9618  1.7374
 6090SOL    HW219084   5.853   6.288   4.227  2.1039 -2.3828 -0.5085
 6091SOL     OW19085   3.475   5.273   2.205  0.2218  0.4682  0.8448
 6091SOL    HW119086   3.523   5.250   2.285 -0.7696 -0.3929  1.2103
 6091SOL    HW219087   3.398   5.215   2.206 -0.0190  0.7463 -0.5140
 6092SOL     OW19088   6.028   1.170   2.907  0.7170 -0.0631  0.0601
 6092SOL    HW119089   6.083   1.098   2.876 -1.6221 -1.3717 -1.2072
 6092SOL    HW219090   6.043   1.173   3.001 -0.8302 -3.7586  0.5096
 6093SOL     OW19091   4.944   5.767   3.289 -0.3596 -0.7437 -0.4717
 6093SOL    HW119092   4.982   5.737   3.206  0.5647 -3.3577  0.8567
 6093SOL    HW219093   5.020   5.785   3.345 -1.0155 -0.6556  0.3911
 6094SOL     OW19094   4.700   6.232   5.044 -0.3437  0.0076  0.0390
 6094SOL    HW119095   4.784   6.196   5.073  1.3014  1.5950 -2.4584
 6094SOL    HW219096   4.663   6.163   4.988  0.3760  0.1517 -0.6316
 6095SOL     OW19097   3.588   5.763   2.577 -0.0495 -0.2699 -0.0808
 6095SOL    HW119098   3.528   5.827   2.540 -0.0293  0.9937  2.0279
 6095SOL    HW219099   3.671   5.810   2.585  0.0560 -0.6511  1.1536
 6096SOL     OW19100   1.270   7.796   2.278  0.3987  0.1629 -0.0466
 6096SOL    HW119101   1.182   7.759   2.284  0.6412 -0.6413 -1.3222
 6096SOL    HW219102   1.291   7.792   2.185  0.4955  3.3832 -0.2189
 6097SOL     OW19103   4.668   2.242   0.862 -0.1367  0.0696 -0.6296
 6097SOL    HW119104   4.594   2.268   0.917  0.8817  1.0407  0.3048
 6097SOL    HW219105   4.742   2.291   0.897  0.8198 -0.3948 -1.9726
 6098SOL     OW19106   6.129   7.158   4.452 -0.1652  0.1788  0.1863
 6098SOL    HW119107   6.057   7.136   4.511 -0.3456 -0.2656 -0.1971
 6098SOL    HW219108   6.107   7.115   4.370  1.5039 -1.6095  0.6398
 6099SOL     OW19109   1.883   0.183   1.657  0.5950  0.1756 -0.1722
 6099SOL    HW119110   1.800   0.195   1.703  0.5228  0.8776 -0.4717
 6099SOL    HW219111   1.861   0.129   1.581  0.3950  0.4382 -0.3015
 6100SOL     OW19112   0.369   0.503   1.012 -0.0179 -0.0768 -0.2379
 6100SOL    HW119113   0.276   0.480   1.005 -0.0938 -0.4886  1.7882
 6100SOL    HW219114   0.415   0.424   0.984 -0.2864 -0.1344 -0.5178
 6101SOL     OW19115   1.162   7.525   6.355 -0.0176  0.1290  0.1173
 6101SOL    HW119116   1.097   7.467   6.396 -0.0325 -0.5469 -0.8341
 6101SOL    HW219117   1.235   7.526   6.416 -0.9025  0.8498  1.1709
 6102SOL     OW19118   3.092   3.345   6.439 -0.3902  0.0347 -0.2417
 6102SOL    HW119119   3.042   3.278   6.487  0.8787 -0.7043  0.0772
 6102SOL    HW219120   3.184   3.324   6.458  0.0044  2.1449  0.2081
 6103SOL     OW19121   5.627   7.680   5.686  0.0075 -0.3470  0.2556
 6103SOL    HW119122   5.590   7.745   5.627  0.3390  0.1214  0.5578
 6103SOL    HW219123   5.677   7.731   5.750 -0.2587 -0.8521  0.8787
 6104SOL     OW19124   6.137   2.229   7.534 -0.0490 -0.0500 -0.1676
 6104SOL    HW119125   6.223   2.267   7.515  0.2145 -0.6337 -0.1524
 6104SOL    HW219126   6.078   2.274   7.474  0.2138  0.5717  0.0343
 6105SOL     OW19127   0.604   3.546   2.470 -0.0693 -0.1880 -0.0545
 6105SOL    HW119128   0.531   3.485   2.458  0.8162 -1.2777  0.0542
 6105SOL    HW219129   0.663   3.527   2.397 -0.1359  1.0749 -0.4607
 6106SOL     OW19130   4.092   7.112   4.322  0.4798  0.9757  0.8236
 6106SOL    HW119131   4.080   7.118   4.416 -0.2838 -1.7898  0.9487
 6106SOL    HW219132   4.003   7.114   4.286  0.7018  0.6322  0.2474
 6107SOL     OW19133   2.995   6.109   4.689 -0.0537  0.4857 -0.6287
 6107SOL    HW119134   3.080   6.102   4.646  0.6466 -1.5354  0.9887
 6107SOL    HW219135   2.947   6.175   4.638  2.3741  1.4753 -1.7050
 6108SOL     OW19136   6.548   3.077   3.589 -0.3189  0.2856  0.0002
 6108SOL    HW119137   6.617   3.130   3.548 -2.7521  1.8432 -2.2169
 6108SOL    HW219138   6.541   3.000   3.533  1.3062 -1.1125  1.6608
 6109SOL     OW19139   2.615   5.227   0.782 -0.2881  0.0618  0.5104
 6109SOL    HW119140   2.696   5.250   0.827 -0.0285 -2.8661  1.6066
 6109SOL    HW219141   2.644   5.200   0.694  0.0123 -1.4086  1.0416
 6110SOL     OW19142   3.290   6.904   4.790  0.0352  0.3057  0.7847
 6110SOL    HW119143   3.197   6.925   4.804  0.3545  1.8942  0.6386
 6110SOL    HW219144   3.322   6.876   4.875 -0.7124 -0.8335  0.7068
 6111SOL     OW19145   0.380   4.022   0.484  0.0800 -0.9714  0.3813
 6111SOL    HW119146   0.302   4.076   0.479 -0.2395 -1.2111  2.3935
 6111SOL    HW219147   0.406   4.008   0.393 -1.7398 -0.2160 -0.2644
 6112SOL     OW19148   1.695   3.043   3.846 -0.2403 -0.1729  0.1085
 6112SOL    HW119149   1.707   3.026   3.939  0.8973  2.1242  0.4271
 6112SOL    HW219150   1.741   2.972   3.802  1.2114 -0.0293  1.3357
 6113SOL     OW19151   0.103   2.111   1.454  0.7850  0.2556 -0.6245
 6113SOL    HW119152   0.119   2.159   1.372 -2.2363  0.0261 -1.3845
 6113SOL    HW219153   0.066   2.177   1.513 -0.2379 -0.3690 -0.5718
 6114SOL     OW19154   4.978   1.749   3.207  0.8836 -0.6958 -0.1487
 6114SOL    HW119155   5.054   1.799   3.236  0.1360  0.8934 -0.8563
 6114SOL    HW219156   4.976   1.761   3.112 -1.7390  1.5385  0.1086
 6115SOL     OW19157   6.934   6.594   2.176  0.3216  0.1059 -0.4331
 6115SOL    HW119158   6.938   6.544   2.095  3.3830 -0.3651 -0.0523
 6115SOL    HW219159   7.016   6.644   2.177 -0.7321  1.8897  1.2576
 6116SOL     OW19160   0.611   0.715   0.174  0.1705 -0.2072 -0.4901
 6116SOL    HW119161   0.595   0.705   0.080 -0.3683 -2.0677 -0.2239
 6116SOL    HW219162   0.659   0.635   0.198 -0.2365 -0.0311  0.9284
 6117SOL     OW19163   2.508   4.567   5.396  0.0986 -0.1507  0.3950
 6117SOL    HW119164   2.417   4.597   5.395  0.0850 -0.1888  0.4793
 6117SOL    HW219165   2.520   4.531   5.484  0.1424 -0.3081  0.3248
 6118SOL     OW19166   6.725   0.414   2.119  0.5184  0.5332  0.1458
 6118SOL    HW119167   6.672   0.344   2.156  0.6301  0.6541  0.5475
 6118SOL    HW219168   6.670   0.492   2.124  0.5677  0.5686  0.1469
 6119SOL     OW19169   1.048   4.103   2.101  0.3979  0.7458  0.1338
 6119SOL    HW119170   0.969   4.148   2.072  0.3844  1.3047  1.0399
 6119SOL    HW219171   1.106   4.173   2.130  1.4621  0.3861 -1.0747
 6120SOL     OW19172   5.914   0.672   4.877  0.5277 -0.3481 -0.0084
 6120SOL    HW119173   5.840   0.660   4.818 -1.7673 -0.1914  2.7147
 6120SOL    HW219174   5.886   0.631   4.959  3.1751  0.3466  1.3009
 6121SOL     OW19175   1.599   2.988   6.849  0.2456 -0.2720  0.3088
 6121SOL    HW119176   1.675   2.992   6.791 -1.5437 -2.3628 -2.3175
 6121SOL    HW219177   1.605   2.902   6.891 -0.6743 -0.4512  0.0830
 6122SOL     OW19178   0.101   5.847   5.278  0.3281  0.7607  1.0356
 6122SOL    HW119179   0.074   5.847   5.370  1.1984 -1.1231  1.3181
 6122SOL    HW219180   0.196   5.834   5.282  0.4227  1.0939 -0.1307
 6123SOL     OW19181   2.966   1.902   7.383 -0.2962 -0.4035 -0.4128
 6123SOL    HW119182   2.930   1.899   7.294  1.4751  0.3472 -1.1786
 6123SOL    HW219183   2.998   1.813   7.399 -1.0296 -0.6576 -0.3466
 6124SOL     OW19184   6.900   4.477   7.064 -0.0825 -0.3209 -0.0287
 6124SOL    HW119185   6.833   4.456   7.129  0.7903 -1.0885  0.6285
 6124SOL    HW219186   6.924   4.568   7.082 -0.1950 -0.3795  0.4118
 6125SOL     OW19187   1.492   2.127   4.483  0.2640 -0.0606  0.1347
 6125SOL    HW119188   1.450   2.163   4.405 -1.0115 -2.3585 -0.2804
 6125SOL    HW219189   1.585   2.122   4.460 -0.1103 -0.8181 -1.3200
 6126SOL     OW19190   0.037   2.674   4.824  0.2146  0.1780 -0.6540
 6126SOL    HW119191  -0.044   2.663   4.874 -0.0233 -0.2384 -1.1237
 6126SOL    HW219192   0.074   2.756   4.856 -0.4516  0.4344 -0.5168
 6127SOL     OW19193   7.475   3.880   3.282 -0.5780 -0.4853  0.1200
 6127SOL    HW119194   7.497   3.789   3.304 -0.8849 -0.1262  1.9951
 6127SOL    HW219195   7.560   3.921   3.264 -0.1905 -0.5419  1.7209
 6128SOL     OW19196   1.773   6.286   2.867  0.0479 -0.3328 -0.2632
 6128SOL    HW119197   1.801   6.217   2.806  0.5623  1.2953 -1.9141
 6128SOL    HW219198   1.728   6.350   2.812 -0.2086  0.7707  1.2052
 6129SOL     OW19199   0.997   6.755   3.292  0.2220 -0.1935 -0.2555
 6129SOL    HW119200   0.976   6.671   3.251 -1.7983  1.3938 -2.6181
 6129SOL    HW219201   0.940   6.759   3.369 -0.3299 -0.6078 -0.6360
 6130SOL     OW19202   1.081   3.190   7.629  0.6345  0.1368  0.8924
 6130SOL    HW119203   1.042   3.145   7.704  1.8901 -0.0615  1.4432
 6130SOL    HW219204   1.085   3.282   7.655 -0.9805  0.4245  0.1753
 6131SOL     OW19205   2.458   6.398   3.128 -0.2727 -0.0308  0.3610
 6131SOL    HW119206   2.551   6.380   3.115 -0.3349  1.1055 -1.8508
 6131SOL    HW219207   2.414   6.316   3.103  0.1419 -0.7630  1.9680
 6132SOL     OW19208   4.865   3.731   6.838  0.1612  0.1167  0.0066
 6132SOL    HW119209   4.872   3.666   6.908  0.0034 -0.8304 -0.8385
 6132SOL    HW219210   4.896   3.685   6.760 -2.7622  0.0664 -1.2053
 6133SOL     OW19211   7.930   1.459   0.829  0.3939  0.5658  0.7800
 6133SOL    HW119212   7.874   1.436   0.755  1.9607  1.4679 -0.7248
 6133SOL    HW219213   8.019   1.445   0.797  1.1210  1.8012  2.2037
 6134SOL     OW19214   4.565   4.309   3.037 -0.1555 -0.1269 -0.4626
 6134SOL    HW119215   4.483   4.322   2.989  1.2164  0.4864 -2.6915
 6134SOL    HW219216   4.560   4.219   3.069 -2.7640  0.6640  1.5581
 6135SOL     OW19217   1.154   7.146   0.892 -0.0840  0.1743 -0.1171
 6135SOL    HW119218   1.115   7.099   0.965 -0.9394  0.8770 -0.1196
 6135SOL    HW219219   1.130   7.095   0.815  0.3706 -0.2729  0.0330
 6136SOL     OW19220   0.522   3.227   1.586  0.1083  0.4635  0.0900
 6136SOL    HW119221   0.559   3.238   1.499 -0.5003  1.2691 -0.0763
 6136SOL    HW219222   0.433   3.262   1.579  0.6342  2.1701  1.4515
 6137SOL     OW19223   7.496   4.582   6.481  0.2570  0.2713  0.5443
 6137SOL    HW119224   7.567   4.645   6.477 -0.7535  1.4346  0.7511
 6137SOL    HW219225   7.501   4.536   6.397  0.1894  1.5185 -0.1583
 6138SOL     OW19226   6.170   4.068   1.649 -0.3784 -0.1193 -0.1025
 6138SOL    HW119227   6.114   3.998   1.615 -0.6670  0.6268 -1.1694
 6138SOL    HW219228   6.111   4.141   1.665  0.4068  1.0833 -2.3645
 6139SOL     OW19229   7.690   4.414   6.187 -0.4700 -0.1387 -0.0880
 6139SOL    HW119230   7.767   4.399   6.132 -0.1946  1.8367 -0.2708
 6139SOL    HW219231   7.641   4.331   6.183  0.6617 -0.7568 -1.5142
 6140SOL     OW19232   4.274   1.141   3.968 -0.1430  0.1515  0.0108
 6140SOL    HW119233   4.259   1.235   3.982 -1.1748  0.3409 -2.1278
 6140SOL    HW219234   4.187   1.106   3.949  0.3042 -1.1674  0.3638
 6141SOL     OW19235   2.370   3.064   2.090 -0.5863  0.1838  1.2473
 6141SOL    HW119236   2.406   3.101   2.009 -2.1569  0.7005  0.7748
 6141SOL    HW219237   2.446   3.058   2.148  0.0874  2.2993  0.6412
 6142SOL     OW19238   0.417   7.867   0.657  0.0349  0.7214 -0.2672
 6142SOL    HW119239   0.426   7.785   0.609  1.0769 -0.4258  1.7994
 6142SOL    HW219240   0.380   7.841   0.742  1.3354  2.2300  0.8059
 6143SOL     OW19241   1.473   4.878   2.254  0.6852 -0.0267  0.5760
 6143SOL    HW119242   1.489   4.895   2.346  1.0204  0.4116  0.4387
 6143SOL    HW219243   1.413   4.948   2.227  0.5420 -0.1875  0.4748
 6144SOL     OW19244   3.950   7.877   1.085  0.5030  0.4831 -0.0535
 6144SOL    HW119245   3.926   7.801   1.032 -0.3316 -0.0969  1.1250
 6144SOL    HW219246   3.871   7.931   1.087  0.6570  0.6983  0.2640
 6145SOL     OW19247   7.234   1.854   0.635  0.1244 -0.5334  0.5591
 6145SOL    HW119248   7.299   1.906   0.587 -0.1589 -0.9391 -0.2709
 6145SOL    HW219249   7.283   1.820   0.710  1.3553 -2.1753 -0.9184
 6146SOL     OW19250   1.579   0.446   2.383  0.2084 -0.1254  0.1061
 6146SOL    HW119251   1.501   0.485   2.421 -0.3207 -0.0932 -0.9704
 6146SOL    HW219252   1.642   0.518   2.378 -0.3735  0.3449 -0.8197
 6147SOL     OW19253   6.213   3.848   0.019  0.0255 -0.1291  0.3209
 6147SOL    HW119254   6.195   3.775   0.078  0.9904 -0.9283 -0.3777
 6147SOL    HW219255   6.298   3.881   0.046  0.8388 -0.9935 -1.1016
 6148SOL     OW19256   5.286   6.200   6.674  0.1025 -0.3859  0.0798
 6148SOL    HW119257   5.231   6.122   6.669 -0.0158 -0.3608  0.8496
 6148SOL    HW219258   5.375   6.168   6.658 -0.0278 -0.5668 -0.2881
 6149SOL     OW19259   5.479   4.099   6.978  0.6904 -0.0830 -0.3586
 6149SOL    HW119260   5.488   4.054   6.893  2.9936 -0.6405  0.1625
 6149SOL    HW219261   5.559   4.150   6.987  0.4965 -0.0950  1.5386
 6150SOL     OW19262   5.647   2.295   5.348  0.6371 -0.5392 -0.1827
 6150SOL    HW119263   5.689   2.234   5.409  1.8207  0.5688  0.1288
 6150SOL    HW219264   5.719   2.330   5.296 -0.0527  0.4691 -0.4740
 6151SOL     OW19265   4.567   5.754   4.216  0.1555  0.0459 -0.2423
 6151SOL    HW119266   4.535   5.703   4.142  0.6476 -0.6264  0.0007
 6151SOL    HW219267   4.601   5.834   4.176 -0.4001  0.0831 -0.6501
 6152SOL     OW19268   4.744   6.158   3.577 -0.2424  0.2918  0.0586
 6152SOL    HW119269   4.721   6.163   3.484 -0.5626  0.1585  0.1287
 6152SOL    HW219270   4.820   6.100   3.580 -0.2023  0.3345 -0.1244
 6153SOL     OW19271   2.289   5.298   6.283  0.8815  0.3246  0.2725
 6153SOL    HW119272   2.215   5.240   6.265 -0.7876  2.2257  0.8436
 6153SOL    HW219273   2.334   5.306   6.199  0.1521 -0.4718 -0.1969
 6154SOL     OW19274   5.885   3.628   7.345  0.9738 -0.5086  0.4011
 6154SOL    HW119275   5.836   3.682   7.406  1.2092  2.3181 -1.8457
 6154SOL    HW219276   5.822   3.564   7.313 -0.4952  1.2331 -0.2343
 6155SOL     OW19277   6.435   2.273   3.175  0.0361 -0.5873  0.3334
 6155SOL    HW119278   6.400   2.339   3.115 -2.0203 -0.0113  2.1096
 6155SOL    HW219279   6.508   2.317   3.218  0.2961 -0.3484 -0.3379
 6156SOL     OW19280   4.822   4.261   6.053  0.5528 -0.6316  0.0129
 6156SOL    HW119281   4.761   4.301   6.114 -0.0292 -1.2028 -0.1867
 6156SOL    HW219282   4.834   4.326   5.984  1.8811  0.3572  1.1590
 6157SOL     OW19283   7.354   7.605   2.980 -0.4999  0.1189 -0.3607
 6157SOL    HW119284   7.365   7.619   3.074 -0.0477  1.4842 -0.6074
 6157SOL    HW219285   7.380   7.514   2.966  0.3496  0.1958  0.6965
 6158SOL     OW19286   0.352   7.490   6.837 -0.6801 -0.2198  0.7865
 6158SOL    HW119287   0.377   7.417   6.894  2.8565  0.9441  0.8234
 6158SOL    HW219288   0.355   7.567   6.894  3.7166  1.0864 -1.0045
 6159SOL     OW19289   2.984   0.758   5.796  0.1672  0.2326  0.0785
 6159SOL    HW119290   2.929   0.722   5.727 -0.9127 -0.4909  1.3150
 6159SOL    HW219291   2.999   0.685   5.856  2.7395  0.3346 -0.3951
 6160SOL     OW19292   4.572   1.369   1.683  0.6897 -0.1335 -0.5137
 6160SOL    HW119293   4.531   1.397   1.764  1.3606  1.7344 -0.7955
 6160SOL    HW219294   4.512   1.303   1.647 -0.2453 -0.0399  0.8467
 6161SOL     OW19295   6.620   7.090   7.817 -0.3743  0.0123 -0.2927
 6161SOL    HW119296   6.708   7.059   7.840 -0.6151  0.0019  0.6332
 6161SOL    HW219297   6.636   7.168   7.764  0.1994 -0.1501 -0.3649
 6162SOL     OW19298   2.152   6.452   0.514  0.1936 -0.5320 -0.1011
 6162SOL    HW119299   2.087   6.388   0.485  0.3741 -0.9214  0.3585
 6162SOL    HW219300   2.101   6.529   0.539 -0.1365 -1.1018  0.9578
 6163SOL     OW19301   6.061   7.573   6.657 -0.2725  0.3949  0.0648
 6163SOL    HW119302   6.078   7.556   6.564  1.5778  0.6714  0.3208
 6163SOL    HW219303   5.981   7.625   6.658 -0.8507 -0.4450 -1.3097
 6164SOL     OW19304   7.429   3.515   1.746 -0.0822  0.0069 -0.0562
 6164SOL    HW119305   7.489   3.572   1.697  0.0517  0.8663  1.0833
 6164SOL    HW219306   7.343   3.553   1.730 -0.1603 -0.3518 -0.4935
 6165SOL     OW19307   0.451   7.247   1.403 -0.4172  0.0570 -0.3974
 6165SOL    HW119308   0.417   7.218   1.319 -1.1567 -0.3942  0.0517
 6165SOL    HW219309   0.383   7.221   1.467 -0.1079  0.8568  0.2647
 6166SOL     OW19310   5.555   0.523   3.256  0.0121 -0.5284 -0.1901
 6166SOL    HW119311   5.468   0.489   3.278  0.1935 -0.3831  0.7834
 6166SOL    HW219312   5.563   0.604   3.305  0.0923  0.2791 -1.5109
 6167SOL     OW19313   4.264   7.648   4.027 -0.1242  0.7333  0.2858
 6167SOL    HW119314   4.293   7.723   3.976 -2.8281  1.8824  0.3625
 6167SOL    HW219315   4.183   7.619   3.984  0.5476 -1.7576  0.6222
 6168SOL     OW19316   2.555   0.406   6.575  0.3887  0.1469  0.4584
 6168SOL    HW119317   2.498   0.402   6.499  1.1965 -3.2249 -0.0730
 6168SOL    HW219318   2.642   0.385   6.541  1.2240  1.1519  1.9052
 6169SOL     OW19319   2.607   0.777   0.020 -0.5517  0.2283  0.4464
 6169SOL    HW119320   2.686   0.776  -0.033  0.4991  1.0857  1.9575
 6169SOL    HW219321   2.566   0.861   0.001  0.6450  1.2119  2.1524
 6170SOL     OW19322   1.405   5.510   2.353  0.1518 -0.9946  0.0742
 6170SOL    HW119323   1.417   5.466   2.437  2.5288 -1.5549 -0.5073
 6170SOL    HW219324   1.494   5.532   2.325 -0.3995 -2.4831 -3.1531
 6171SOL     OW19325   4.710   5.046   4.876  0.0383  0.0541  0.1692
 6171SOL    HW119326   4.802   5.039   4.901  0.0561 -0.4677 -0.0387
 6171SOL    HW219327   4.686   5.136   4.899  0.7891  0.4086 -0.4196
 6172SOL     OW19328   1.179   7.271   4.655  0.4266 -0.4244  0.2209
 6172SOL    HW119329   1.150   7.260   4.565  0.9785 -1.9225  0.2059
 6172SOL    HW219330   1.123   7.211   4.706 -0.0564  0.5964  0.9117
 6173SOL     OW19331   5.238   6.954   6.809  0.7781 -0.2889  0.0043
 6173SOL    HW119332   5.238   6.879   6.749 -0.6063 -1.3092  1.2291
 6173SOL    HW219333   5.162   7.006   6.781  0.3809 -0.5482  0.5973
 6174SOL     OW19334   5.075   3.514   3.005 -0.3302  0.5880  0.6337
 6174SOL    HW119335   5.155   3.517   2.952  0.2549  0.5327  1.5186
 6174SOL    HW219336   5.019   3.451   2.959 -0.6659  2.0940 -1.0833
 6175SOL     OW19337   6.747   5.704   1.588  0.0366  0.7980 -0.1836
 6175SOL    HW119338   6.838   5.683   1.610 -0.5822  0.0540  1.7665
 6175SOL    HW219339   6.709   5.619   1.564 -0.7729  0.7041  1.3868
 6176SOL     OW19340   4.098   4.789   7.260 -0.1932  0.6294  0.5352
 6176SOL    HW119341   4.153   4.711   7.251  0.9556  1.4706  0.1238
 6176SOL    HW219342   4.106   4.813   7.352 -0.6219  0.2107  0.6834
 6177SOL     OW19343   7.816   5.372   7.345 -0.0605  0.1945 -0.0556
 6177SOL    HW119344   7.763   5.449   7.327 -3.8027 -1.5824  2.7345
 6177SOL    HW219345   7.802   5.315   7.270 -1.2671  0.1672  0.1904
 6178SOL     OW19346   4.992   0.681   6.590 -0.0567 -0.8986 -0.4377
 6178SOL    HW119347   5.055   0.708   6.657 -2.7849  1.9935  1.0485
 6178SOL    HW219348   4.993   0.752   6.526 -2.4724 -0.3287  0.1100
 6179SOL     OW19349   6.739   0.035   6.936 -0.1424  0.5375 -0.6514
 6179SOL    HW119350   6.791   0.092   6.991  0.1744 -1.9177  1.7131
 6179SOL    HW219351   6.803  -0.023   6.895 -0.8370 -1.8841  1.5391
 6180SOL     OW19352   2.914   7.244   7.668  0.2916 -0.0057 -0.2590
 6180SOL    HW119353   2.937   7.202   7.751  1.7543  1.5110  0.1467
 6180SOL    HW219354   2.819   7.239   7.664  0.2444 -0.6335  1.2195
 6181SOL     OW19355   2.946   5.448   3.178  0.2764  0.3976  0.7623
 6181SOL    HW119356   2.953   5.510   3.250  0.9549  0.9890  0.1877
 6181SOL    HW219357   2.912   5.368   3.218  0.1025  0.9069  1.6299
 6182SOL     OW19358   5.576   7.319   3.626  0.5087  0.4657 -0.0790
 6182SOL    HW119359   5.629   7.253   3.670 -0.7840  0.8395  2.1022
 6182SOL    HW219360   5.531   7.366   3.696 -0.5069  2.0495 -1.7116
 6183SOL     OW19361   1.249   2.055   6.758  0.2859  0.0286  0.0831
 6183SOL    HW119362   1.235   2.121   6.826 -3.5513  0.9822 -1.4688
 6183SOL    HW219363   1.206   1.976   6.791  0.0552 -0.0520 -0.4012
 6184SOL     OW19364   7.747   1.898   6.246 -0.4760 -0.3010  0.3248
 6184SOL    HW119365   7.755   1.929   6.336  1.2057 -0.2741  0.1858
 6184SOL    HW219366   7.823   1.936   6.201 -1.1268 -0.5794 -1.0226
 6185SOL     OW19367   3.788   6.646   6.234  0.0300  0.5089  0.4372
 6185SOL    HW119368   3.849   6.715   6.262 -0.2203  0.1990  1.7310
 6185SOL    HW219369   3.777   6.662   6.140 -1.3312  3.2711  1.0234
 6186SOL     OW19370   6.354   5.963   4.492  0.5920 -0.0847 -0.3523
 6186SOL    HW119371   6.264   5.946   4.463  0.9694 -0.9350 -1.0697
 6186SOL    HW219372   6.349   6.046   4.540 -0.4662  0.1626 -0.8773
 6187SOL     OW19373   6.756   7.544   0.748 -0.4658 -0.2103  0.3759
 6187SOL    HW119374   6.684   7.600   0.719 -0.4638 -0.3375  0.1177
 6187SOL    HW219375   6.724   7.503   0.828 -0.5523 -0.0110  0.4442
 6188SOL     OW19376   0.912   6.582   5.659  0.3471  0.2280 -0.5341
 6188SOL    HW119377   0.980   6.649   5.665 -0.1388  0.5479  1.9804
 6188SOL    HW219378   0.939   6.515   5.721 -1.1058 -0.0981 -0.2258
 6189SOL     OW19379   1.451   4.895   6.293  0.7567  0.0571 -0.2062
 6189SOL    HW119380   1.510   4.968   6.311 -0.8161  0.9523  1.5467
 6189SOL    HW219381   1.435   4.855   6.379 -0.6203 -0.5902 -0.7404
 6190SOL     OW19382   1.679   3.852   6.411  0.5087  0.1623 -0.4317
 6190SOL    HW119383   1.610   3.829   6.349  0.3139  2.3756 -1.0753
 6190SOL    HW219384   1.708   3.939   6.384  1.4645  0.5258  1.6667
 6191SOL     OW19385   5.016   2.873   1.600 -0.5823  0.6423  0.3623
 6191SOL    HW119386   4.968   2.878   1.683  0.8455  1.3755  1.1482
 6191SOL    HW219387   5.088   2.934   1.609  1.3848 -1.5143 -0.2398
 6192SOL     OW19388   4.624   0.218   4.429 -0.0268 -0.5750  0.3311
 6192SOL    HW119389   4.574   0.248   4.506  1.1341  1.3123  0.3743
 6192SOL    HW219390   4.688   0.287   4.414 -0.1368 -0.9964 -2.2604
 6193SOL     OW19391   3.199   5.822   0.271 -0.4085  0.3178  0.5741
 6193SOL    HW119392   3.260   5.748   0.263 -0.0280  0.8408 -1.6591
 6193SOL    HW219393   3.126   5.786   0.322 -0.7663 -1.9671 -1.4506
 6194SOL     OW19394   3.438   4.782   5.512 -0.1352  0.9447  0.1700
 6194SOL    HW119395   3.480   4.850   5.460 -0.2878 -0.3925 -1.7686
 6194SOL    HW219396   3.409   4.717   5.448  0.4447 -1.1746  1.9874
 6195SOL     OW19397   5.147   2.683   1.951  0.1000  0.4773 -0.2812
 6195SOL    HW119398   5.221   2.730   1.913 -0.3168  0.7541 -0.7552
 6195SOL    HW219399   5.173   2.591   1.950 -0.3080  0.3626 -2.1898
 6196SOL     OW19400   5.350   3.041   5.381  0.5960 -0.7371 -0.3414
 6196SOL    HW119401   5.290   3.061   5.309  0.4156 -2.4306 -0.6843
 6196SOL    HW219402   5.344   3.117   5.439  0.0699  0.2502 -1.6688
 6197SOL     OW19403   2.809   4.298   1.562  0.1447  0.1124  0.1002
 6197SOL    HW119404   2.891   4.347   1.558 -0.9421  1.8613 -1.3952
 6197SOL    HW219405   2.751   4.353   1.615 -0.7538 -0.0420 -0.7196
 6198SOL     OW19406   0.261   7.151   4.450 -0.4542 -0.3599 -0.2995
 6198SOL    HW119407   0.325   7.096   4.404 -1.2810 -0.5321 -1.2771
 6198SOL    HW219408   0.189   7.160   4.387 -0.9694  0.6163  0.4241
 6199SOL     OW19409   6.536   5.847   1.724 -0.4757  0.3359 -0.5983
 6199SOL    HW119410   6.544   5.840   1.819 -0.8967  0.7450 -0.5319
 6199SOL    HW219411   6.611   5.798   1.690  0.1024  0.8300 -0.0478
 6200SOL     OW19412   1.315   4.706   5.573 -0.0083  0.1805 -0.4647
 6200SOL    HW119413   1.227   4.712   5.611 -0.5903 -0.4024 -1.6980
 6200SOL    HW219414   1.322   4.782   5.516  0.0784 -0.0519 -0.7681
 6201SOL     OW19415   2.435   6.946   2.694 -0.0403 -0.1496  0.0600
 6201SOL    HW119416   2.346   6.942   2.660 -0.3516 -1.5404  0.9938
 6201SOL    HW219417   2.480   6.872   2.654  0.1401 -0.6152  1.1051
 6202SOL     OW19418   0.745   1.956   4.727  0.5308 -0.4829 -0.3781
 6202SOL    HW119419   0.835   1.938   4.755  1.1551 -0.9819 -2.5498
 6202SOL    HW219420   0.728   2.046   4.756  1.8260 -0.2989 -0.1405
 6203SOL     OW19421   4.856   5.511   6.516 -0.6249  0.1937 -0.4479
 6203SOL    HW119422   4.946   5.479   6.512  0.1483  2.3705 -1.2927
 6203SOL    HW219423   4.815   5.459   6.584  2.1026  1.1465  2.0112
 6204SOL     OW19424   4.009   1.777   3.054  0.5908  0.5026  0.1204
 6204SOL    HW119425   4.068   1.704   3.031  0.6786  0.9037 -0.9585
 6204SOL    HW219426   4.025   1.842   2.986 -1.8859  0.1721 -0.8158
 6205SOL     OW19427   6.562   1.239   4.080 -0.7188  0.4002  0.1947
 6205SOL    HW119428   6.492   1.235   4.146 -1.4784  1.0756 -0.5482
 6205SOL    HW219429   6.519   1.274   4.002  0.5280  1.1437 -0.1772
 6206SOL     OW19430   0.778   7.435   2.816 -0.3418  0.4996  0.7000
 6206SOL    HW119431   0.722   7.372   2.770  0.3667  0.2339  0.1960
 6206SOL    HW219432   0.862   7.430   2.771  0.8956 -0.9816  3.0491
 6207SOL     OW19433   6.476   4.649   6.583  0.1618 -0.3019 -0.5836
 6207SOL    HW119434   6.530   4.728   6.585  2.7252 -1.9504 -1.2928
 6207SOL    HW219435   6.404   4.670   6.524  0.2139  1.8251  0.0592
 6208SOL     OW19436   3.152   2.732   3.006  0.1834  0.0137  0.3833
 6208SOL    HW119437   3.244   2.714   3.022  0.1228 -1.7607 -1.0791
 6208SOL    HW219438   3.148   2.826   2.989  1.8102  0.0152 -0.0625
 6209SOL     OW19439   1.193   0.242   2.245  0.1623  0.1266  0.5182
 6209SOL    HW119440   1.193   0.170   2.307  2.4338  0.2411  0.7012
 6209SOL    HW219441   1.168   0.203   2.162 -2.1960 -0.1619  1.3310
 6210SOL     OW19442   3.188   7.338   7.681  0.0283 -0.3075 -0.7539
 6210SOL    HW119443   3.096   7.319   7.663 -0.4330  0.9245  0.1586
 6210SOL    HW219444   3.210   7.409   7.620  0.1280 -0.0528 -0.4263
 6211SOL     OW19445   7.000   7.810   3.691 -0.1425 -0.2867 -0.2725
 6211SOL    HW119446   6.976   7.895   3.727  1.0563 -0.2004  0.3186
 6211SOL    HW219447   7.031   7.759   3.766  0.7940 -0.6553 -0.8986
 6212SOL     OW19448   7.759   4.735   0.857  0.6045  0.1970  0.2547
 6212SOL    HW119449   7.733   4.717   0.947  0.2065  1.5370  0.4168
 6212SOL    HW219450   7.697   4.801   0.827 -0.5117 -1.6864 -1.6731
 6213SOL     OW19451   5.783   6.768   5.763  0.0229 -0.2010 -0.1637
 6213SOL    HW119452   5.847   6.837   5.780 -0.7829  0.6817 -0.6850
 6213SOL    HW219453   5.808   6.698   5.823  1.2168  0.2977 -0.0545
 6214SOL     OW19454   6.204   0.652   1.799 -0.5461  0.2118  0.6184
 6214SOL    HW119455   6.161   0.645   1.714 -0.7422 -1.7267  0.8552
 6214SOL    HW219456   6.297   0.656   1.779 -0.6731  1.5857  0.2408
 6215SOL     OW19457   0.339   0.098   3.377 -0.2398  0.4452 -0.4017
 6215SOL    HW119458   0.325   0.173   3.435  1.4668  0.9340 -0.6028
 6215SOL    HW219459   0.305   0.127   3.293  0.1403  0.8802 -0.4069
 6216SOL     OW19460   7.903   0.163   3.972  0.4832 -0.1604  0.3799
 6216SOL    HW119461   7.979   0.118   4.009  0.9796 -0.4394 -0.9505
 6216SOL    HW219462   7.939   0.223   3.907 -0.5281 -1.5031 -1.4716
 6217SOL     OW19463   3.623   2.026   4.164 -0.3887  0.4020  0.7647
 6217SOL    HW119464   3.566   1.964   4.120 -1.0674  0.9683  0.8496
 6217SOL    HW219465   3.592   2.112   4.136  0.5240  0.7133  0.6761
 6218SOL     OW19466   0.977   7.770   2.287 -0.2900  0.1956  0.4492
 6218SOL    HW119467   0.925   7.819   2.223 -2.9782 -2.8194  0.2351
 6218SOL    HW219468   0.929   7.778   2.369  0.0258 -0.8388  0.7420
 6219SOL     OW19469   5.344   5.502   6.151  0.3851 -0.2029 -0.0791
 6219SOL    HW119470   5.429   5.499   6.107  1.3944 -2.2010  1.9354
 6219SOL    HW219471   5.339   5.590   6.188  1.1434  0.2517 -1.0460
 6220SOL     OW19472   6.559   2.218   4.491 -0.4150  0.1747  0.2666
 6220SOL    HW119473   6.633   2.275   4.512  0.9407 -1.2934 -0.4223
 6220SOL    HW219474   6.521   2.257   4.412 -0.1825  0.7587  0.4368
 6221SOL     OW19475   7.186   2.416   5.487  0.6020  0.4413  0.1098
 6221SOL    HW119476   7.280   2.408   5.475  0.1208 -3.1221 -1.8896
 6221SOL    HW219477   7.155   2.463   5.410  0.4114 -1.0378 -0.7290
 6222SOL     OW19478   1.640   7.783   2.512  0.6585  0.0424 -0.4233
 6222SOL    HW119479   1.546   7.790   2.493  0.4186 -0.3320  0.5756
 6222SOL    HW219480   1.676   7.732   2.440 -0.6417 -3.5392  1.3364
 6223SOL     OW19481   4.147   4.692   5.234 -0.5000 -0.6465 -0.1959
 6223SOL    HW119482   4.223   4.684   5.293  0.2841  1.3284 -0.8954
 6223SOL    HW219483   4.084   4.746   5.283 -0.6117 -0.5846 -0.4047
 6224SOL     OW19484   5.342   2.424   4.811 -0.2977  0.1531  0.2830
 6224SOL    HW119485   5.368   2.473   4.890 -0.6503  4.7337 -2.2672
 6224SOL    HW219486   5.425   2.404   4.768 -0.2416  0.5164  0.2177
 6225SOL     OW19487   6.637   2.717   2.777 -0.0881 -0.6143  0.6339
 6225SOL    HW119488   6.581   2.663   2.722 -1.3464 -0.2786  1.5543
 6225SOL    HW219489   6.680   2.777   2.717 -1.6014 -0.1182  0.0347
 6226SOL     OW19490   1.775   7.187   5.811 -0.1006  0.1812 -0.2322
 6226SOL    HW119491   1.683   7.162   5.819  0.1932 -0.3590  1.7998
 6226SOL    HW219492   1.813   7.118   5.757 -0.5482 -0.5555  0.3705
 6227SOL     OW19493   5.989   1.959   1.924 -0.5242 -0.2893 -0.4988
 6227SOL    HW119494   6.039   2.027   1.968 -1.4390  1.8814 -2.6588
 6227SOL    HW219495   6.006   1.879   1.974 -0.0371  1.6639  2.5876
 6228SOL     OW19496   7.019   0.411   4.663 -0.7015 -0.3382 -0.4936
 6228SOL    HW119497   6.971   0.436   4.742  1.3302  0.8362  0.3873
 6228SOL    HW219498   7.061   0.491   4.633  0.8190 -1.3817 -1.1883
 6229SOL     OW19499   0.712   2.737   7.897 -0.0574 -0.4684  0.2434
 6229SOL    HW119500   0.648   2.805   7.919 -0.3812 -0.9752  0.8833
 6229SOL    HW219501   0.753   2.768   7.816 -1.1162 -0.1332 -0.1790
 6230SOL     OW19502   6.409   6.764   6.979 -0.9352  0.1153 -0.0762
 6230SOL    HW119503   6.435   6.835   7.038 -0.4075  0.9149 -1.2623
 6230SOL    HW219504   6.319   6.743   7.006 -1.1620  1.3612  0.1685
 6231SOL     OW19505   2.660   2.409   4.322  0.4994 -0.3249 -0.6424
 6231SOL    HW119506   2.669   2.333   4.379 -0.8867  0.3770  0.5535
 6231SOL    HW219507   2.569   2.438   4.334  1.2400  2.0598 -0.3771
 6232SOL     OW19508   5.769   5.923   6.006  0.4467  0.0147  0.0572
 6232SOL    HW119509   5.727   5.933   6.092 -2.4412  1.3275 -1.4039
 6232SOL    HW219510   5.799   6.011   5.984 -1.1459  0.2317 -1.3569
 6233SOL     OW19511   0.693   3.774   1.095  0.0535 -0.4823 -0.4807
 6233SOL    HW119512   0.667   3.796   1.006 -1.0835 -0.2924 -0.1123
 6233SOL    HW219513   0.611   3.760   1.142  0.6702 -3.5983 -0.1855
 6234SOL     OW19514   0.478   5.472   6.096  0.7419 -0.7219  0.1820
 6234SOL    HW119515   0.480   5.389   6.048  0.6846 -0.5333 -0.1459
 6234SOL    HW219516   0.490   5.446   6.187  3.2080 -0.8891 -0.1611
 6235SOL     OW19517   5.480   0.090   2.695  0.1643  0.5070  0.3836
 6235SOL    HW119518   5.465   0.016   2.754  1.8826  0.9801  1.4355
 6235SOL    HW219519   5.423   0.159   2.730 -0.9205 -0.0807 -0.1891
 6236SOL     OW19520   6.465   2.556   2.635  0.0965 -0.4198 -0.1727
 6236SOL    HW119521   6.440   2.478   2.585 -0.0067 -1.1161  0.9375
 6236SOL    HW219522   6.421   2.628   2.591 -0.3728 -1.0761 -0.7970
 6237SOL     OW19523   2.478   3.021   3.792 -0.2352  0.6992 -0.3650
 6237SOL    HW119524   2.548   2.959   3.769  1.3727  2.4291 -0.2069
 6237SOL    HW219525   2.420   2.970   3.848  1.8515 -0.2738  0.9963
 6238SOL     OW19526   5.131   5.716   4.119 -0.4332  0.0376  0.1501
 6238SOL    HW119527   5.120   5.799   4.166 -3.6447 -0.6349  0.7387
 6238SOL    HW219528   5.146   5.651   4.188  0.2224 -0.1537 -0.1701
 6239SOL     OW19529   7.052   1.279   1.763 -0.4807  0.2982  0.0172
 6239SOL    HW119530   7.054   1.221   1.840  1.6768 -0.7754 -0.8195
 6239SOL    HW219531   7.097   1.358   1.791  1.1784 -0.4736 -0.4097
 6240SOL     OW19532   3.545   3.066   4.382  0.2332  0.6917 -0.4931
 6240SOL    HW119533   3.459   3.063   4.339 -0.4423  1.7799  0.7402
 6240SOL    HW219534   3.584   3.147   4.350 -0.0236  1.1985  0.4713
 6241SOL     OW19535   1.370   5.809   7.790 -0.0422 -0.3244  0.3034
 6241SOL    HW119536   1.447   5.760   7.761 -0.7610 -1.1743 -0.2278
 6241SOL    HW219537   1.364   5.792   7.884  1.0462  0.6466  0.5502
 6242SOL     OW19538   0.498   6.177   2.028  0.1823  0.1022 -0.3502
 6242SOL    HW119539   0.439   6.181   2.104  0.7539  0.5497  0.0777
 6242SOL    HW219540   0.494   6.265   1.991 -0.7142 -0.3425 -1.3187
 6243SOL     OW19541   3.070   4.719   5.425 -0.2115 -0.5920 -0.3002
 6243SOL    HW119542   3.084   4.768   5.506  0.2390 -0.4479 -0.4654
 6243SOL    HW219543   3.007   4.771   5.376  1.1924  0.4695 -1.0169
 6244SOL     OW19544   7.230   5.536   4.235 -0.0133 -0.0326 -0.2477
 6244SOL    HW119545   7.158   5.584   4.193 -0.6273  0.3204  1.1846
 6244SOL    HW219546   7.308   5.587   4.212 -0.2640 -0.1946 -1.4777
 6245SOL     OW19547   7.306   2.651   0.933  0.1089 -0.0640  0.2960
 6245SOL    HW119548   7.306   2.709   1.009 -1.1528  1.2719 -0.7055
 6245SOL    HW219549   7.213   2.637   0.914  0.4094 -1.7421  0.0056
 6246SOL     OW19550   4.034   6.970   7.635  0.4812 -0.6569 -0.0343
 6246SOL    HW119551   3.950   7.014   7.619  0.6399  0.6133  2.3424
 6246SOL    HW219552   4.068   6.951   7.548 -1.1150  1.0808 -1.0900
 6247SOL     OW19553   2.139   0.609   6.380 -0.5334  0.0224 -0.4237
 6247SOL    HW119554   2.068   0.546   6.367 -1.2869  1.0157 -1.2370
 6247SOL    HW219555   2.155   0.646   6.293  0.7305  0.0878 -0.1772
 6248SOL     OW19556   5.759   5.724   6.721  0.3209 -0.1274  0.5821
 6248SOL    HW119557   5.843   5.745   6.683  0.3665  0.0303  0.7691
 6248SOL    HW219558   5.777   5.712   6.815  0.1569 -0.2055  0.6042
 6249SOL     OW19559   5.162   0.955   4.327  0.1185 -0.2997 -0.0202
 6249SOL    HW119560   5.100   0.889   4.297  2.2110 -2.4489  0.2383
 6249SOL    HW219561   5.244   0.933   4.282  0.6695  2.6214 -0.5606
 6250SOL     OW19562   1.784   5.330   7.238 -0.1342 -0.9682  0.0618
 6250SOL    HW119563   1.801   5.414   7.281  1.7621 -1.9051  1.1614
 6250SOL    HW219564   1.747   5.354   7.153  0.1019  0.9634  0.4856
 6251SOL     OW19565   2.476   4.818   2.267 -0.2969 -0.2534  0.1196
 6251SOL    HW119566   2.525   4.737   2.281  0.6995  0.2505 -0.3524
 6251SOL    HW219567   2.411   4.820   2.336  0.2152 -1.0539  0.6244
 6252SOL     OW19568   4.544   5.705   7.253  0.4520 -0.7109 -0.0298
 6252SOL    HW119569   4.578   5.746   7.332 -0.2328  1.4336 -0.8156
 6252SOL    HW219570   4.621   5.692   7.197  0.2014  3.1807 -1.3836
 6253SOL     OW19571   4.804   7.771   2.577 -0.1543  0.3160 -0.4732
 6253SOL    HW119572   4.869   7.732   2.519 -0.6991 -0.3515 -0.6389
 6253SOL    HW219573   4.783   7.855   2.537  0.6640  0.5717 -0.3758
 6254SOL     OW19574   4.467   3.625   6.160 -0.4078 -0.6895 -0.1036
 6254SOL    HW119575   4.437   3.692   6.222  0.9009  0.4857 -0.7056
 6254SOL    HW219576   4.387   3.586   6.126 -1.1742 -0.0672  0.9398
 6255SOL     OW19577   6.925   0.924   0.710  0.0473  0.2755  0.0798
 6255SOL    HW119578   6.938   0.945   0.803  0.6431  0.6190 -0.0751
 6255SOL    HW219579   6.867   0.994   0.678 -0.2193  0.1141  0.2116
 6256SOL     OW19580   6.843   4.487   4.618 -0.2874 -0.2089 -0.2863
 6256SOL    HW119581   6.853   4.471   4.524 -0.9572 -0.3782 -0.3337
 6256SOL    HW219582   6.924   4.530   4.644  0.1907 -0.7864 -0.8087
 6257SOL     OW19583   2.168   1.608   3.584  0.6713 -0.3230  0.8744
 6257SOL    HW119584   2.182   1.592   3.677  0.2886  0.2277  1.0283
 6257SOL    HW219585   2.118   1.533   3.554 -0.7001  0.3242  1.4915
 6258SOL     OW19586   2.873   6.907   6.141  0.0659  0.4358  0.0722
 6258SOL    HW119587   2.843   6.854   6.214  1.1015 -0.8312 -0.4032
 6258SOL    HW219588   2.963   6.932   6.165 -0.2024  1.4959  0.0259
 6259SOL     OW19589   7.194   2.556   7.309  0.0262  0.1477 -0.2983
 6259SOL    HW119590   7.146   2.636   7.329  1.2440  0.5052  1.3441
 6259SOL    HW219591   7.187   2.546   7.214  1.2297  3.1010 -0.7409
 6260SOL     OW19592   2.105   2.274   1.762  0.0588 -0.4643 -0.4289
 6260SOL    HW119593   2.013   2.247   1.769 -0.2520  0.5621 -0.4672
 6260SOL    HW219594   2.123   2.274   1.668  0.4593 -1.8073 -0.3708
 6261SOL     OW19595   0.286   1.761   7.903  0.2047  0.6531  0.2178
 6261SOL    HW119596   0.313   1.679   7.945 -0.4428 -0.7120 -1.9634
 6261SOL    HW219597   0.361   1.785   7.847  0.0490  1.1062  0.2017
 6262SOL     OW19598   3.294   5.036   7.884  0.3977 -0.5034 -0.9928
 6262SOL    HW119599   3.223   5.062   7.825  0.0028 -1.1436 -0.7988
 6262SOL    HW219600   3.369   5.087   7.854 -0.0693 -0.0315 -1.3790
 6263SOL     OW19601   1.544   1.616   6.970  0.2541  0.2514 -0.1349
 6263SOL    HW119602   1.485   1.691   6.973  0.0055  0.1003 -1.0770
 6263SOL    HW219603   1.561   1.603   6.877  0.5267 -0.6812  0.0433
 6264SOL     OW19604   0.309   5.043   6.392 -0.0962 -0.2005  0.0077
 6264SOL    HW119605   0.249   5.011   6.325  0.4323 -2.3774  0.5614
 6264SOL    HW219606   0.396   5.025   6.357  0.2626  2.0001 -0.3233
 6265SOL     OW19607   1.796   7.977   7.186  0.1177  0.1343  0.1487
 6265SOL    HW119608   1.722   7.948   7.133  0.5885 -0.9961  0.0845
 6265SOL    HW219609   1.840   8.043   7.132  0.0164 -0.2816 -0.4476
 6266SOL     OW19610   3.332   5.078   0.979  0.3765 -0.0841  0.3572
 6266SOL    HW119611   3.249   5.113   1.010 -0.5392 -0.8724 -1.1786
 6266SOL    HW219612   3.336   5.102   0.887  1.1115 -1.4276  0.0273
 6267SOL     OW19613   0.651   6.908   7.838 -0.0444 -0.4007 -0.3153
 6267SOL    HW119614   0.628   6.988   7.790 -0.1819 -1.1271 -1.4939
 6267SOL    HW219615   0.653   6.935   7.930 -2.6890  0.3926 -0.4263
 6268SOL     OW19616   5.407   6.963   3.461 -0.1951 -0.4710 -0.0005
 6268SOL    HW119617   5.342   7.030   3.440 -0.7684 -0.8196  0.6459
 6268SOL    HW219618   5.466   7.005   3.523 -2.4707 -1.5527  3.0360
 6269SOL     OW19619   0.027   0.860   2.976 -0.5090 -0.3097  0.3002
 6269SOL    HW119620  -0.066   0.872   2.958 -0.6019 -0.8300  0.4283
 6269SOL    HW219621   0.042   0.766   2.967  0.5543  0.0773 -2.2561
 6270SOL     OW19622   1.067   2.717   5.922  0.0313  0.1435  0.2903
 6270SOL    HW119623   1.072   2.792   5.864 -2.4312  0.8224  0.8761
 6270SOL    HW219624   1.096   2.750   6.007  0.8329 -0.0850  0.1066
 6271SOL     OW19625   0.081   6.798   2.859  0.0766 -0.1498 -0.1978
 6271SOL    HW119626   0.088   6.709   2.826 -0.4229  0.1742 -1.2189
 6271SOL    HW219627   0.029   6.844   2.793  0.2229  0.8638  0.3740
 6272SOL     OW19628   5.729   0.718   0.075  0.5352  0.2142 -0.0269
 6272SOL    HW119629   5.788   0.676   0.013  0.1905 -0.6494  0.2209
 6272SOL    HW219630   5.684   0.785   0.024  0.1345 -0.5942 -0.7438
 6273SOL     OW19631   7.809   7.212   5.917  0.2666 -0.5084 -0.4713
 6273SOL    HW119632   7.735   7.195   5.858 -1.0207  0.2009  0.9157
 6273SOL    HW219633   7.848   7.293   5.884 -0.0286 -0.4898 -0.7790
 6274SOL     OW19634   0.079   3.415   6.484  0.1510 -0.4403  0.3911
 6274SOL    HW119635   0.028   3.410   6.404 -1.0420 -1.4381  1.2017
 6274SOL    HW219636   0.101   3.508   6.493  1.6243 -0.5358 -1.8997
 6275SOL     OW19637   4.740   1.313   7.790 -0.1788  0.3267 -0.3718
 6275SOL    HW119638   4.751   1.218   7.796  0.0784  0.3707 -0.1650
 6275SOL    HW219639   4.746   1.343   7.880 -1.5920  0.3941 -0.2796
 6276SOL     OW19640   4.825   7.694   3.008 -0.0033  0.4634  0.1394
 6276SOL    HW119641   4.828   7.693   3.104  1.6410  1.2367  0.1140
 6276SOL    HW219642   4.892   7.631   2.982 -0.0845  0.6439 -0.5023
 6277SOL     OW19643   1.028   3.952   1.005 -0.0207 -0.6255  0.4889
 6277SOL    HW119644   0.965   3.925   0.938  0.6473  0.5953 -0.6367
 6277SOL    HW219645   0.995   4.037   1.036  0.6760 -0.3295  0.4196
 6278SOL     OW19646   0.445   4.345   0.740  0.1915 -0.4235 -0.4781
 6278SOL    HW119647   0.414   4.256   0.757 -0.5674 -0.0699  0.0615
 6278SOL    HW219648   0.411   4.367   0.653 -0.9307 -0.1229  0.0142
 6279SOL     OW19649   5.470   6.083   2.846  0.3717  0.5789  0.3331
 6279SOL    HW119650   5.550   6.122   2.881 -0.9939  2.1236  1.8113
 6279SOL    HW219651   5.460   6.122   2.759  0.7551  1.0294  0.4918
 6280SOL     OW19652   6.540   3.787   4.729 -0.6448 -0.1071 -0.3737
 6280SOL    HW119653   6.584   3.872   4.734 -2.0817  0.6193  0.1041
 6280SOL    HW219654   6.547   3.762   4.637  1.6750 -0.5139 -0.1308
 6281SOL     OW19655   0.544   3.585   7.341 -0.3275 -0.0652 -0.6412
 6281SOL    HW119656   0.500   3.571   7.425  1.4329 -2.1477 -0.0228
 6281SOL    HW219657   0.617   3.643   7.362  0.3398 -0.8962 -0.6465
 6282SOL     OW19658   2.736   1.098   6.276  0.6421  0.1176 -0.2065
 6282SOL    HW119659   2.816   1.070   6.233  1.2653  0.4024  0.7443
 6282SOL    HW219660   2.765   1.160   6.343 -0.4079  0.5308 -0.1198
 6283SOL     OW19661   7.385   7.042   2.834  0.3913  0.4401  0.0624
 6283SOL    HW119662   7.401   7.114   2.772  0.5019  2.1941  2.0538
 6283SOL    HW219663   7.438   6.970   2.802 -0.6725  0.8399 -2.6882
 6284SOL     OW19664   7.362   7.349   0.316 -0.3296 -0.0252 -0.5763
 6284SOL    HW119665   7.362   7.258   0.343 -0.6585 -0.3012 -1.4724
 6284SOL    HW219666   7.352   7.399   0.397 -2.9834 -0.8898 -0.3346
 6285SOL     OW19667   0.195   5.741   4.682  0.0616 -0.0283 -0.1292
 6285SOL    HW119668   0.153   5.773   4.603  1.2482 -0.3126 -0.8961
 6285SOL    HW219669   0.288   5.735   4.659  0.2138 -1.5594  0.7988
 6286SOL     OW19670   4.891   7.683   3.273  0.3618 -0.5801 -0.7536
 6286SOL    HW119671   4.982   7.690   3.243  0.4947  1.2364  0.0065
 6286SOL    HW219672   4.893   7.716   3.362 -0.8539 -1.6636 -0.3189
 6287SOL     OW19673   2.724   2.901   4.423 -0.3679  0.4272 -0.4192
 6287SOL    HW119674   2.669   2.826   4.400 -0.1759  0.4644 -1.0122
 6287SOL    HW219675   2.760   2.931   4.339  0.1021  0.7545 -0.1029
 6288SOL     OW19676   3.232   3.323   0.295 -0.4829  0.2970  0.7166
 6288SOL    HW119677   3.322   3.290   0.297 -0.2794  0.8204  0.4199
 6288SOL    HW219678   3.240   3.412   0.262 -1.1479  0.2357  0.3781
 6289SOL     OW19679   3.671   4.197   7.116 -0.0005 -0.0290 -0.4574
 6289SOL    HW119680   3.594   4.200   7.174  0.6115 -2.5551  0.5651
 6289SOL    HW219681   3.720   4.275   7.138 -1.0344  0.3228  0.6816
 6290SOL     OW19682   3.924   6.477   1.216 -0.1170 -0.1277  0.0209
 6290SOL    HW119683   3.985   6.541   1.254 -2.4189  1.1678  1.6641
 6290SOL    HW219684   3.843   6.487   1.267 -0.9577 -3.5145 -0.4783
 6291SOL     OW19685   6.027   7.168   5.702 -0.2418  0.2371  0.0881
 6291SOL    HW119686   6.042   7.247   5.651  1.4923  1.0505  1.7859
 6291SOL    HW219687   6.080   7.180   5.781 -1.2416 -1.8919  1.1264
 6292SOL     OW19688   0.688   3.225   5.188  0.3491  0.3107  0.6089
 6292SOL    HW119689   0.718   3.314   5.170 -1.5348  0.8574  0.0952
 6292SOL    HW219690   0.676   3.186   5.101  0.5385 -0.2342  0.8245
 6293SOL     OW19691   5.005   6.995   0.523  0.2181  0.2259 -0.2290
 6293SOL    HW119692   5.021   6.940   0.599 -2.4880 -2.8593 -1.7592
 6293SOL    HW219693   4.929   7.047   0.547  2.7569  3.4692  1.2055
 6294SOL     OW19694   3.548   4.334   0.012 -0.9013 -0.1346  0.3644
 6294SOL    HW119695   3.454   4.342  -0.008 -0.8017 -0.6505 -0.3229
 6294SOL    HW219696   3.571   4.246  -0.018 -0.1603  0.0524  0.3880
 6295SOL     OW19697   3.319   1.193   7.201  0.5127  0.0880 -0.3650
 6295SOL    HW119698   3.275   1.233   7.276  1.5280 -0.1723  0.3834
 6295SOL    HW219699   3.390   1.252   7.180  3.1804 -2.1735  1.9269
 6296SOL     OW19700   0.818   0.829   2.611  0.0011  0.8248  0.3868
 6296SOL    HW119701   0.862   0.745   2.600 -1.6473 -0.2554  1.8565
 6296SOL    HW219702   0.888   0.894   2.598  2.0066 -0.8231  2.4188
 6297SOL     OW19703   1.499   6.110   2.624  0.4979 -0.3233  0.3127
 6297SOL    HW119704   1.408   6.096   2.651  0.4962 -1.6655 -0.3391
 6297SOL    HW219705   1.502   6.080   2.533  1.6821 -0.6143  0.4381
 6298SOL     OW19706   2.601   0.281   6.809 -0.2595  0.1929  0.2036
 6298SOL    HW119707   2.567   0.331   6.735  1.3652  0.7935 -0.1437
 6298SOL    HW219708   2.623   0.195   6.773  2.5350  1.1575 -0.5224
 6299SOL     OW19709   7.979   1.826   7.592  0.0030  0.1599 -0.8598
 6299SOL    HW119710   8.042   1.857   7.528  0.4672  0.0948 -0.4364
 6299SOL    HW219711   7.943   1.906   7.631  3.3798  0.2677  2.3837
 6300SOL     OW19712   1.653   0.321   4.343  0.0425  0.1726 -0.0375
 6300SOL    HW119713   1.561   0.339   4.321  0.1406 -0.7395 -1.2536
 6300SOL    HW219714   1.664   0.228   4.323  0.9367  0.0073  1.1719
 6301SOL     OW19715   4.435   7.692   3.470  0.3144 -0.2736 -0.3100
 6301SOL    HW119716   4.517   7.730   3.502 -0.4671  1.6059 -0.5400
 6301SOL    HW219717   4.376   7.766   3.458 -1.7672 -1.6980  0.7818
 6302SOL     OW19718   0.900   2.356   5.135  0.4233  0.1386 -0.6808
 6302SOL    HW119719   0.852   2.378   5.214 -2.1214 -1.2634 -1.7893
 6302SOL    HW219720   0.954   2.434   5.117 -0.0534  1.0244  1.5763
 6303SOL     OW19721   0.933   1.477   1.833  0.1570  0.5514  0.1165
 6303SOL    HW119722   0.944   1.572   1.831 -0.5464  0.6593  0.8611
 6303SOL    HW219723   1.019   1.442   1.810  0.3486  1.3689 -0.4299
 6304SOL     OW19724   0.399   7.567   0.644  0.5603  0.0842  0.2908
 6304SOL    HW119725   0.440   7.481   0.631  1.2346  0.1154  2.2088
 6304SOL    HW219726   0.409   7.585   0.737 -2.6699  0.6728  0.5704
 6305SOL     OW19727   5.873   3.382   3.188 -0.1308 -0.1726 -0.3482
 6305SOL    HW119728   5.925   3.302   3.194 -0.3145 -0.2241  0.6487
 6305SOL    HW219729   5.937   3.453   3.184  0.0422 -0.3911 -1.8809
 6306SOL     OW19730   4.223   7.629   0.255  0.4411  0.5105 -0.3780
 6306SOL    HW119731   4.280   7.691   0.300  0.3454 -0.1779  0.7255
 6306SOL    HW219732   4.144   7.625   0.310  0.5782 -0.8243 -0.2473
 6307SOL     OW19733   3.014   5.930   1.805 -0.1677 -0.2290 -0.1470
 6307SOL    HW119734   2.968   5.938   1.889  1.8547 -2.1091  1.1915
 6307SOL    HW219735   2.964   5.863   1.757  0.5308 -1.5246  0.8937
 6308SOL     OW19736   3.110   0.253   4.444 -0.5355 -0.5335 -0.6132
 6308SOL    HW119737   3.142   0.183   4.388 -1.1564  0.2130 -1.9183
 6308SOL    HW219738   3.154   0.332   4.411  1.0657 -0.4635  1.5751
 6309SOL     OW19739   5.427   2.457   5.463 -0.4852 -0.3006  0.2882
 6309SOL    HW119740   5.441   2.463   5.558  0.8186  1.6685 -0.0103
 6309SOL    HW219741   5.503   2.409   5.430 -0.5571 -0.3119  0.1365
 6310SOL     OW19742   2.377   6.201   0.930  0.2257  0.1904  0.0940
 6310SOL    HW119743   2.347   6.133   0.870  0.7942 -0.7368  0.8531
 6310SOL    HW219744   2.362   6.283   0.883 -0.1386 -0.4772 -0.9624
 6311SOL     OW19745   6.298   2.950   1.861  0.1305 -0.4223 -0.2800
 6311SOL    HW119746   6.336   2.892   1.927  1.1306 -0.7477 -1.1370
 6311SOL    HW219747   6.359   3.024   1.857 -0.9213  0.5130  0.5153
 6312SOL     OW19748   5.114   6.455   2.395 -0.3534 -0.1920 -0.2887
 6312SOL    HW119749   5.114   6.543   2.434  0.2343  0.0602 -0.8538
 6312SOL    HW219750   5.122   6.471   2.301  3.0142 -0.9405 -0.1874
 6313SOL     OW19751   4.044   3.850   7.807 -0.1423  0.3581 -0.4833
 6313SOL    HW119752   4.014   3.786   7.742 -2.3143 -0.7662  1.5798
 6313SOL    HW219753   4.009   3.933   7.776 -1.0615 -0.1485 -0.8349
 6314SOL     OW19754   6.933   3.774   1.425 -0.0612  0.0331  0.1664
 6314SOL    HW119755   6.871   3.706   1.450 -0.6441  0.5808  0.2231
 6314SOL    HW219756   7.015   3.728   1.412  0.1685 -0.2979  2.7055
 6315SOL     OW19757   4.535   6.170   5.923  0.0375  0.0527 -0.5839
 6315SOL    HW119758   4.610   6.154   5.981  0.4134 -2.2426 -1.6543
 6315SOL    HW219759   4.482   6.234   5.970  2.3395  1.2726  0.4750
 6316SOL     OW19760   3.387   2.975   6.370  0.0758 -0.6114  0.0360
 6316SOL    HW119761   3.482   2.974   6.359  0.1789 -1.1757  0.9301
 6316SOL    HW219762   3.373   3.021   6.453 -0.5353  1.1748 -1.0209
 6317SOL     OW19763   6.055   2.469   0.155 -0.5050  0.0009  0.5061
 6317SOL    HW119764   6.062   2.455   0.249 -2.2540 -1.3044  0.4827
 6317SOL    HW219765   6.073   2.383   0.116  0.5523  0.6071 -0.3817
 6318SOL     OW19766   2.389   3.668   3.888  0.2811  0.0844 -0.3828
 6318SOL    HW119767   2.406   3.580   3.921  0.6418 -0.1983 -1.3055
 6318SOL    HW219768   2.475   3.709   3.883  0.2380  0.1155 -0.9701
 6319SOL     OW19769   5.233   3.138   0.945 -0.3155  0.2463  0.3901
 6319SOL    HW119770   5.301   3.156   1.009 -2.2360  0.2562  2.4912
 6319SOL    HW219771   5.187   3.221   0.933 -2.3145 -0.6054  1.8628
 6320SOL     OW19772   4.717   3.891   7.056 -0.6979  0.2076  0.5467
 6320SOL    HW119773   4.807   3.896   7.089 -0.2531  2.2864 -0.8759
 6320SOL    HW219774   4.726   3.855   6.968 -1.1049  1.5740 -0.0696
 6321SOL     OW19775   5.932   2.272   6.700 -0.1028  0.0614  0.3050
 6321SOL    HW119776   6.020   2.247   6.671  0.4802  2.0899  0.2874
 6321SOL    HW219777   5.873   2.227   6.638  1.0308  1.7138 -2.0648
 6322SOL     OW19778   0.096   7.353   0.902 -0.1094  0.1248  0.8834
 6322SOL    HW119779   0.132   7.415   0.839 -0.0516 -0.7025  0.0882
 6322SOL    HW219780   0.071   7.277   0.849  1.6924 -1.3556  2.0870
 6323SOL     OW19781   7.410   1.418   3.042 -0.0822 -0.2325  0.3438
 6323SOL    HW119782   7.454   1.476   3.105 -1.9544 -0.2254  1.6884
 6323SOL    HW219783   7.476   1.352   3.020  1.2219  0.9006  0.8222
 6324SOL     OW19784   3.593   4.972   2.399  0.0752 -0.3290 -0.8662
 6324SOL    HW119785   3.622   4.929   2.479 -0.5657  0.1418 -0.3776
 6324SOL    HW219786   3.628   5.060   2.405 -0.5681 -0.0743 -0.7601
 6325SOL     OW19787   4.054   0.896   5.100 -0.1741  0.1597  0.4813
 6325SOL    HW119788   4.023   0.813   5.064 -1.7275  0.1031  1.8947
 6325SOL    HW219789   3.995   0.914   5.173  1.4786  1.4344  1.5307
 6326SOL     OW19790   0.624   7.060   6.119  0.0067  0.1157  0.4270
 6326SOL    HW119791   0.714   7.083   6.142  0.3043 -0.4926 -0.1296
 6326SOL    HW219792   0.602   7.119   6.046 -0.5545  1.2707  1.5044
 6327SOL     OW19793   1.820   4.879   2.015  0.5962 -0.0370 -0.1241
 6327SOL    HW119794   1.731   4.870   1.981  0.2215 -0.1786  0.8961
 6327SOL    HW219795   1.870   4.813   1.967  0.1052 -0.1374 -0.5051
 6328SOL     OW19796   4.575   7.632   7.645  0.1939  0.1679  0.5521
 6328SOL    HW119797   4.631   7.600   7.715  0.5866 -0.4467 -0.0317
 6328SOL    HW219798   4.625   7.701   7.602  0.6189 -0.5416 -0.1183
 6329SOL     OW19799   6.909   1.216   0.196 -0.3283 -0.0567 -0.1175
 6329SOL    HW119800   6.826   1.171   0.210 -0.6803  0.7846  0.5713
 6329SOL    HW219801   6.886   1.295   0.147  0.4612 -1.2837 -2.5178
 6330SOL     OW19802   0.835   1.257   5.840  0.2682 -0.0895  0.1833
 6330SOL    HW119803   0.776   1.291   5.908  0.1119 -2.6064  1.3918
 6330SOL    HW219804   0.786   1.268   5.758 -0.9899 -0.1378  0.9149
 6331SOL     OW19805   3.142   4.758   4.791  0.1365  0.4638  0.5467
 6331SOL    HW119806   3.054   4.778   4.823 -0.1258  0.5369 -0.2097
 6331SOL    HW219807   3.143   4.663   4.782  0.2710  0.4271  0.9388
 6332SOL     OW19808   7.831   3.919   6.146 -0.2076 -0.1189  0.4196
 6332SOL    HW119809   7.903   3.980   6.132 -1.8368  1.1172 -3.2593
 6332SOL    HW219810   7.760   3.974   6.180 -0.8463 -0.4680 -0.3490
 6333SOL     OW19811   5.820   6.535   3.024  0.5560  0.1093 -0.0622
 6333SOL    HW119812   5.858   6.497   2.944 -0.0616  0.8114 -0.6951
 6333SOL    HW219813   5.726   6.529   3.010  0.4240 -1.3345  1.3716
 6334SOL     OW19814   5.457   0.392   2.817 -0.4810  0.4115 -0.7594
 6334SOL    HW119815   5.507   0.444   2.880  1.0527 -1.9122 -0.0152
 6334SOL    HW219816   5.367   0.394   2.851  0.3385 -0.8530  1.5542
 6335SOL     OW19817   7.985   0.046   0.480 -0.3059  0.1963  0.2613
 6335SOL    HW119818   8.028  -0.004   0.550  1.6661  2.1501  0.4933
 6335SOL    HW219819   8.013   0.136   0.494 -2.1091  1.0596 -1.4265
 6336SOL     OW19820   2.227   6.381   3.401  0.1853 -0.3155 -0.0291
 6336SOL    HW119821   2.235   6.405   3.308 -2.9368 -0.6795 -0.4276
 6336SOL    HW219822   2.194   6.460   3.444  2.6833  0.2137  1.0296
 6337SOL     OW19823   2.877   6.898   1.849 -0.2254  0.0426 -0.2278
 6337SOL    HW119824   2.924   6.974   1.815 -0.6709  1.5125  2.3238
 6337SOL    HW219825   2.915   6.882   1.935 -1.6679 -1.2359  0.1932
 6338SOL     OW19826   7.114   2.111   4.548  0.2911 -0.2474  0.2980
 6338SOL    HW119827   7.123   2.141   4.638  0.2111  0.8898 -0.0664
 6338SOL    HW219828   7.194   2.141   4.505  0.5588 -1.2197  0.1040
 6339SOL     OW19829   5.657   4.758   7.756 -0.3967 -0.0102 -0.6550
 6339SOL    HW119830   5.697   4.827   7.704 -1.3642  0.9562 -0.1413
 6339SOL    HW219831   5.638   4.688   7.693  1.2807 -0.1256 -1.0367
 6340SOL     OW19832   6.730   2.735   5.393  0.4330  0.3487  0.0952
 6340SOL    HW119833   6.807   2.755   5.445 -1.0759  0.9213  2.1872
 6340SOL    HW219834   6.682   2.817   5.388  0.3339  0.1873 -1.8507
 6341SOL     OW19835   2.986   1.421   2.951 -0.0010  0.0258  0.4307
 6341SOL    HW119836   2.901   1.380   2.938 -0.7757  0.7042  3.0240
 6341SOL    HW219837   3.049   1.349   2.947 -0.9254 -0.8083  0.8276
 6342SOL     OW19838   7.142   2.825   5.378 -0.0505  0.0732  0.0551
 6342SOL    HW119839   7.187   2.875   5.311  0.7308  0.3680  0.7813
 6342SOL    HW219840   7.125   2.740   5.338  2.6912 -0.6571  0.2919
 6343SOL     OW19841   1.168   1.371   0.388  0.0025 -0.4306  0.2113
 6343SOL    HW119842   1.180   1.318   0.467 -0.3840 -1.3820 -0.3615
 6343SOL    HW219843   1.099   1.326   0.339 -0.2505  0.5388 -0.3449
 6344SOL     OW19844   0.800   1.316   5.518  0.3212  0.5454 -0.1343
 6344SOL    HW119845   0.768   1.403   5.493  1.1572  0.5077 -1.3630
 6344SOL    HW219846   0.889   1.332   5.549 -0.9678  0.7241  3.7353
 6345SOL     OW19847   0.952   1.060   2.571  0.3468 -0.1377  0.0907
 6345SOL    HW119848   0.934   1.092   2.483 -1.2277  0.2679  0.5532
 6345SOL    HW219849   0.896   1.112   2.628  0.9617 -0.7633  1.2918
 6346SOL     OW19850   5.362   0.668   2.317 -0.1953 -0.0134  1.0031
 6346SOL    HW119851   5.381   0.604   2.386  0.8715 -2.2047 -1.2604
 6346SOL    HW219852   5.367   0.619   2.236 -0.5558  2.7028 -0.7396
 6347SOL     OW19853   7.356   1.101   0.912  0.7708 -0.4811 -0.1589
 6347SOL    HW119854   7.300   1.073   0.984  0.3298 -1.5950 -0.9273
 6347SOL    HW219855   7.443   1.111   0.952  0.0437  1.2710  1.0387
 6348SOL     OW19856   6.705   3.255   7.432 -0.4211 -0.8168  0.0576
 6348SOL    HW119857   6.774   3.304   7.476 -0.3120 -0.4417 -0.5339
 6348SOL    HW219858   6.662   3.318   7.375 -0.9266 -1.1689  0.0418
 6349SOL     OW19859   7.419   1.421   6.262  0.4905  0.4005  0.4304
 6349SOL    HW119860   7.356   1.493   6.267  0.7017  0.5891  0.4038
 6349SOL    HW219861   7.448   1.409   6.353 -1.9077 -1.7817  0.9585
 6350SOL     OW19862   6.241   1.658   7.663 -0.3498 -0.1508  0.0395
 6350SOL    HW119863   6.236   1.742   7.617 -3.6169 -0.2326  0.1500
 6350SOL    HW219864   6.239   1.593   7.593  0.2533 -0.1838  0.0498
 6351SOL     OW19865   3.384   1.667   2.025 -0.3953  0.1297  0.1528
 6351SOL    HW119866   3.392   1.574   2.046 -1.8379  0.3103  1.5600
 6351SOL    HW219867   3.416   1.712   2.103 -1.3373  0.8045  0.1589
 6352SOL     OW19868   4.353   6.448   6.217  0.7811  0.0810 -0.1772
 6352SOL    HW119869   4.444   6.447   6.246  1.6655  1.6885 -2.7099
 6352SOL    HW219870   4.352   6.507   6.141 -2.2437 -0.4086 -0.6102
 6353SOL     OW19871   1.986   0.380   6.282  0.3992 -0.1772  0.2748
 6353SOL    HW119872   2.052   0.315   6.257 -0.0826  0.2769 -2.3342
 6353SOL    HW219873   1.916   0.369   6.218 -1.2320  0.6339  1.8646
 6354SOL     OW19874   2.968   0.099   1.224 -0.8557  0.6846 -0.0217
 6354SOL    HW119875   2.970   0.183   1.270 -1.4820  1.5264 -1.4828
 6354SOL    HW219876   2.879   0.092   1.191 -1.2723 -1.3309  1.4371
 6355SOL     OW19877   1.268   3.286   4.609 -0.2861 -0.5399  0.7249
 6355SOL    HW119878   1.242   3.378   4.618  1.3930 -0.1778  2.1828
 6355SOL    HW219879   1.351   3.280   4.655  0.7929 -2.3136 -1.3769
 6356SOL     OW19880   5.484   4.780   2.867  0.2523 -0.1212  0.0297
 6356SOL    HW119881   5.426   4.745   2.799 -0.2844 -1.2191  1.0392
 6356SOL    HW219882   5.548   4.711   2.882  2.6285  1.5726 -1.9532
 6357SOL     OW19883   1.615   1.671   3.373 -0.4801 -0.0419  0.9090
 6357SOL    HW119884   1.547   1.738   3.361 -1.9663 -1.5821  0.5368
 6357SOL    HW219885   1.588   1.624   3.452 -0.8462 -1.8436 -0.2811
 6358SOL     OW19886   5.173   5.804   4.942  0.7486  0.0978  0.2391
 6358SOL    HW119887   5.224   5.861   5.000  0.3433  1.4989 -0.7809
 6358SOL    HW219888   5.152   5.858   4.867 -0.7713 -1.0089 -0.1461
 6359SOL     OW19889   1.063   6.087   5.323 -0.0180 -0.4404  0.3664
 6359SOL    HW119890   1.115   6.123   5.251 -0.8090 -0.4050 -0.1874
 6359SOL    HW219891   1.122   6.025   5.367  0.3564 -0.6999 -0.5007
 6360SOL     OW19892   3.407   0.551   5.430  0.6844  0.1322  0.2031
 6360SOL    HW119893   3.454   0.601   5.363  0.9143 -0.5033 -0.1168
 6360SOL    HW219894   3.345   0.613   5.468  0.9138  0.6353 -0.2447
 6361SOL     OW19895   4.847   4.731   5.035  0.2802 -0.4996  0.1375
 6361SOL    HW119896   4.888   4.817   5.048 -2.5917  1.2338 -1.7709
 6361SOL    HW219897   4.833   4.726   4.941 -1.6260 -2.0935  0.4828
 6362SOL     OW19898   6.745   1.918   5.979 -0.7657  0.0683  0.0476
 6362SOL    HW119899   6.659   1.926   6.020 -0.3359  0.1785  0.9216
 6362SOL    HW219900   6.806   1.900   6.051  0.0246  0.5156 -0.4900
 6363SOL     OW19901   0.046   5.898   5.834  0.0739  0.5169  0.1216
 6363SOL    HW119902   0.082   5.811   5.817 -2.5003 -0.4579 -0.5943
 6363SOL    HW219903   0.078   5.921   5.921  0.0065 -1.5935  0.7238
 6364SOL     OW19904   5.000   2.554   3.815  0.3855 -0.0325 -0.9134
 6364SOL    HW119905   4.932   2.492   3.841  0.8434 -0.4737 -0.7616
 6364SOL    HW219906   4.977   2.636   3.859  0.5493 -0.4728 -0.0077
 6365SOL     OW19907   5.314   3.390   5.954  0.6513  0.4702  0.1167
 6365SOL    HW119908   5.275   3.308   5.924  1.1845 -0.8899  3.0180
 6365SOL    HW219909   5.239   3.447   5.972  0.1985 -0.2429  0.4768
 6366SOL     OW19910   5.078   0.783   1.370 -0.2369  0.1627 -0.5089
 6366SOL    HW119911   5.155   0.729   1.355 -0.9021 -1.0644  0.4781
 6366SOL    HW219912   5.041   0.796   1.282  1.7775  1.8389 -1.1572
 6367SOL     OW19913   2.973   5.781   1.277  0.3463 -0.0262 -0.5199
 6367SOL    HW119914   2.943   5.841   1.346  0.8246 -0.5678  0.1685
 6367SOL    HW219915   2.893   5.745   1.239  0.0879 -1.6241  1.4434
 6368SOL     OW19916   4.888   1.472   7.371 -0.0849 -0.7218 -0.4277
 6368SOL    HW119917   4.806   1.522   7.366  0.2906  0.2343  2.2319
 6368SOL    HW219918   4.948   1.520   7.313 -0.6250  0.1196 -0.2983
 6369SOL     OW19919   6.980   3.939   1.979  0.0444  0.2182 -0.0650
 6369SOL    HW119920   7.066   3.955   1.940 -0.0618  0.2721 -0.2793
 6369SOL    HW219921   6.976   3.997   2.055  1.1739 -1.5613  1.4025
 6370SOL     OW19922   2.321   5.986   5.565 -0.0523  0.4602  0.2721
 6370SOL    HW119923   2.392   6.049   5.550  1.4538 -1.1848  0.3904
 6370SOL    HW219924   2.287   6.007   5.652  1.0505  0.5212  0.6848
 6371SOL     OW19925   0.842   0.794   2.143  0.1811  0.0863  0.2210
 6371SOL    HW119926   0.810   0.815   2.056  0.8756  0.6223  0.0982
 6371SOL    HW219927   0.762   0.783   2.196 -0.2010  2.6004  0.2087
 6372SOL     OW19928   7.355   0.485   4.891  0.0255 -0.1159  0.0974
 6372SOL    HW119929   7.306   0.567   4.898 -3.2950 -1.7536 -2.2018
 6372SOL    HW219930   7.372   0.475   4.798  0.4032 -1.9949  0.3477
 6373SOL     OW19931   5.963   3.765   5.565 -0.3643 -0.2689 -0.3346
 6373SOL    HW119932   6.032   3.732   5.622 -1.7469 -4.0759 -0.6942
 6373SOL    HW219933   5.894   3.795   5.624  0.0099 -0.0486 -0.0082
 6374SOL     OW19934   1.929   6.468   3.807 -0.0593 -0.2641  0.0043
 6374SOL    HW119935   1.921   6.426   3.722 -0.9376 -2.0137  0.9307
 6374SOL    HW219936   2.023   6.483   3.818  0.1825 -1.1936 -0.7174
 6375SOL     OW19937   4.272   6.025   5.305 -0.1793  0.1241 -0.2564
 6375SOL    HW119938   4.325   6.088   5.257  1.9473  0.6590  2.6188
 6375SOL    HW219939   4.182   6.055   5.293  0.4027  0.9812 -2.7319
 6376SOL     OW19940   7.123   2.807   7.959 -0.0374 -0.2527 -0.1651
 6376SOL    HW119941   7.173   2.743   7.908 -0.7269 -2.0695  1.3592
 6376SOL    HW219942   7.179   2.827   8.034  0.2338  1.0712 -0.7065
 6377SOL     OW19943   2.083   4.486   2.067  0.0255 -0.2101 -0.6357
 6377SOL    HW119944   2.010   4.461   2.124 -0.3174  0.1714 -0.9085
 6377SOL    HW219945   2.150   4.418   2.083 -1.1279 -1.6641 -1.8263
 6378SOL     OW19946   3.136   1.373   0.146  0.5250 -0.2279 -0.1802
 6378SOL    HW119947   3.103   1.384   0.057 -0.8300 -1.3661  0.1731
 6378SOL    HW219948   3.187   1.452   0.162 -0.3898  0.6381 -1.4495
 6379SOL     OW19949   6.150   2.492   1.459 -0.2566 -0.3697  0.9675
 6379SOL    HW119950   6.116   2.403   1.451  2.7860 -1.4895 -0.2090
 6379SOL    HW219951   6.189   2.511   1.373  0.7491  1.3870  1.7812
 6380SOL     OW19952   7.762   4.967   5.632  0.8437  0.0685  0.7118
 6380SOL    HW119953   7.758   4.921   5.549  0.9292 -2.0993  1.8822
 6380SOL    HW219954   7.672   4.996   5.648 -0.1795 -3.6044  2.0811
 6381SOL     OW19955   7.936   4.528   4.596  0.2442  0.0070  0.3287
 6381SOL    HW119956   7.945   4.510   4.503  0.0459  1.6898 -0.0385
 6381SOL    HW219957   7.934   4.442   4.637 -0.5009 -0.7746 -1.2930
 6382SOL     OW19958   1.265   4.150   2.656  0.0336  0.3327  0.6860
 6382SOL    HW119959   1.288   4.221   2.715  3.2550  0.3349 -0.4922
 6382SOL    HW219960   1.187   4.110   2.696 -0.1070  2.6640  2.8805
 6383SOL     OW19961   3.516   6.211   2.481 -0.1288  0.2351  0.1746
 6383SOL    HW119962   3.543   6.169   2.562 -0.6837  1.1992  0.8759
 6383SOL    HW219963   3.467   6.288   2.509 -0.1347  0.7077 -1.0753
 6384SOL     OW19964   4.269   3.334   3.000 -0.1679  0.2702  0.3796
 6384SOL    HW119965   4.244   3.282   2.923 -3.1585 -0.3156  1.6423
 6384SOL    HW219966   4.241   3.423   2.979  1.0180  0.5458 -0.0629
 6385SOL     OW19967   3.946   0.173   1.942  0.1242  0.9783  0.1344
 6385SOL    HW119968   4.040   0.174   1.961  0.7608  2.6421 -2.7226
 6385SOL    HW219969   3.937   0.114   1.867 -1.0461  1.1369  0.1385
 6386SOL     OW19970   1.797   6.814   2.421  0.1024 -0.3983 -0.7333
 6386SOL    HW119971   1.762   6.753   2.355  0.3581 -1.9276  0.5286
 6386SOL    HW219972   1.793   6.766   2.503  0.8373  1.1018  0.2015
 6387SOL     OW19973   7.843   6.128   4.803 -0.5533 -0.1697  0.4628
 6387SOL    HW119974   7.810   6.204   4.853 -1.1870 -0.2668  0.1976
 6387SOL    HW219975   7.922   6.102   4.850 -0.7464  0.1882  1.0027
 6388SOL     OW19976   4.892   6.248   1.476 -0.2270  0.9361  0.2450
 6388SOL    HW119977   4.819   6.193   1.505 -1.0246  1.2694 -1.1243
 6388SOL    HW219978   4.853   6.314   1.419  1.0449  1.5143  0.0125
 6389SOL     OW19979   4.445   7.141   1.426 -0.3172  0.1366  0.2428
 6389SOL    HW119980   4.514   7.135   1.360 -0.0256  0.2553  0.5389
 6389SOL    HW219981   4.475   7.085   1.498  0.5458  1.9603  1.3399
 6390SOL     OW19982   7.649   1.780   7.605  0.3049 -0.4995 -0.1758
 6390SOL    HW119983   7.733   1.782   7.652  0.5110  0.2858 -0.5682
 6390SOL    HW219984   7.585   1.755   7.671  0.5617  0.7652  0.5727
 6391SOL     OW19985   4.669   2.837   4.196 -0.5968 -0.1047  0.0507
 6391SOL    HW119986   4.586   2.846   4.243 -1.4761 -0.1890 -1.4488
 6391SOL    HW219987   4.699   2.749   4.218 -0.8927 -0.0632  0.6271
 6392SOL     OW19988   3.091   7.141   7.099 -0.9091  0.9151  0.6895
 6392SOL    HW119989   3.062   7.070   7.156  0.2752 -0.8300 -0.8282
 6392SOL    HW219990   3.180   7.118   7.074 -1.2598  1.7968 -1.5500
 6393SOL     OW19991   3.127   2.518   5.492  0.4011  0.5867 -0.0626
 6393SOL    HW119992   3.120   2.427   5.521 -0.3145  1.0666  1.2895
 6393SOL    HW219993   3.068   2.567   5.549 -2.0579  1.3826 -3.1677
 6394SOL     OW19994   1.838   3.342   1.156  0.2485  0.0194  0.3287
 6394SOL    HW119995   1.756   3.366   1.113 -0.0608  1.6366  1.7452
 6394SOL    HW219996   1.817   3.264   1.207 -0.7647  1.1813  1.7148
 6395SOL     OW19997   7.302   5.956   2.215  0.4292  0.6458  0.1084
 6395SOL    HW119998   7.395   5.963   2.194  1.3299 -0.7662  3.3240
 6395SOL    HW219999   7.290   6.013   2.291 -1.3956  0.9186 -0.3499
 6396SOL     OW20000   0.018   0.621   1.817 -0.8607 -0.1190  0.2006
 6396SOL    HW120001   0.035   0.699   1.765 -1.1108 -0.8275 -0.9471
 6396SOL    HW220002   0.082   0.557   1.787  0.9485  0.3724  2.8036
 6397SOL     OW20003   4.908   7.868   1.418  0.0976  0.1009 -0.0897
 6397SOL    HW120004   4.902   7.831   1.330 -0.5572  1.4600 -0.6289
 6397SOL    HW220005   4.997   7.845   1.447  0.0159 -1.0974 -0.7601
 6398SOL     OW20006   1.335   6.494   7.638 -0.1353 -0.6560 -0.0836
 6398SOL    HW120007   1.255   6.516   7.684 -0.3685 -0.8093 -0.4156
 6398SOL    HW220008   1.324   6.530   7.550 -0.3365 -1.6934 -0.4916
 6399SOL     OW20009   7.693   5.448   6.957 -0.1725  0.1486 -0.2276
 6399SOL    HW120010   7.786   5.468   6.948 -0.3134  0.6655 -0.5465
 6399SOL    HW220011   7.675   5.386   6.887 -0.0239 -0.1110 -0.0383
 6400SOL     OW20012   1.315   6.318   7.969 -0.3847 -0.4371 -0.8450
 6400SOL    HW120013   1.226   6.339   7.997 -0.0307  1.4179 -1.0339
 6400SOL    HW220014   1.347   6.399   7.928  2.4053 -0.1432  1.7241
 6401SOL     OW20015   5.870   0.354   1.092 -0.1690  0.0856  0.2937
 6401SOL    HW120016   5.888   0.324   1.182 -0.4487 -0.8552  0.0446
 6401SOL    HW220017   5.844   0.445   1.102 -0.6084 -0.1293  1.2247
 6402SOL     OW20018   6.375   2.273   3.993 -0.3059 -0.5351 -0.0631
 6402SOL    HW120019   6.448   2.270   3.932  0.1215  1.4547  0.3144
 6402SOL    HW220020   6.374   2.187   4.035  1.9277 -0.5168  0.0487
 6403SOL     OW20021   7.232   7.261   1.016  0.0456  0.2542  0.2676
 6403SOL    HW120022   7.283   7.338   1.042  2.1432 -1.3297  1.0026
 6403SOL    HW220023   7.207   7.279   0.925  0.9659  1.5714  0.2533
 6404SOL     OW20024   0.873   1.139   2.303  0.4416 -0.2710  0.1581
 6404SOL    HW120025   0.945   1.142   2.241  0.6148 -0.7666  0.3397
 6404SOL    HW220026   0.817   1.068   2.272  0.4802 -0.4582  0.5148
 6405SOL     OW20027   0.545   5.990   6.242  0.4319  0.2985 -0.3787
 6405SOL    HW120028   0.504   6.061   6.193 -2.3542 -2.1082 -1.6833
 6405SOL    HW220029   0.633   5.982   6.204  0.0748  1.7331 -1.5467
 6406SOL     OW20030   3.978   2.580   6.818  0.4139 -0.1380 -0.5248
 6406SOL    HW120031   3.956   2.520   6.746  1.8670  0.0781 -1.1686
 6406SOL    HW220032   3.926   2.659   6.800 -4.3795 -2.4235  2.3271
 6407SOL     OW20033   2.993   1.710   5.215 -0.3148  0.1971  0.0830
 6407SOL    HW120034   3.075   1.670   5.186 -0.1626  1.3712 -1.1577
 6407SOL    HW220035   3.018   1.764   5.290 -0.5725 -2.2032  1.9599
 6408SOL     OW20036   7.271   3.276   1.776 -0.0676  0.2249  0.2395
 6408SOL    HW120037   7.176   3.284   1.784 -0.1721  0.0011 -0.7173
 6408SOL    HW220038   7.303   3.366   1.783 -0.3518  0.2972  0.5822
 6409SOL     OW20039   4.677   7.505   5.876  0.1876 -0.0433  0.0070
 6409SOL    HW120040   4.644   7.513   5.786  0.5636  0.8288 -0.0541
 6409SOL    HW220041   4.731   7.583   5.889  2.8272 -1.8041 -0.1321
 6410SOL     OW20042   5.292   0.633   0.871  0.0161 -0.0506  0.3204
 6410SOL    HW120043   5.356   0.606   0.805 -0.5353 -1.1543  0.2177
 6410SOL    HW220044   5.251   0.551   0.899 -2.0856  0.7506 -0.3561
 6411SOL     OW20045   6.063   1.114   4.936  0.1229 -0.2935 -0.4743
 6411SOL    HW120046   6.043   1.205   4.960 -1.1485 -0.1476 -1.9946
 6411SOL    HW220047   6.004   1.062   4.991 -0.7984 -0.0883 -1.2579
 6412SOL     OW20048   3.760   4.145   2.376 -0.0556  0.0997  0.2017
 6412SOL    HW120049   3.802   4.202   2.312 -0.3451  1.5185  1.2700
 6412SOL    HW220050   3.833   4.110   2.428  0.1558 -0.8421 -0.6976
 6413SOL     OW20051   5.571   7.139   2.333 -0.3142 -0.2583 -0.3879
 6413SOL    HW120052   5.610   7.211   2.382  1.4695 -0.8475 -0.8936
 6413SOL    HW220053   5.477   7.146   2.350 -0.0867  1.7272  0.1609
 6414SOL     OW20054   3.906   4.030   6.752 -0.7577  0.3100  0.0946
 6414SOL    HW120055   3.869   4.118   6.760 -1.2798  0.0688  0.3908
 6414SOL    HW220056   3.958   4.018   6.832 -0.3289  0.5116 -0.1509
 6415SOL     OW20057   6.660   5.461   1.119 -0.7732 -0.1999 -0.3145
 6415SOL    HW120058   6.690   5.371   1.133 -0.2902  0.0814  0.5251
 6415SOL    HW220059   6.714   5.514   1.179  0.6435  0.9495 -2.5165
 6416SOL     OW20060   5.786   0.062   7.637  0.0003 -0.6990  0.6616
 6416SOL    HW120061   5.695   0.053   7.607  0.1922 -1.1033  0.1914
 6416SOL    HW220062   5.834  -0.003   7.586  0.5176 -0.6372  1.0700
 6417SOL     OW20063   0.552   3.270   3.609  0.2263  0.0278  0.4941
 6417SOL    HW120064   0.518   3.207   3.672  3.0850 -1.6297  0.4372
 6417SOL    HW220065   0.558   3.221   3.527 -0.0868  1.1591 -0.2159
 6418SOL     OW20066   3.527   3.473   7.932  0.5205 -0.2519 -0.6302
 6418SOL    HW120067   3.590   3.540   7.958  0.2485 -0.1415 -0.2513
 6418SOL    HW220068   3.442   3.511   7.952  0.1657  0.7645 -3.7882
 6419SOL     OW20069   7.903   7.699   0.847 -0.1866 -0.3604 -0.0690
 6419SOL    HW120070   7.822   7.751   0.845 -0.4882 -0.7110  1.8540
 6419SOL    HW220071   7.874   7.612   0.874  0.6247 -0.9376 -1.0521
 6420SOL     OW20072   6.607   2.324   6.850  0.0423 -0.1377  0.0121
 6420SOL    HW120073   6.687   2.375   6.840  0.2253 -0.6411 -1.1752
 6420SOL    HW220074   6.538   2.388   6.865  0.1467  0.5088 -2.2016
 6421SOL     OW20075   6.672   6.438   2.236 -0.0153 -0.1816 -0.0828
 6421SOL    HW120076   6.758   6.470   2.211 -0.0224 -1.5759 -2.0323
 6421SOL    HW220077   6.634   6.406   2.154 -2.9638  1.7160  0.4415
 6422SOL     OW20078   6.888   6.959   3.178  0.1142 -0.2403  0.3732
 6422SOL    HW120079   6.976   6.928   3.199  0.1627  0.8585  1.8829
 6422SOL    HW220080   6.896   6.999   3.091  1.3550  0.8177  0.9644
 6423SOL     OW20081   6.536   3.911   1.872  0.0586 -0.0645  0.3402
 6423SOL    HW120082   6.580   3.986   1.913 -1.0461 -0.1686  1.7476
 6423SOL    HW220083   6.603   3.842   1.872  0.6180  0.4686  0.3975
 6424SOL     OW20084   1.554   4.783   7.759 -0.4298 -0.1481  0.1334
 6424SOL    HW120085   1.604   4.832   7.694  0.2073 -0.4725  0.3767
 6424SOL    HW220086   1.467   4.774   7.720 -0.0493 -0.3506 -0.6807
 6425SOL     OW20087   5.468   3.294   3.973  0.2942  0.1565 -0.5579
 6425SOL    HW120088   5.468   3.298   3.878 -2.2036  0.8839 -0.5507
 6425SOL    HW220089   5.379   3.268   3.997  1.4098 -1.9870  1.5307
 6426SOL     OW20090   1.853   4.379   7.822 -0.3016 -0.1467  0.8167
 6426SOL    HW120091   1.797   4.456   7.809 -2.6012 -1.2041  3.7323
 6426SOL    HW220092   1.921   4.410   7.882  1.1175  0.6282 -1.1694
 6427SOL     OW20093   3.194   6.569   4.372  0.6415  0.0954 -0.3393
 6427SOL    HW120094   3.241   6.649   4.394 -0.6987  0.9173 -0.4685
 6427SOL    HW220095   3.220   6.507   4.441  1.8923  0.5430 -0.3957
 6428SOL     OW20096   5.336   5.521   1.814 -0.4644 -0.1956 -0.1695
 6428SOL    HW120097   5.305   5.431   1.820 -1.4622  0.0540 -1.3900
 6428SOL    HW220098   5.268   5.567   1.766  1.6375  0.4097 -2.7192
 6429SOL     OW20099   7.987   3.727   2.874 -0.2263  0.1255  0.1666
 6429SOL    HW120100   7.967   3.793   2.940  1.5748  1.2919 -0.4243
 6429SOL    HW220101   8.082   3.715   2.879 -0.1383 -0.2122 -1.7941
 6430SOL     OW20102   0.180   0.626   4.442 -0.2486  0.1848  0.0185
 6430SOL    HW120103   0.170   0.557   4.377 -0.8913  1.1030 -0.8590
 6430SOL    HW220104   0.186   0.579   4.525 -0.8566 -0.9215 -0.5500
 6431SOL     OW20105   1.663   4.481   3.477  0.5189  0.2437 -0.6359
 6431SOL    HW120106   1.617   4.408   3.436  0.1127  1.0302 -1.5898
 6431SOL    HW220107   1.745   4.488   3.427  1.9742 -1.4995  1.3910
 6432SOL     OW20108   4.845   4.188   2.001  0.1515 -0.6062  0.0262
 6432SOL    HW120109   4.791   4.115   2.030 -0.4210 -0.6984 -1.2371
 6432SOL    HW220110   4.834   4.190   1.906  1.1203  0.3671 -0.0801
 6433SOL     OW20111   5.598   4.859   7.147 -0.3539  0.0418  0.0310
 6433SOL    HW120112   5.524   4.865   7.207  0.1433 -2.0535  0.9109
 6433SOL    HW220113   5.568   4.799   7.078  0.3754 -0.5340  0.2068
 6434SOL     OW20114   3.179   6.727   5.537  0.0688 -0.3233 -0.0140
 6434SOL    HW120115   3.250   6.694   5.593  0.2547 -0.2449 -0.2034
 6434SOL    HW220116   3.114   6.656   5.537 -0.9727  0.5668  2.1222
 6435SOL     OW20117   7.106   2.978   4.336  0.2110  0.1538 -0.0489
 6435SOL    HW120118   7.174   3.043   4.322  0.3501  0.0099 -0.0514
 6435SOL    HW220119   7.118   2.915   4.265  0.6871 -0.3809  0.4871
 6436SOL     OW20120   1.220   3.424   6.230 -0.2486  0.5000  0.3860
 6436SOL    HW120121   1.154   3.377   6.282 -0.0545 -1.1881 -0.8696
 6436SOL    HW220122   1.301   3.416   6.280 -0.3750  0.1044  0.5288
 6437SOL     OW20123   4.132   0.112   2.894  0.1829  0.0049 -0.1309
 6437SOL    HW120124   4.175   0.197   2.905  0.7881 -0.3981  0.6350
 6437SOL    HW220125   4.149   0.088   2.803  0.4104  0.4779 -0.2142
 6438SOL     OW20126   6.655   7.285   2.853  0.3010 -0.0235  0.0728
 6438SOL    HW120127   6.696   7.200   2.835 -0.1592 -0.3029  0.3448
 6438SOL    HW220128   6.689   7.342   2.784 -0.9781 -0.9436 -1.3394
 6439SOL     OW20129   7.828   2.676   4.639 -0.0995 -0.0077  0.0075
 6439SOL    HW120130   7.898   2.672   4.705  0.3438 -0.3491 -0.4812
 6439SOL    HW220131   7.852   2.610   4.574 -0.5307  0.3301 -0.4995
 6440SOL     OW20132   2.066   2.668   5.267  0.2673 -0.1531 -0.3496
 6440SOL    HW120133   2.088   2.730   5.198  0.4678 -0.5839 -0.6728
 6440SOL    HW220134   2.061   2.721   5.346  3.0503 -0.1045 -0.1387
 6441SOL     OW20135   3.518   2.840   2.595 -0.3069  0.1393  0.0941
 6441SOL    HW120136   3.465   2.884   2.663 -2.5938 -1.4901 -0.5606
 6441SOL    HW220137   3.498   2.888   2.515  1.0424  0.9727  0.2490
 6442SOL     OW20138   5.133   3.208   1.612 -0.0911 -0.2384 -0.0214
 6442SOL    HW120139   5.140   3.191   1.707 -0.3632 -0.1924  0.0075
 6442SOL    HW220140   5.200   3.152   1.573  0.2285 -0.0291  0.2236
 6443SOL     OW20141   6.157   2.623   2.856 -0.1213  0.5262  0.2917
 6443SOL    HW120142   6.170   2.682   2.930 -0.9399  0.2305  0.6718
 6443SOL    HW220143   6.063   2.606   2.855  0.3565 -2.2671  1.2938
 6444SOL     OW20144   2.273   7.949   4.521 -0.1175  0.2648  0.5366
 6444SOL    HW120145   2.296   8.040   4.540 -0.0017  0.2210  0.6014
 6444SOL    HW220146   2.328   7.897   4.579  2.5661 -0.0182 -2.1138
 6445SOL     OW20147   0.395   3.805   6.178  0.5530  0.4397 -0.0006
 6445SOL    HW120148   0.427   3.721   6.211 -1.0071  0.8846  2.7650
 6445SOL    HW220149   0.371   3.787   6.087  1.7713 -1.6808  0.0702
 6446SOL     OW20150   5.971   6.321   2.778  0.0130 -0.1730 -0.0959
 6446SOL    HW120151   6.045   6.348   2.832  0.0571 -2.4376  1.0279
 6446SOL    HW220152   5.991   6.231   2.752 -1.0864  0.1061 -2.0072
 6447SOL     OW20153   2.933   1.578   0.001  0.3764 -0.2735 -0.1808
 6447SOL    HW120154   2.907   1.486   0.008 -1.1448  0.3161  2.6994
 6447SOL    HW220155   2.861   1.620  -0.045  0.5026 -0.2790 -0.3862
 6448SOL     OW20156   3.039   0.616   3.204  0.2000 -0.0693  0.2451
 6448SOL    HW120157   3.055   0.668   3.126  0.7114  0.4812  0.7143
 6448SOL    HW220158   3.102   0.544   3.199  1.9484  1.3236  1.3823
 6449SOL     OW20159   6.796   0.949   6.099  0.1548 -0.3853  0.3335
 6449SOL    HW120160   6.865   0.904   6.148  0.4384 -0.4033 -0.0828
 6449SOL    HW220161   6.817   1.042   6.106  0.3341 -0.4032  0.0366
 6450SOL     OW20162   5.742   1.031   1.540 -0.1242 -0.3297  0.2993
 6450SOL    HW120163   5.667   0.998   1.491 -0.8408  0.8359  0.5924
 6450SOL    HW220164   5.792   0.953   1.563 -1.5834 -1.1772  0.6459
 6451SOL     OW20165   6.295   0.969   6.277 -0.3115  0.4101 -0.1597
 6451SOL    HW120166   6.239   0.930   6.210 -0.4679 -0.7310  0.6212
 6451SOL    HW220167   6.384   0.946   6.249 -0.3537  0.2773 -0.1842
 6452SOL     OW20168   0.771   5.191   4.824  0.6398  0.1209 -0.3235
 6452SOL    HW120169   0.780   5.229   4.737  0.4071 -0.2771 -0.5200
 6452SOL    HW220170   0.679   5.203   4.846 -0.1127 -2.8977 -1.5755
 6453SOL     OW20171   4.903   4.743   1.036 -0.0622  0.1566 -0.1609
 6453SOL    HW120172   4.918   4.757   1.130  0.9400 -0.6494 -0.1916
 6453SOL    HW220173   4.980   4.694   1.007 -0.3447  0.4594 -1.4182
 6454SOL     OW20174   5.549   2.038   6.881 -0.3340 -0.1940 -0.1398
 6454SOL    HW120175   5.515   2.013   6.795 -1.3865 -0.1877  0.2633
 6454SOL    HW220176   5.542   2.133   6.882 -2.4697 -0.3275  0.8004
 6455SOL     OW20177   1.908   5.798   1.347  0.2083 -0.1363 -0.1145
 6455SOL    HW120178   1.923   5.882   1.389 -1.7839 -0.1558  0.6669
 6455SOL    HW220179   1.972   5.739   1.387 -0.4439  0.2817  1.5694
 6456SOL     OW20180   0.690   7.722   5.820  0.2953 -0.0839 -0.2648
 6456SOL    HW120181   0.714   7.794   5.878  0.9445  0.4343 -1.1532
 6456SOL    HW220182   0.773   7.677   5.802 -0.3081 -1.9476  1.4320
 6457SOL     OW20183   3.536   2.199   6.594 -0.3510 -0.4570  0.5483
 6457SOL    HW120184   3.517   2.113   6.556  0.3731 -0.2388 -0.3110
 6457SOL    HW220185   3.605   2.182   6.659  1.7308 -0.1366 -1.5184
 6458SOL     OW20186   0.825   3.822   1.890  0.5768 -0.3048 -0.0546
 6458SOL    HW120187   0.914   3.812   1.922  0.8006  1.5047 -0.0632
 6458SOL    HW220188   0.835   3.835   1.796  0.3151  0.1104 -0.0241
 6459SOL     OW20189   7.052   1.076   4.300 -0.0881 -0.3276 -0.2168
 6459SOL    HW120190   6.985   1.143   4.283  0.1428 -0.4626 -1.7182
 6459SOL    HW220191   7.007   1.010   4.354 -0.1260  1.3409  1.8595
 6460SOL     OW20192   6.246   6.882   3.107  0.4359 -0.8051  0.1045
 6460SOL    HW120193   6.322   6.910   3.158  0.9623 -2.2391  0.1322
 6460SOL    HW220194   6.191   6.834   3.170 -0.0933 -0.5035 -0.1190
 6461SOL     OW20195   4.644   4.234   6.439 -0.6463 -0.1153 -0.4537
 6461SOL    HW120196   4.641   4.292   6.363  1.1561 -1.8574 -1.9101
 6461SOL    HW220197   4.735   4.238   6.469 -1.4156  0.8337  1.8677
 6462SOL     OW20198   2.250   5.002   7.571 -0.1716  0.1157  0.0187
 6462SOL    HW120199   2.243   4.907   7.561  0.2549 -0.1481  2.1214
 6462SOL    HW220200   2.329   5.025   7.522  0.0170 -0.6802 -0.0589
 6463SOL     OW20201   5.602   6.302   4.589  0.3054 -0.2645  0.0416
 6463SOL    HW120202   5.698   6.308   4.587  0.4769 -1.7349  1.8666
 6463SOL    HW220203   5.577   6.358   4.663 -0.2064 -0.1691 -0.2067
 6464SOL     OW20204   2.170   1.970   4.445  0.0922  0.4492 -0.3947
 6464SOL    HW120205   2.256   1.927   4.445 -0.7797 -1.3323 -0.0191
 6464SOL    HW220206   2.142   1.966   4.537 -0.6896  0.4288 -0.6352
 6465SOL     OW20207   5.027   0.482   5.463  0.0011 -0.0858  0.2438
 6465SOL    HW120208   4.955   0.467   5.401  1.8955 -2.3718 -1.4994
 6465SOL    HW220209   5.001   0.434   5.541 -0.5112 -0.6165 -0.2464
 6466SOL     OW20210   5.573   3.301   4.973  0.1257 -0.2817 -0.1080
 6466SOL    HW120211   5.655   3.325   5.016 -0.5214  1.7605  0.0268
 6466SOL    HW220212   5.536   3.232   5.029  0.1869  1.0572  1.6114
 6467SOL     OW20213   6.863   5.169   1.444  0.4006  0.1944 -0.0318
 6467SOL    HW120214   6.884   5.230   1.373  0.6376 -0.5824 -0.6399
 6467SOL    HW220215   6.772   5.143   1.427  0.9763 -1.2787 -1.0426
 6468SOL     OW20216   2.935   4.643   1.366 -0.4508 -0.2900  0.1595
 6468SOL    HW120217   2.965   4.612   1.280  0.3213  2.5123 -0.6259
 6468SOL    HW220218   2.949   4.568   1.424  0.7198 -1.6367 -1.7740
 6469SOL     OW20219   0.479   0.934   3.298 -0.1920 -0.1085 -0.1861
 6469SOL    HW120220   0.512   1.023   3.309 -2.4669  0.9935 -1.8336
 6469SOL    HW220221   0.542   0.892   3.241 -0.4505  1.2823 -1.5384
 6470SOL     OW20222   7.700   2.596   6.891 -0.1528  0.1080 -0.1543
 6470SOL    HW120223   7.771   2.600   6.955  1.2527 -0.2589 -1.6868
 6470SOL    HW220224   7.639   2.531   6.928  0.6060 -0.0561  0.8423
 6471SOL     OW20225   2.355   3.777   7.950  0.2717 -0.1917 -0.1166
 6471SOL    HW120226   2.374   3.837   7.878  0.3427 -0.8606 -0.6586
 6471SOL    HW220227   2.261   3.760   7.944  0.3102 -0.3919 -0.1637
 6472SOL     OW20228   0.455   3.193   6.803  0.4516  0.2081 -0.0560
 6472SOL    HW120229   0.489   3.106   6.781 -1.6656 -1.2870  2.3909
 6472SOL    HW220230   0.374   3.201   6.753  1.1483  1.2470 -1.0661
 6473SOL     OW20231   4.575   4.438   5.315 -0.1100  0.0760  0.5829
 6473SOL    HW120232   4.583   4.393   5.231  1.1012  0.8925  0.2520
 6473SOL    HW220233   4.498   4.494   5.305  0.3570  0.5845 -0.1664
 6474SOL     OW20234   3.089   4.012   1.160  0.0461 -0.1364 -0.6896
 6474SOL    HW120235   3.009   4.042   1.204 -0.0492 -0.7025 -0.4733
 6474SOL    HW220236   3.121   3.939   1.214  1.6191  1.1408  0.1425
 6475SOL     OW20237   5.166   3.750   4.165 -0.4419 -0.0626  0.0680
 6475SOL    HW120238   5.255   3.774   4.188 -0.7126  0.9993  0.0336
 6475SOL    HW220239   5.162   3.759   4.070 -0.3784 -0.8177 -0.0052
 6476SOL     OW20240   1.823   4.622   0.675  0.0756  0.5722  0.1777
 6476SOL    HW120241   1.753   4.688   0.678 -0.2815  0.1708  0.9918
 6476SOL    HW220242   1.850   4.612   0.767 -0.2521 -0.8014  0.1275
 6477SOL     OW20243   5.795   7.069   0.157  0.0556 -0.0094 -0.0353
 6477SOL    HW120244   5.872   7.105   0.201 -0.2831  0.2499  0.3395
 6477SOL    HW220245   5.722   7.124   0.185 -0.1537  0.2101 -0.9811
 6478SOL     OW20246   4.598   6.643   4.922  0.2255 -0.5796 -0.5636
 6478SOL    HW120247   4.638   6.567   4.878 -0.5614 -1.4094  0.1499
 6478SOL    HW220248   4.583   6.613   5.012  0.6598  0.6972 -0.0569
 6479SOL     OW20249   4.620   5.263   2.481  0.4952 -0.1047  0.2887
 6479SOL    HW120250   4.623   5.334   2.416 -0.4720 -0.7172 -0.4369
 6479SOL    HW220251   4.532   5.268   2.518  0.8981 -0.0342  1.2492
 6480SOL     OW20252   3.803   6.804   5.093 -0.3884  0.5696  0.1599
 6480SOL    HW120253   3.843   6.782   5.009 -2.2601  0.2749 -0.6892
 6480SOL    HW220254   3.834   6.893   5.111  1.6080 -0.1005  0.1581
 6481SOL     OW20255   2.164   6.057   6.331 -0.3416  0.3291 -0.4279
 6481SOL    HW120256   2.138   6.076   6.421  0.7864  0.6368 -0.1507
 6481SOL    HW220257   2.174   5.962   6.329  1.2919  0.4651  0.2597
 6482SOL     OW20258   2.467   5.800   7.193  0.5638  0.1388  0.5334
 6482SOL    HW120259   2.396   5.863   7.201 -0.5290 -1.2565  1.9602
 6482SOL    HW220260   2.546   5.851   7.212 -0.2487  1.1886  1.1548
 6483SOL     OW20261   4.035   2.199   4.399  0.2076 -0.5688  0.0743
 6483SOL    HW120262   3.990   2.280   4.374  3.2436  1.1236 -0.1863
 6483SOL    HW220263   4.044   2.151   4.316 -0.4306 -0.5683  0.0014
 6484SOL     OW20264   1.940   3.341   1.687 -0.2863 -0.1435  0.3412
 6484SOL    HW120265   2.015   3.302   1.733 -0.3413  0.7191  1.1806
 6484SOL    HW220266   1.865   3.323   1.743 -0.1168  2.2785  1.4004
 6485SOL     OW20267   0.040   2.177   2.895 -0.2425 -0.3431  0.2942
 6485SOL    HW120268  -0.046   2.194   2.932 -0.7069  0.7320 -1.2544
 6485SOL    HW220269   0.023   2.128   2.815  0.5493  0.3464 -0.3029
 6486SOL     OW20270   2.430   3.612   5.773 -0.1871 -0.4990  0.5755
 6486SOL    HW120271   2.508   3.663   5.794 -0.6576 -0.1810  1.5870
 6486SOL    HW220272   2.361   3.649   5.828 -1.5158  0.4552 -1.7005
 6487SOL     OW20273   4.012   2.617   1.208  0.5536  0.1086 -0.0651
 6487SOL    HW120274   4.054   2.665   1.280  0.4875 -0.9724  0.7200
 6487SOL    HW220275   4.068   2.540   1.196 -1.2426 -1.4435  1.1007
 6488SOL     OW20276   5.768   2.870   2.423 -0.2595 -0.1023  0.7468
 6488SOL    HW120277   5.828   2.942   2.438 -0.5814  1.0956 -3.2327
 6488SOL    HW220278   5.812   2.813   2.360 -2.1418 -0.6571 -0.1187
 6489SOL     OW20279   3.972   5.149   6.302  0.3589  0.0304 -0.1318
 6489SOL    HW120280   3.936   5.153   6.391  0.1001  3.7353 -0.3022
 6489SOL    HW220281   3.907   5.196   6.249  2.4845  1.4505 -1.5216
 6490SOL     OW20282   6.685   0.336   4.627 -0.0551  0.2171  0.8667
 6490SOL    HW120283   6.741   0.269   4.667  1.0257  0.6123  0.0710
 6490SOL    HW220284   6.692   0.412   4.684  0.7149  0.4615  0.4591
 6491SOL     OW20285   1.065   7.882   1.563  0.4491 -0.4454  0.1196
 6491SOL    HW120286   1.034   7.966   1.598  0.2763 -0.1409 -0.7735
 6491SOL    HW220287   1.050   7.820   1.635  0.2235  0.2081  0.6445
 6492SOL     OW20288   6.466   1.297   1.064 -0.6640  0.4927 -0.3744
 6492SOL    HW120289   6.418   1.224   1.026 -0.8917  0.1376  0.6027
 6492SOL    HW220290   6.401   1.348   1.112 -0.2756  0.6394  0.0072
 6493SOL     OW20291   4.811   0.723   4.764 -0.5845  0.1314  0.4826
 6493SOL    HW120292   4.730   0.764   4.794  0.7588  1.6306  2.1463
 6493SOL    HW220293   4.878   0.757   4.822  1.2993 -0.8781 -1.0521
 6494SOL     OW20294   0.868   0.933   4.683  0.0838  0.3696 -0.0243
 6494SOL    HW120295   0.786   0.966   4.646 -0.6718 -1.4636 -0.0473
 6494SOL    HW220296   0.857   0.944   4.777 -0.5908 -0.7552  0.0338
 6495SOL     OW20297   7.421   1.875   4.808 -0.2669  0.3522 -0.2627
 6495SOL    HW120298   7.447   1.953   4.857  1.2433  0.2819 -0.9256
 6495SOL    HW220299   7.503   1.831   4.788 -0.9123 -0.0134 -2.1997
 6496SOL     OW20300   2.585   6.307   2.302 -0.0185  0.0524  0.4236
 6496SOL    HW120301   2.506   6.285   2.252  0.3133 -1.5620  0.5816
 6496SOL    HW220302   2.657   6.273   2.248  0.6557  2.4288 -0.2213
 6497SOL     OW20303   0.713   0.043   6.173  0.5786 -0.0926  0.1644
 6497SOL    HW120304   0.749  -0.008   6.246  1.1917 -2.8081 -1.9510
 6497SOL    HW220305   0.620   0.021   6.173  0.6345 -0.3385 -0.0324
 6498SOL     OW20306   1.780   3.353   7.561  0.2282  0.2376  0.3897
 6498SOL    HW120307   1.812   3.307   7.484  0.5412 -1.3763  1.4583
 6498SOL    HW220308   1.703   3.401   7.531  0.3501 -0.3784 -0.9232
 6499SOL     OW20309   2.214   7.683   6.524 -0.5419 -0.1783  0.0253
 6499SOL    HW120310   2.297   7.666   6.480 -0.2579  0.3984  0.3430
 6499SOL    HW220311   2.185   7.767   6.489 -1.4643 -0.8256 -0.8045
 6500SOL     OW20312   5.980   3.567   6.889  0.1284  0.0793 -0.3123
 6500SOL    HW120313   5.929   3.500   6.935  0.6802 -0.4026 -0.3932
 6500SOL    HW220314   6.020   3.519   6.816  0.4244  0.5286 -0.4421
 6501SOL     OW20315   3.651   4.558   5.683  0.2800  0.7372  0.6930
 6501SOL    HW120316   3.690   4.623   5.743  2.0552 -0.0237  0.4128
 6501SOL    HW220317   3.709   4.559   5.607 -0.7475  0.1491 -0.0988
 6502SOL     OW20318   2.064   1.931   6.745 -0.6572  0.8372 -0.0845
 6502SOL    HW120319   2.094   1.968   6.662 -0.1639  0.8473  0.0946
 6502SOL    HW220320   2.051   1.838   6.726  0.3145  0.6696  0.0552
 6503SOL     OW20321   6.837   1.911   0.576  0.2030  0.0038 -0.2028
 6503SOL    HW120322   6.775   1.909   0.649 -0.5616 -0.7096 -0.8640
 6503SOL    HW220323   6.816   1.990   0.528  1.6614  1.2528  1.1540
 6504SOL     OW20324   4.353   7.408   3.373 -0.2669 -0.2712 -0.2496
 6504SOL    HW120325   4.318   7.348   3.439 -2.1359  0.8148 -0.2025
 6504SOL    HW220326   4.384   7.483   3.424  1.1431 -0.7575 -0.3820
 6505SOL     OW20327   0.373   7.835   1.498  0.1930 -0.1488 -0.1611
 6505SOL    HW120328   0.356   7.748   1.536 -0.0084  0.5045  1.2683
 6505SOL    HW220329   0.348   7.826   1.406 -2.5193 -0.8141  0.6053
 6506SOL     OW20330   0.456   2.903   7.674  0.3163  0.3397 -0.1821
 6506SOL    HW120331   0.468   2.994   7.649  3.3374  0.1039  0.1911
 6506SOL    HW220332   0.455   2.905   7.770  1.8676 -0.1690 -0.1509
 6507SOL     OW20333   2.953   6.488   6.469  0.1017 -0.4681 -0.1251
 6507SOL    HW120334   2.981   6.570   6.509  3.4359 -1.0347 -1.1507
 6507SOL    HW220335   2.945   6.427   6.542 -0.9806  0.3862  0.4769
 6508SOL     OW20336   7.489   0.714   2.065 -0.6220  0.0118  0.3962
 6508SOL    HW120337   7.438   0.634   2.076  1.1801 -1.5833 -2.2484
 6508SOL    HW220338   7.580   0.687   2.081  0.1277  1.2407 -1.5827
 6509SOL     OW20339   2.775   6.949   0.420  0.1142  0.4808 -0.0935
 6509SOL    HW120340   2.717   7.021   0.442 -0.9313 -0.3781 -0.0083
 6509SOL    HW220341   2.739   6.873   0.465  2.4754  0.3356  1.6300
 6510SOL     OW20342   3.757   4.268   7.460 -0.2049  0.1201 -0.4269
 6510SOL    HW120343   3.803   4.186   7.443 -1.4137 -0.3050 -1.6952
 6510SOL    HW220344   3.753   4.273   7.556  3.1092  0.5602 -0.2501
 6511SOL     OW20345   5.986   7.949   3.640  0.4485  0.0726 -0.3536
 6511SOL    HW120346   5.955   7.991   3.560 -0.2553 -0.1672 -0.2187
 6511SOL    HW220347   5.932   7.988   3.709 -0.5372 -1.3619 -0.2798
 6512SOL     OW20348   4.332   7.109   5.157  0.1651 -0.0505  0.2872
 6512SOL    HW120349   4.359   7.199   5.176 -0.2226  0.1595 -0.1089
 6512SOL    HW220350   4.412   7.057   5.164 -0.0232 -0.0545  2.7758
 6513SOL     OW20351   2.345   6.500   4.231  0.9108  0.1793 -0.2140
 6513SOL    HW120352   2.408   6.428   4.235  0.9220 -0.0654 -3.2045
 6513SOL    HW220353   2.388   6.565   4.175 -0.5025  1.0218 -0.3221
 6514SOL     OW20354   7.162   3.584   0.619  0.0991 -0.0985 -0.0584
 6514SOL    HW120355   7.252   3.552   0.614  0.5686  1.2841 -0.9175
 6514SOL    HW220356   7.114   3.533   0.555 -0.2508 -2.3975  1.9596
 6515SOL     OW20357   2.486   6.886   3.180 -0.4788  0.1548  0.5041
 6515SOL    HW120358   2.494   6.795   3.208 -1.0511 -0.4397 -1.2096
 6515SOL    HW220359   2.556   6.898   3.116  0.9345  1.5559  2.2510
 6516SOL     OW20360   3.458   6.482   3.882 -0.0141  0.1405  0.6249
 6516SOL    HW120361   3.415   6.567   3.886 -0.9888 -0.2791 -0.5437
 6516SOL    HW220362   3.414   6.429   3.949 -2.2436 -0.6702 -1.4028
 6517SOL     OW20363   1.139   3.035   6.940  0.3932  0.2550 -0.2177
 6517SOL    HW120364   1.141   3.001   7.030 -2.0703  0.1839 -0.1451
 6517SOL    HW220365   1.110   2.961   6.887 -0.7040  1.0001 -0.6826
 6518SOL     OW20366   0.853   7.412   4.607 -0.2862  0.1839 -0.1972
 6518SOL    HW120367   0.789   7.408   4.536  0.2941 -1.5429 -0.6502
 6518SOL    HW220368   0.938   7.404   4.563  0.1236  0.1630  0.5970
 6519SOL     OW20369   2.983   4.211   4.929  1.2118 -0.3022  0.0673
 6519SOL    HW120370   2.986   4.172   4.842  2.1236  0.1674 -0.1170
 6519SOL    HW220371   2.990   4.137   4.989 -0.0845 -0.6940 -0.2416
 6520SOL     OW20372   6.760   3.364   5.420  0.0295 -0.1994  0.4083
 6520SOL    HW120373   6.722   3.321   5.497 -1.5848 -0.0230 -0.2800
 6520SOL    HW220374   6.778   3.454   5.449 -2.2735  0.3944  0.0635
 6521SOL     OW20375   1.244   6.606   4.579  0.6290  0.3501 -0.0682
 6521SOL    HW120376   1.166   6.597   4.634  1.8366  0.6405  1.7421
 6521SOL    HW220377   1.218   6.570   4.494 -1.5515  0.6919  0.4242
 6522SOL     OW20378   6.354   0.079   3.015 -0.0053 -0.1086  0.5777
 6522SOL    HW120379   6.301   0.075   2.936 -1.2599  2.4697  1.2391
 6522SOL    HW220380   6.306   0.025   3.078 -0.9967  0.8451  0.6643
 6523SOL     OW20381   7.098   5.878   6.965  0.2106  0.9760  0.2868
 6523SOL    HW120382   7.062   5.931   7.036  1.0064  1.0311  0.6607
 6523SOL    HW220383   7.101   5.789   7.001 -0.2901  0.8305 -0.0241
 6524SOL     OW20384   1.736   0.556   6.602 -0.5106 -0.6499 -0.0484
 6524SOL    HW120385   1.813   0.600   6.639 -0.9110  1.5363 -1.7387
 6524SOL    HW220386   1.663   0.613   6.624 -1.4515 -1.9316  0.1925
 6525SOL     OW20387   6.637   2.616   0.182 -0.3944 -0.0296 -0.2616
 6525SOL    HW120388   6.713   2.607   0.125 -0.1305  0.1381  0.0594
 6525SOL    HW220389   6.563   2.630   0.122 -0.0744  0.4517 -0.5538
 6526SOL     OW20390   5.269   1.150   1.421 -0.3477 -0.0070  0.2051
 6526SOL    HW120391   5.274   1.233   1.469  0.3476  1.8990 -3.0429
 6526SOL    HW220392   5.198   1.164   1.358  3.1691  0.1306 -3.9303
 6527SOL     OW20393   0.475   6.176   7.704 -0.2966  0.4125 -0.1646
 6527SOL    HW120394   0.514   6.186   7.617 -0.8371 -0.1656 -0.4861
 6527SOL    HW220395   0.398   6.232   7.702 -0.4168  0.2475 -0.1251
 6528SOL     OW20396   4.389   1.537   7.236  0.2038 -0.0663 -0.0621
 6528SOL    HW120397   4.377   1.620   7.190 -2.2599 -0.6914 -0.6121
 6528SOL    HW220398   4.362   1.470   7.174  1.3351 -1.2478  0.6871
 6529SOL     OW20399   0.456   4.621   0.440 -0.0018  0.6594  0.0529
 6529SOL    HW120400   0.408   4.655   0.516 -0.0922  1.2245 -0.2515
 6529SOL    HW220401   0.403   4.647   0.365 -1.4540 -2.4613 -0.0733
 6530SOL     OW20402   2.938   3.953   0.695  0.1358  0.0830  0.5312
 6530SOL    HW120403   2.892   3.919   0.618 -0.5441  0.1482  0.9088
 6530SOL    HW220404   3.030   3.933   0.677 -0.1476 -1.1044  0.2992
 6531SOL     OW20405   2.017   4.061   6.431  0.6040  0.3985  0.9015
 6531SOL    HW120406   1.990   3.977   6.393 -1.0177  0.2366  2.3453
 6531SOL    HW220407   1.970   4.127   6.379  1.6356  0.4006 -0.0338
 6532SOL     OW20408   2.295   3.624   2.770 -0.2887 -0.1612 -0.2313
 6532SOL    HW120409   2.276   3.543   2.818 -0.5301 -1.4736 -2.4907
 6532SOL    HW220410   2.372   3.659   2.814  0.7988 -2.4643 -0.2054
 6533SOL     OW20411   3.365   4.646   3.404  0.4685 -0.4194 -0.5546
 6533SOL    HW120412   3.309   4.666   3.479  1.7269  0.3835  0.1936
 6533SOL    HW220413   3.304   4.614   3.337 -1.2948  3.1177 -0.7772
 6534SOL     OW20414   4.129   2.268   2.607  0.2662 -0.1200  0.1200
 6534SOL    HW120415   4.139   2.237   2.697 -0.4674  0.2325  0.3305
 6534SOL    HW220416   4.120   2.363   2.615 -1.7941 -0.2733 -0.1290
 6535SOL     OW20417   0.950   2.437   1.785  0.1672  0.0853  0.2370
 6535SOL    HW120418   0.997   2.397   1.858  1.5270  0.9945 -0.1185
 6535SOL    HW220419   0.930   2.526   1.814 -0.8423 -0.1043  0.1613
 6536SOL     OW20420   0.808   3.572   5.158  0.3391  0.4304  0.2524
 6536SOL    HW120421   0.823   3.661   5.126  1.1796  0.2413  0.1127
 6536SOL    HW220422   0.760   3.529   5.087 -1.4694  1.2280  0.9686
 6537SOL     OW20423   7.175   0.855   0.651  0.4850 -0.0215  0.3977
 6537SOL    HW120424   7.089   0.880   0.684  0.3431  1.4372 -0.9890
 6537SOL    HW220425   7.172   0.759   0.645 -0.9538  0.0027  0.5667
 6538SOL     OW20426   7.910   0.853   4.963  0.3207  0.6292 -0.0450
 6538SOL    HW120427   7.965   0.817   5.033  0.7284 -0.1185 -0.7420
 6538SOL    HW220428   7.861   0.923   5.005  1.8544  1.3448  0.5769
 6539SOL     OW20429   1.935   5.944   5.943 -0.4235  0.3352 -0.2517
 6539SOL    HW120430   1.939   5.892   6.024  1.8506 -0.1319 -0.6338
 6539SOL    HW220431   2.014   5.998   5.945  0.5503 -0.9202 -2.9711
 6540SOL     OW20432   5.824   7.213   2.772  0.0112  0.1912 -0.6007
 6540SOL    HW120433   5.786   7.147   2.714 -1.7803  0.7035 -0.0219
 6540SOL    HW220434   5.917   7.214   2.748 -0.2178 -1.4452 -1.6666
 6541SOL     OW20435   7.010   7.246   3.311  0.3303  0.5185 -0.5984
 6541SOL    HW120436   7.053   7.258   3.227 -0.1498  0.1178 -0.9034
 6541SOL    HW220437   7.043   7.318   3.366 -2.6587  3.4166 -2.4151
 6542SOL     OW20438   3.013   5.677   7.354  0.5119  0.1479  0.2264
 6542SOL    HW120439   3.010   5.658   7.448  2.6507 -1.9760 -0.0899
 6542SOL    HW220440   2.948   5.746   7.341 -0.1266  0.1481  3.1890
 6543SOL     OW20441   3.534   4.295   4.028  0.3259  0.6716  0.0839
 6543SOL    HW120442   3.458   4.244   4.003  0.6036 -0.1347  0.8728
 6543SOL    HW220443   3.509   4.339   4.109  0.7349  0.3173  0.4050
 6544SOL     OW20444   3.450   5.903   3.527  0.1204  0.1587 -0.0600
 6544SOL    HW120445   3.495   5.853   3.595 -0.7847  1.4689  1.5464
 6544SOL    HW220446   3.467   5.995   3.549  0.8374  0.5960 -2.3195
 6545SOL     OW20447   4.951   6.520   7.758 -0.1137  0.3437 -0.1917
 6545SOL    HW120448   4.861   6.552   7.765 -0.2935 -0.0405 -0.7109
 6545SOL    HW220449   4.978   6.507   7.848 -0.9058 -0.4375 -0.0586
 6546SOL     OW20450   3.024   5.640   7.693  0.5406 -0.0788  0.1956
 6546SOL    HW120451   3.065   5.556   7.714 -0.9318 -0.7800  0.3691
 6546SOL    HW220452   2.930   5.625   7.709  0.1329  1.2575 -0.8452
 6547SOL     OW20453   3.409   3.751   3.316 -0.0062 -1.0695 -0.2697
 6547SOL    HW120454   3.469   3.788   3.381  0.3333 -2.5049  0.2661
 6547SOL    HW220455   3.323   3.759   3.357 -0.1310  0.5514 -0.8324
 6548SOL     OW20456   7.214   0.110   3.907  0.1831 -0.1220  0.0101
 6548SOL    HW120457   7.130   0.148   3.881 -0.3869 -1.9184 -0.8478
 6548SOL    HW220458   7.233   0.044   3.840  2.4054  0.4213  0.0685
 6549SOL     OW20459   4.560   6.887   6.767 -0.3210 -0.6380 -0.5265
 6549SOL    HW120460   4.632   6.865   6.826 -0.3351  1.5848  0.3314
 6549SOL    HW220461   4.483   6.891   6.823 -0.1669  2.5326 -0.4491
 6550SOL     OW20462   5.397   6.896   5.393 -0.3990  0.8515 -0.0001
 6550SOL    HW120463   5.385   6.910   5.487  1.4400 -0.7476  0.5041
 6550SOL    HW220464   5.487   6.926   5.377 -0.0836 -0.5471 -0.8834
 6551SOL     OW20465   4.006   4.126   2.550  0.5236 -0.3991 -0.3229
 6551SOL    HW120466   3.971   4.086   2.630 -0.2094 -0.2028 -0.5417
 6551SOL    HW220467   4.046   4.208   2.580  0.7125 -0.5802 -0.0822
 6552SOL     OW20468   2.644   2.840   7.018  0.1034  0.1224  0.6902
 6552SOL    HW120469   2.589   2.806   7.089  1.0991 -2.5615  0.2364
 6552SOL    HW220470   2.584   2.847   6.943 -0.0145 -1.1436  0.6558
 6553SOL     OW20471   4.568   3.886   0.843 -0.2658  0.4203 -0.0256
 6553SOL    HW120472   4.545   3.957   0.783 -0.1663  0.1210 -0.4194
 6553SOL    HW220473   4.578   3.810   0.787 -1.9757 -0.2668  0.5763
 6554SOL     OW20474   5.013   1.081   7.625 -0.1959 -0.6257  0.0637
 6554SOL    HW120475   5.077   1.010   7.629 -2.8580 -3.2064 -0.6822
 6554SOL    HW220476   5.002   1.098   7.531 -2.4343 -2.0237  0.0352
 6555SOL     OW20477   4.947   6.119   5.104  0.5785 -0.0111  0.0561
 6555SOL    HW120478   4.917   6.073   5.182  1.1561  1.1526  0.9632
 6555SOL    HW220479   5.042   6.110   5.105  0.5734 -0.2084 -0.6489
 6556SOL     OW20480   5.465   1.915   0.629 -0.1047  0.1447  0.3179
 6556SOL    HW120481   5.499   1.900   0.718 -0.4620 -0.1254  0.4097
 6556SOL    HW220482   5.377   1.950   0.642 -0.9585 -1.8414  0.0568
 6557SOL     OW20483   0.841   4.783   6.988 -0.1360 -0.2182 -0.2569
 6557SOL    HW120484   0.878   4.695   6.990 -0.4822 -0.3611 -0.0512
 6557SOL    HW220485   0.910   4.839   7.022 -0.0971 -0.4792  0.0962
 6558SOL     OW20486   6.415   4.348   7.298  0.3970 -0.7520  0.6244
 6558SOL    HW120487   6.459   4.370   7.379 -0.1407  0.9379  0.4762
 6558SOL    HW220488   6.348   4.284   7.323  1.9622 -2.2670  1.0616
 6559SOL     OW20489   2.411   2.257   7.818 -0.2039 -0.0642  0.0837
 6559SOL    HW120490   2.319   2.228   7.815  0.6221 -2.7161 -1.1802
 6559SOL    HW220491   2.444   2.222   7.901  0.3024 -1.1768 -0.5830
 6560SOL     OW20492   3.180   0.712   5.471  0.5512  0.3860  0.2006
 6560SOL    HW120493   3.115   0.697   5.402 -0.3485  1.2929  0.8467
 6560SOL    HW220494   3.150   0.790   5.516  2.1306  0.8541  0.4832
 6561SOL     OW20495   4.291   2.320   3.603  0.0426  0.2444  0.1277
 6561SOL    HW120496   4.238   2.339   3.526  0.5606 -0.3118 -0.3759
 6561SOL    HW220497   4.344   2.245   3.577 -0.5890 -0.6773  1.4009
 6562SOL     OW20498   0.952   0.903   6.588 -0.4883  0.1896  0.4011
 6562SOL    HW120499   0.912   0.850   6.520 -1.7571 -0.3229  1.5166
 6562SOL    HW220500   1.039   0.924   6.555  0.2460 -3.0074  0.1237
 6563SOL     OW20501   4.260   5.476   2.979 -0.4953  0.1180  0.1533
 6563SOL    HW120502   4.316   5.461   3.056  0.8394  1.1116 -0.6018
 6563SOL    HW220503   4.175   5.498   3.016 -0.1894 -0.6501  1.3434
 6564SOL     OW20504   4.104   1.213   3.482  0.2029 -0.0501  0.3765
 6564SOL    HW120505   4.172   1.193   3.546 -0.6284 -2.2781  0.6095
 6564SOL    HW220506   4.022   1.197   3.528 -0.4721  1.0849 -0.3953
 6565SOL     OW20507   3.732   1.297   6.184  0.0607  0.0625 -0.3552
 6565SOL    HW120508   3.705   1.365   6.245 -0.2915  0.3437 -0.8241
 6565SOL    HW220509   3.744   1.219   6.239 -1.6167 -0.0496 -0.1214
 6566SOL     OW20510   3.118   4.809   2.507  0.3993  0.4392 -0.5409
 6566SOL    HW120511   3.032   4.825   2.469 -0.2994 -0.5556  0.6056
 6566SOL    HW220512   3.157   4.896   2.515 -0.7979  0.9685 -0.3640
 6567SOL     OW20513   6.785   5.741   5.767 -0.5697 -0.3828 -0.1175
 6567SOL    HW120514   6.869   5.696   5.778 -1.2737 -1.8249 -0.5373
 6567SOL    HW220515   6.798   5.798   5.691 -0.7495 -2.5300 -1.8075
 6568SOL     OW20516   3.529   3.726   5.360  0.0483 -0.0165 -0.2695
 6568SOL    HW120517   3.456   3.677   5.401 -0.7298  0.7342 -0.7403
 6568SOL    HW220518   3.488   3.772   5.287  0.5563  2.2087  0.8202
 6569SOL     OW20519   6.123   6.788   6.191 -0.3303  0.1685 -0.2395
 6569SOL    HW120520   6.135   6.815   6.282  2.4527 -1.0003 -0.2008
 6569SOL    HW220521   6.087   6.699   6.196  0.4834 -0.1688 -0.2493
 6570SOL     OW20522   4.443   5.418   4.050  0.3292  0.3956 -0.0966
 6570SOL    HW120523   4.404   5.462   4.126  1.0366  0.3085  0.3269
 6570SOL    HW220524   4.536   5.413   4.072  0.2114 -1.6889  0.0425
 6571SOL     OW20525   2.513   6.937   5.954 -0.0442 -0.1049  0.0420
 6571SOL    HW120526   2.495   6.917   6.046  0.4265 -0.7256  0.0050
 6571SOL    HW220527   2.555   7.023   5.956  0.0176 -0.1431  0.4108
 6572SOL     OW20528   6.620   6.640   3.841  0.4931 -0.0135  0.1431
 6572SOL    HW120529   6.679   6.609   3.910  0.6303 -1.5227 -0.6446
 6572SOL    HW220530   6.667   6.622   3.759 -0.5512 -0.1315 -0.4326
 6573SOL     OW20531   1.883   6.994   6.263  0.4751 -0.0388 -0.1022
 6573SOL    HW120532   1.847   7.066   6.314 -1.4059 -1.9495  1.3636
 6573SOL    HW220533   1.884   7.027   6.173  1.1289  2.3327  0.7274
 6574SOL     OW20534   2.687   2.679   1.979  0.0762  0.1590 -0.7830
 6574SOL    HW120535   2.743   2.735   1.927  0.6765  0.0638 -0.2529
 6574SOL    HW220536   2.698   2.710   2.069 -0.0367 -0.4216 -0.5595
 6575SOL     OW20537   5.378   5.842   3.203 -0.2508  0.9131  0.2455
 6575SOL    HW120538   5.473   5.847   3.211 -0.2582  1.8106 -0.1753
 6575SOL    HW220539   5.361   5.841   3.109 -0.6067 -0.4440  0.3117
 6576SOL     OW20540   5.284   5.222   4.603 -0.7248  0.2191  0.2335
 6576SOL    HW120541   5.290   5.283   4.530 -1.8800 -0.0702 -0.0976
 6576SOL    HW220542   5.199   5.180   4.593 -0.7578 -0.0496  1.5620
 6577SOL     OW20543   2.693   5.055   6.029 -0.5246  0.0541 -0.3518
 6577SOL    HW120544   2.708   5.106   6.108  0.4150  1.1417 -1.2006
 6577SOL    HW220545   2.750   5.095   5.963  1.1845 -2.8521 -0.7490
 6578SOL     OW20546   1.877   1.108   5.726  0.3358 -0.7792  0.7154
 6578SOL    HW120547   1.893   1.029   5.776 -0.3626 -0.3188  1.6850
 6578SOL    HW220548   1.957   1.122   5.675  0.7762 -1.6304  1.1767
 6579SOL     OW20549   0.778   3.817   5.020  0.3196 -0.1021  0.1251
 6579SOL    HW120550   0.866   3.851   5.003  1.1465 -2.0743  0.2805
 6579SOL    HW220551   0.723   3.855   4.952  1.3551  0.9565 -0.1229
 6580SOL     OW20552   5.070   3.562   6.006  0.5326 -0.1305 -0.1338
 6580SOL    HW120553   5.088   3.631   5.943 -1.9395 -0.8132 -1.6486
 6580SOL    HW220554   4.992   3.518   5.973  0.2222 -1.6714  2.4515
 6581SOL     OW20555   5.455   5.817   3.924 -0.9993  0.7704  0.4370
 6581SOL    HW120556   5.361   5.803   3.935 -1.0964  0.9892 -0.1086
 6581SOL    HW220557   5.470   5.906   3.954 -1.3475  1.5518 -1.6395
 6582SOL     OW20558   3.688   3.010   4.607 -0.1078  0.1305  0.1324
 6582SOL    HW120559   3.641   3.040   4.529 -0.6613  1.5635  0.9822
 6582SOL    HW220560   3.663   3.073   4.675 -0.0712 -1.4072  1.6025
 6583SOL     OW20561   1.352   3.680   2.327  0.2273  0.0856 -0.5911
 6583SOL    HW120562   1.348   3.586   2.306 -3.3551 -0.0979  0.6467
 6583SOL    HW220563   1.324   3.724   2.247  1.5027  0.1286 -1.0346
 6584SOL     OW20564   0.965   6.868   6.600 -0.9197  0.2496 -0.1417
 6584SOL    HW120565   1.028   6.938   6.616 -1.0248  0.1836  0.5665
 6584SOL    HW220566   0.977   6.807   6.673 -2.3646  0.6543  0.4643
 6585SOL     OW20567   6.351   0.225   4.962 -0.3775 -0.1959 -0.0037
 6585SOL    HW120568   6.307   0.183   4.888  0.2482  0.4500 -0.7423
 6585SOL    HW220569   6.440   0.190   4.961 -1.0684 -2.1598  2.0108
 6586SOL     OW20570   0.215   0.554   4.975 -0.2489  0.1283  0.1243
 6586SOL    HW120571   0.308   0.537   4.990 -0.1458 -0.9297 -1.6527
 6586SOL    HW220572   0.213   0.628   4.914 -0.5929  0.3119  0.3521
 6587SOL     OW20573   5.278   0.306   5.500 -0.0703  0.6156  0.2450
 6587SOL    HW120574   5.208   0.263   5.450 -0.1841 -0.5610  1.3912
 6587SOL    HW220575   5.355   0.299   5.444 -0.0442 -1.2609  0.4920
 6588SOL     OW20576   4.657   3.220   3.268 -0.3031 -0.6637  0.3594
 6588SOL    HW120577   4.680   3.210   3.360 -0.9452  0.9986  0.7079
 6588SOL    HW220578   4.698   3.302   3.242  0.2255 -1.3271 -0.9644
 6589SOL     OW20579   3.050   4.020   4.414  0.2066  0.2444  0.1130
 6589SOL    HW120580   3.061   3.933   4.453  1.3996  0.0651 -0.6065
 6589SOL    HW220581   2.979   4.008   4.351 -1.0532  0.3008  1.4928
 6590SOL     OW20582   6.393   5.461   4.656 -0.3044  0.1133  0.5851
 6590SOL    HW120583   6.404   5.556   4.651  0.0206  0.1697  2.0992
 6590SOL    HW220584   6.469   5.431   4.707  0.8087 -1.2262 -1.7703
 6591SOL     OW20585   3.777   5.531   1.439  0.4032 -0.2501  0.0930
 6591SOL    HW120586   3.693   5.576   1.433  1.0660  0.7649 -2.2874
 6591SOL    HW220587   3.820   5.571   1.516 -1.4574 -1.1636  1.6491
 6592SOL     OW20588   4.506   2.747   0.653 -0.1555  0.1188 -0.0816
 6592SOL    HW120589   4.502   2.669   0.596 -0.2900  0.0625  0.0045
 6592SOL    HW220590   4.542   2.715   0.735  0.0094  0.1951 -0.1241
 6593SOL     OW20591   3.178   4.472   3.848  0.4836  0.1390  0.1509
 6593SOL    HW120592   3.269   4.444   3.852  0.8258  1.1051 -0.6923
 6593SOL    HW220593   3.150   4.475   3.940  1.2018 -0.4581  0.3940
 6594SOL     OW20594   3.949   3.115   2.517  0.0860 -0.2114  0.0785
 6594SOL    HW120595   3.901   3.098   2.599 -1.6755  0.4521 -0.7807
 6594SOL    HW220596   3.955   3.210   2.513 -0.1992 -0.2274 -0.7567
 6595SOL     OW20597   6.589   4.816   6.953 -0.4427  0.1964  0.5276
 6595SOL    HW120598   6.644   4.887   6.922 -1.5461 -0.0663 -2.1868
 6595SOL    HW220599   6.620   4.798   7.041  2.0922  1.7724  0.0074
 6596SOL     OW20600   6.426   6.978   2.758  0.4757 -0.2382  0.4620
 6596SOL    HW120601   6.431   6.941   2.669  1.1799 -1.6804  1.0914
 6596SOL    HW220602   6.503   6.943   2.803  0.3753  0.8708  1.5111
 6597SOL     OW20603   7.640   1.668   6.023 -0.4736 -0.2434  0.4252
 6597SOL    HW120604   7.607   1.603   5.960  0.4369 -1.2543  0.9577
 6597SOL    HW220605   7.572   1.672   6.091 -0.7413 -0.3141  0.1631
 6598SOL     OW20606   2.060   7.527   1.004 -0.5376 -0.1442 -0.2498
 6598SOL    HW120607   1.981   7.570   1.036  0.0557  0.4112  0.4999
 6598SOL    HW220608   2.131   7.588   1.025  0.1963 -1.0370 -0.0720
 6599SOL     OW20609   6.128   6.184   1.164  0.0430 -0.0749 -0.4326
 6599SOL    HW120610   6.139   6.097   1.203  0.1123  0.2378  0.2596
 6599SOL    HW220611   6.189   6.184   1.090  2.0069  0.3115  1.1451
 6600SOL     OW20612   6.764   3.306   4.406  0.4298 -0.2560  0.4195
 6600SOL    HW120613   6.788   3.390   4.446 -0.5637  0.3645 -0.2534
 6600SOL    HW220614   6.675   3.320   4.373  0.5447 -1.3320 -0.3706
 6601SOL     OW20615   5.312   3.673   3.186  0.0081  0.0833 -0.0649
 6601SOL    HW120616   5.250   3.632   3.246 -1.8432 -0.3194 -2.1514
 6601SOL    HW220617   5.304   3.621   3.105  1.8397  1.0824 -0.9166
 6602SOL     OW20618   6.130   6.668   3.261  0.4286 -0.0129 -0.1813
 6602SOL    HW120619   6.054   6.715   3.225  0.7019 -0.8281 -1.8521
 6602SOL    HW220620   6.098   6.579   3.276  0.9335 -0.2319 -0.4314
 6603SOL     OW20621   5.190   7.804   6.158  0.2316  0.8244 -0.2408
 6603SOL    HW120622   5.169   7.715   6.188  2.0693 -0.2052 -1.9203
 6603SOL    HW220623   5.106   7.838   6.126  0.0100 -1.3075 -2.0557
 6604SOL     OW20624   6.490   4.627   1.180 -0.2044  0.3390 -0.6240
 6604SOL    HW120625   6.403   4.596   1.153  0.2446 -1.6663  0.0953
 6604SOL    HW220626   6.538   4.638   1.098 -0.3618 -1.0200 -0.9092
 6605SOL     OW20627   2.164   0.368   7.669 -0.6088 -0.1002  0.5387
 6605SOL    HW120628   2.222   0.363   7.745 -0.7803  1.3956  0.7767
 6605SOL    HW220629   2.110   0.445   7.685 -0.0880  0.7188 -1.4779
 6606SOL     OW20630   1.204   2.432   6.885  0.7040 -0.1895  0.2584
 6606SOL    HW120631   1.237   2.371   6.952 -0.6042 -2.5831 -1.2171
 6606SOL    HW220632   1.262   2.420   6.810  0.0288 -0.1145 -0.2815
 6607SOL     OW20633   5.949   6.413   2.146  0.3433 -0.0091  0.5022
 6607SOL    HW120634   5.951   6.476   2.218  0.8833  1.8506 -1.0749
 6607SOL    HW220635   6.038   6.414   2.111 -0.3808  0.6255 -1.4099
 6608SOL     OW20636   2.786   6.997   6.863  0.2355  0.1021 -0.1694
 6608SOL    HW120637   2.795   6.974   6.956  0.8520 -1.2310 -0.5414
 6608SOL    HW220638   2.823   7.084   6.856  0.7802 -0.0482  0.7333
 6609SOL     OW20639   6.330   2.345   1.029  0.3988  0.1961 -0.1179
 6609SOL    HW120640   6.324   2.268   0.972 -0.7585  0.9233 -1.0018
 6609SOL    HW220641   6.422   2.346   1.057  0.2327 -2.0280  0.6682
 6610SOL     OW20642   0.601   4.266   2.671 -0.4887 -0.0521 -0.2309
 6610SOL    HW120643   0.586   4.186   2.722 -1.9278  0.7450  0.6225
 6610SOL    HW220644   0.585   4.240   2.580  2.2447 -1.5273 -0.3616
 6611SOL     OW20645   4.376   2.751   2.669  0.5434 -0.3047  0.5748
 6611SOL    HW120646   4.444   2.703   2.716 -0.1234  0.1595  2.0150
 6611SOL    HW220647   4.294   2.716   2.703  0.0420 -0.6068 -0.9087
 6612SOL     OW20648   0.951   6.863   7.019 -0.2749 -0.3330  0.4771
 6612SOL    HW120649   0.942   6.831   6.930 -0.3423  0.0517  0.3470
 6612SOL    HW220650   1.042   6.844   7.043  0.2898  1.2644 -0.3389
 6613SOL     OW20651   7.003   5.449   6.001 -0.8561  0.1827  0.1802
 6613SOL    HW120652   6.907   5.453   6.005 -1.0878 -0.2101 -3.2510
 6613SOL    HW220653   7.024   5.480   5.913  2.1205 -0.7885  0.5019
 6614SOL     OW20654   3.478   5.793   5.196  0.0674  0.0001  0.6802
 6614SOL    HW120655   3.501   5.869   5.248 -0.2106  1.0623 -0.7056
 6614SOL    HW220656   3.440   5.731   5.258 -0.6166  1.3832  1.6614
 6615SOL     OW20657   0.415   6.661   3.810 -0.3979 -0.4444 -0.0084
 6615SOL    HW120658   0.418   6.659   3.906  0.0091  0.0971 -0.0060
 6615SOL    HW220659   0.369   6.742   3.789  0.6423  0.0904 -0.2795
 6616SOL     OW20660   1.998   5.301   1.723 -0.8783 -0.5854 -0.2133
 6616SOL    HW120661   1.998   5.209   1.697  1.3659 -0.3528 -1.1560
 6616SOL    HW220662   1.975   5.299   1.816 -1.8428 -2.0015 -0.4561
 6617SOL     OW20663   0.148   2.548   3.905  0.5847 -0.9198 -0.2705
 6617SOL    HW120664   0.066   2.548   3.857  0.1338 -1.1073  0.4947
 6617SOL    HW220665   0.164   2.455   3.924  0.1852 -0.7526  0.9135
 6618SOL     OW20666   3.001   5.085   0.365  0.1550  0.2580  0.0951
 6618SOL    HW120667   2.965   5.042   0.443 -0.2931  0.7695  0.1736
 6618SOL    HW220668   3.007   5.015   0.300 -0.1603 -0.0149  0.3560
 6619SOL     OW20669   7.144   5.470   3.890 -0.0633  0.0098 -0.0475
 6619SOL    HW120670   7.233   5.475   3.855  0.1400  0.7246  0.5630
 6619SOL    HW220671   7.147   5.520   3.971 -1.3005  1.0310 -0.6036
 6620SOL     OW20672   1.628   0.759   2.779 -0.2269  0.4730 -0.7199
 6620SOL    HW120673   1.721   0.785   2.774  0.1528 -0.5286  0.7900
 6620SOL    HW220674   1.603   0.779   2.870  0.2578 -4.9522  0.7514
 6621SOL     OW20675   6.982   7.314   1.978 -0.4130  0.6628 -0.2148
 6621SOL    HW120676   7.077   7.313   1.972 -0.3580  0.9786  0.5703
 6621SOL    HW220677   6.955   7.228   1.945  0.2951 -0.4169  1.9805
 6622SOL     OW20678   1.828   2.700   1.505 -0.0881 -0.1314 -0.3957
 6622SOL    HW120679   1.738   2.693   1.538 -0.3568  4.5262  0.2126
 6622SOL    HW220680   1.821   2.679   1.412 -1.4211 -1.7541  0.0318
 6623SOL     OW20681   5.434   5.370   3.257 -0.4157 -0.1255 -0.3354
 6623SOL    HW120682   5.366   5.412   3.311  0.1828  0.4405 -0.0195
 6623SOL    HW220683   5.395   5.286   3.231 -0.8061 -0.3056  0.7934
 6624SOL     OW20684   3.389   1.357   0.397  0.3528 -0.3684 -0.3812
 6624SOL    HW120685   3.296   1.353   0.419  0.2841 -0.6533 -0.7220
 6624SOL    HW220686   3.391   1.361   0.301  0.6937 -0.4076 -0.3761
 6625SOL     OW20687   1.127   0.951   1.495 -0.5529  0.3778  0.1728
 6625SOL    HW120688   1.106   0.954   1.588  1.2363  0.2801  0.5885
 6625SOL    HW220689   1.221   0.966   1.491 -0.3110 -1.3587 -1.4948
 6626SOL     OW20690   6.814   5.509   7.542  0.0931  0.3798  0.1632
 6626SOL    HW120691   6.895   5.517   7.594 -0.1128 -0.0902  0.5565
 6626SOL    HW220692   6.776   5.426   7.569 -0.9401  0.9726  0.5625
 6627SOL     OW20693   6.254   7.323   7.743 -0.8148 -0.2972  0.6171
 6627SOL    HW120694   6.189   7.388   7.770 -0.8061 -0.7137  1.6714
 6627SOL    HW220695   6.293   7.359   7.664 -1.0205  0.8336  1.0316
 6628SOL     OW20696   5.359   1.280   5.278  0.4967 -0.5829  0.2850
 6628SOL    HW120697   5.313   1.326   5.348  1.0499  2.2361 -1.1328
 6628SOL    HW220698   5.388   1.198   5.319  0.7454  0.9403  3.3253
 6629SOL     OW20699   5.633   7.045   5.337 -0.4648  0.2295 -0.8849
 6629SOL    HW120700   5.713   7.005   5.301  0.0928 -0.2755  0.8547
 6629SOL    HW220701   5.664   7.126   5.378 -1.2186  1.2168 -2.2391
 6630SOL     OW20702   3.969   4.740   2.543  0.2240 -0.2323 -0.1971
 6630SOL    HW120703   3.887   4.771   2.503  0.5308 -2.6089 -2.8346
 6630SOL    HW220704   3.940   4.681   2.613 -0.4037 -2.1605 -2.0171
 6631SOL     OW20705   2.779   7.220   1.238 -0.2629 -0.3932 -0.1313
 6631SOL    HW120706   2.745   7.258   1.157  0.5112  0.8893  0.1371
 6631SOL    HW220707   2.798   7.129   1.215 -0.0293 -0.0377 -1.4074
 6632SOL     OW20708   5.566   7.470   3.185  0.1371  0.3990 -0.5248
 6632SOL    HW120709   5.523   7.464   3.270 -0.8629  1.2166 -0.9636
 6632SOL    HW220710   5.657   7.447   3.202 -0.7351 -2.8108  0.1624
 6633SOL     OW20711   5.871   5.119   3.226  0.2244 -0.5345 -0.5966
 6633SOL    HW120712   5.844   5.150   3.313  0.3384 -0.9866 -0.3937
 6633SOL    HW220713   5.796   5.138   3.169  0.5683  0.7379 -0.6292
 6634SOL     OW20714   4.343   4.119   1.384 -0.2216  1.1423 -0.1671
 6634SOL    HW120715   4.248   4.121   1.376 -0.1785  2.3240 -0.5131
 6634SOL    HW220716   4.374   4.091   1.298 -0.2513  0.6618 -0.0251
 6635SOL     OW20717   5.333   4.927   7.283 -0.5508  0.3910 -0.3626
 6635SOL    HW120718   5.265   4.860   7.280  1.0106 -1.3427  1.0236
 6635SOL    HW220719   5.288   5.009   7.264 -2.9945 -0.7249  0.4301
 6636SOL     OW20720   0.188   0.438   0.322  0.1876  0.1670 -0.5213
 6636SOL    HW120721   0.136   0.506   0.280 -0.4868  1.1832  1.8893
 6636SOL    HW220722   0.134   0.406   0.393  1.2691 -1.5826 -0.4547
 6637SOL     OW20723   2.362   6.144   3.170  1.1942  0.5079 -0.2280
 6637SOL    HW120724   2.424   6.076   3.142 -0.5670 -1.0341 -0.5281
 6637SOL    HW220725   2.313   6.103   3.241  1.0681  2.0035  0.5523
 6638SOL     OW20726   5.821   3.843   1.338  0.2406 -0.5062  0.2861
 6638SOL    HW120727   5.894   3.804   1.290 -0.4704 -1.0639 -0.3563
 6638SOL    HW220728   5.770   3.768   1.369 -0.4419 -0.1064  0.1283
 6639SOL     OW20729   7.465   2.394   2.162  0.2137  0.0156 -0.2963
 6639SOL    HW120730   7.370   2.404   2.155  0.2134 -0.0137 -0.3452
 6639SOL    HW220731   7.496   2.400   2.072  0.2058 -0.4648 -0.3343
 6640SOL     OW20732   5.885   6.464   3.281 -0.5572 -0.2392  0.0284
 6640SOL    HW120733   5.847   6.507   3.204 -0.3012 -1.7704 -0.9921
 6640SOL    HW220734   5.862   6.371   3.270  1.2498 -0.7974  0.7243
 6641SOL     OW20735   2.931   2.597   5.711 -0.1423  0.1015 -0.2219
 6641SOL    HW120736   2.962   2.534   5.776  0.4965 -1.6305 -2.1387
 6641SOL    HW220737   2.841   2.568   5.691 -0.3692  0.6793 -0.0314
 6642SOL     OW20738   0.225   6.112   4.500  0.6311 -0.0625 -0.6899
 6642SOL    HW120739   0.304   6.147   4.460  0.0887 -0.4425 -2.1231
 6642SOL    HW220740   0.161   6.183   4.493  1.3026  0.8852  2.0291
 6643SOL     OW20741   7.932   1.613   4.429 -0.2706 -0.0271 -0.2935
 6643SOL    HW120742   7.871   1.685   4.413  0.8484  1.1156  0.4989
 6643SOL    HW220743   8.003   1.627   4.367 -0.6295 -1.1665 -0.9841
 6644SOL     OW20744   2.601   3.703   2.051  0.2804 -0.2970 -0.2366
 6644SOL    HW120745   2.537   3.774   2.045  0.7324  0.3609  2.2175
 6644SOL    HW220746   2.680   3.737   2.009 -0.5781 -0.6616 -2.1847
 6645SOL     OW20747   3.546   4.968   4.917  0.0329  0.3769  0.2594
 6645SOL    HW120748   3.604   5.019   4.860  0.5232 -0.4006  0.0469
 6645SOL    HW220749   3.561   5.003   5.004  0.6231  0.3729  0.1651
 6646SOL     OW20750   6.878   3.676   6.151  0.0369 -0.2968 -0.3720
 6646SOL    HW120751   6.848   3.669   6.242  0.7019  0.6708 -0.0616
 6646SOL    HW220752   6.808   3.639   6.099 -0.0460 -1.5167  0.5967
 6647SOL     OW20753   2.128   6.028   5.113 -0.2260 -0.1697 -0.2135
 6647SOL    HW120754   2.166   5.947   5.146  0.5591  0.9525  1.6812
 6647SOL    HW220755   2.038   6.029   5.148  0.0123  0.1413  0.3919
 6648SOL     OW20756   3.322   2.423   3.282 -0.6696  0.8105 -0.3092
 6648SOL    HW120757   3.242   2.409   3.332 -0.4716  2.5521  0.5115
 6648SOL    HW220758   3.350   2.512   3.304  1.9107 -0.0119  0.0273
 6649SOL     OW20759   7.585   0.683   6.912  0.0369 -0.1949 -0.0867
 6649SOL    HW120760   7.612   0.773   6.931  0.9103 -0.6393  0.8563
 6649SOL    HW220761   7.668   0.636   6.898 -0.4689 -0.5600 -1.9136
 6650SOL     OW20762   4.648   7.446   5.377 -0.2818 -0.5573  0.2016
 6650SOL    HW120763   4.689   7.483   5.299 -0.3018  0.7287  0.7927
 6650SOL    HW220764   4.555   7.445   5.358 -0.5690  2.3759  1.2692
 6651SOL     OW20765   6.860   0.299   2.508 -0.3986 -0.3001  0.0859
 6651SOL    HW120766   6.914   0.319   2.584  0.6610 -1.4554 -0.3528
 6651SOL    HW220767   6.800   0.373   2.501  0.0522  0.2114  1.5414
 6652SOL     OW20768   2.372   2.357   7.247 -0.4547  0.1559 -0.1048
 6652SOL    HW120769   2.314   2.295   7.202 -0.1823 -1.5619  1.8318
 6652SOL    HW220770   2.405   2.308   7.323  3.8488  0.9668 -1.3402
 6653SOL     OW20771   5.063   5.783   6.520 -0.3798 -0.1004 -0.5952
 6653SOL    HW120772   5.071   5.799   6.426 -1.6690 -1.0778 -0.8729
 6653SOL    HW220773   4.970   5.766   6.535 -0.0316 -0.9920  0.6888
 6654SOL     OW20774   1.335   3.443   4.220 -0.6095 -0.2468 -0.0115
 6654SOL    HW120775   1.344   3.422   4.127 -2.9416 -1.0886 -0.0794
 6654SOL    HW220776   1.317   3.359   4.261 -1.0695  0.3407  0.9934
 6655SOL     OW20777   2.177   0.640   3.592  0.4810 -0.2543 -0.2553
 6655SOL    HW120778   2.103   0.651   3.653  0.4614 -0.5469 -0.2273
 6655SOL    HW220779   2.235   0.714   3.612  0.0189  0.1927 -0.5323
 6656SOL     OW20780   7.322   1.216   7.381  0.3178 -0.3561 -0.0647
 6656SOL    HW120781   7.340   1.256   7.466  1.3550  3.4711 -1.9846
 6656SOL    HW220782   7.397   1.158   7.366  1.7619  1.3928  0.2253
 6657SOL     OW20783   2.377   3.236   4.167 -0.4052 -0.0789 -0.2872
 6657SOL    HW120784   2.349   3.145   4.165 -1.2511  0.1467  0.6275
 6657SOL    HW220785   2.472   3.233   4.175 -0.4966 -0.8732  0.4739
 6658SOL     OW20786   0.793   6.023   1.092  0.4404 -0.1627  0.4480
 6658SOL    HW120787   0.888   6.030   1.104  0.4338 -0.7465  0.8615
 6658SOL    HW220788   0.764   5.966   1.164 -0.1284 -0.5368 -0.0780
 6659SOL     OW20789   2.691   5.974   5.054  0.0583 -0.1268  0.1649
 6659SOL    HW120790   2.629   6.042   5.081 -1.9019 -1.5082 -0.6865
 6659SOL    HW220791   2.723   5.937   5.136 -1.0772 -0.1206  0.6191
 6660SOL     OW20792   2.798   5.574   5.163 -0.4914 -0.1565 -0.0994
 6660SOL    HW120793   2.838   5.660   5.158  1.3341 -0.9156  0.9422
 6660SOL    HW220794   2.753   5.573   5.248 -0.1968 -0.3589  0.0552
 6661SOL     OW20795   1.279   0.206   5.066  0.7392  0.0275 -0.0063
 6661SOL    HW120796   1.202   0.163   5.103 -0.3637 -0.5532 -2.8434
 6661SOL    HW220797   1.351   0.182   5.124 -0.3087 -3.5777 -0.1145
 6662SOL     OW20798   0.009   6.803   7.319 -0.1031  0.1738  0.4392
 6662SOL    HW120799   0.014   6.748   7.397  0.4254 -0.2725  0.0962
 6662SOL    HW220800   0.019   6.892   7.352  0.2578 -0.0227  0.8685
 6663SOL     OW20801   0.199   2.636   0.429  0.0858  0.3846  0.4798
 6663SOL    HW120802   0.244   2.720   0.422 -0.1318  0.5440  0.9743
 6663SOL    HW220803   0.116   2.649   0.385  0.2468  0.2875  0.1456
 6664SOL     OW20804   1.252   1.018   4.771  0.1232  0.1261  0.7003
 6664SOL    HW120805   1.196   1.080   4.723  0.3897 -0.9403 -1.0489
 6664SOL    HW220806   1.326   1.070   4.801  0.0882  0.7761 -0.3163
 6665SOL     OW20807   5.077   6.093   0.229  0.5353 -0.0858  0.0234
 6665SOL    HW120808   5.145   6.066   0.166  0.6507  1.0073 -0.3372
 6665SOL    HW220809   5.117   6.078   0.315  1.3791  0.8805 -0.1892
 6666SOL     OW20810   0.388   5.818   6.410  0.0523 -0.2247 -0.2551
 6666SOL    HW120811   0.439   5.874   6.351  0.7127 -0.0682  0.4615
 6666SOL    HW220812   0.306   5.866   6.424 -0.0529 -0.2018 -0.9429
 6667SOL     OW20813   5.002   1.034   2.201  0.4230 -0.3337 -0.0474
 6667SOL    HW120814   5.052   0.952   2.202  0.2683 -0.4655  3.7658
 6667SOL    HW220815   5.068   1.103   2.215  0.1490 -0.0835  0.0134
 6668SOL     OW20816   6.415   0.296   1.743  0.0232  0.4034  0.3120
 6668SOL    HW120817   6.391   0.246   1.665 -2.4110  2.4055 -0.2825
 6668SOL    HW220818   6.356   0.264   1.811 -1.0057  1.8330  0.1279
 6669SOL     OW20819   6.302   3.242   7.915 -0.2871 -0.1233  0.0788
 6669SOL    HW120820   6.358   3.256   7.839 -0.4927  0.7774  0.0880
 6669SOL    HW220821   6.231   3.306   7.905 -0.6725 -0.4472  0.6805
 6670SOL     OW20822   2.587   1.960   2.035  0.1728 -0.8732 -0.0281
 6670SOL    HW120823   2.525   1.924   2.099  0.3866  0.0953  0.7381
 6670SOL    HW220824   2.542   1.950   1.950 -0.9566 -0.3817  0.4939
 6671SOL     OW20825   3.917   4.808   7.984  0.1209  0.3247 -0.3050
 6671SOL    HW120826   3.824   4.811   8.006  0.1468 -0.5651 -0.0361
 6671SOL    HW220827   3.918   4.779   7.892  0.1776 -1.5997  0.2775
 6672SOL     OW20828   6.251   6.657   3.571 -0.0142  0.5450 -0.6526
 6672SOL    HW120829   6.224   6.743   3.539 -0.4007  0.3110 -0.9545
 6672SOL    HW220830   6.170   6.607   3.578 -0.0408  0.8333  1.4492
 6673SOL     OW20831   0.256   6.999   5.047 -0.2908  0.5321 -0.4029
 6673SOL    HW120832   0.290   6.922   5.001 -0.0058 -0.0122  0.7053
 6673SOL    HW220833   0.170   7.015   5.007 -0.4035 -0.4372 -0.5530
 6674SOL     OW20834   0.178   6.471   7.973  0.7085 -0.5540  0.0214
 6674SOL    HW120835   0.227   6.448   8.052  1.0345 -0.5824 -0.1872
 6674SOL    HW220836   0.243   6.513   7.917  0.6866 -1.2947 -0.5720
 6675SOL     OW20837   1.047   5.619   7.127  0.1991 -0.4002 -0.5657
 6675SOL    HW120838   1.075   5.539   7.082  1.9338  0.3814 -0.9149
 6675SOL    HW220839   1.005   5.672   7.059  0.0256 -0.5395 -0.5684
 6676SOL     OW20840   3.990   2.162   5.225 -0.2958 -0.3137 -0.1739
 6676SOL    HW120841   3.973   2.209   5.307  0.6315  1.0869 -0.7651
 6676SOL    HW220842   4.085   2.152   5.223 -0.4592 -1.9805 -0.2032
 6677SOL     OW20843   6.372   7.642   6.352 -0.6833  0.2721 -0.1374
 6677SOL    HW120844   6.449   7.624   6.406 -0.5649  1.4957  0.1150
 6677SOL    HW220845   6.379   7.736   6.332 -1.7313  0.2291 -0.7032
 6678SOL     OW20846   6.700   6.305   4.362 -0.5291  0.7552  0.0953
 6678SOL    HW120847   6.662   6.319   4.276 -1.3061 -0.2264  0.2698
 6678SOL    HW220848   6.720   6.212   4.365  0.2211  0.9285  0.6876
 6679SOL     OW20849   1.169   0.500   2.200  0.4733  0.2115  0.0172
 6679SOL    HW120850   1.098   0.494   2.136 -0.6569 -2.6889  1.4329
 6679SOL    HW220851   1.200   0.410   2.209  0.5748  0.5419  3.5522
 6680SOL     OW20852   2.411   4.646   1.194 -0.5499 -0.4351  0.3436
 6680SOL    HW120853   2.421   4.740   1.206 -0.3214 -0.4546  0.3042
 6680SOL    HW220854   2.480   4.607   1.248  0.7092 -0.5068 -1.2972
 6681SOL     OW20855   3.629   1.952   5.158  0.2255  1.2303 -0.0552
 6681SOL    HW120856   3.587   2.038   5.154  0.1027  1.2513  1.5644
 6681SOL    HW220857   3.592   1.910   5.235  1.3125  0.2573 -0.0413
 6682SOL     OW20858   4.596   0.817   6.718  0.2606  0.1255  0.5613
 6682SOL    HW120859   4.561   0.759   6.786  1.4646  0.0626  1.1535
 6682SOL    HW220860   4.604   0.902   6.761  0.2619  0.2812  0.2544
 6683SOL     OW20861   0.243   0.593   0.036  0.0305 -0.5715 -0.3013
 6683SOL    HW120862   0.336   0.574   0.023  0.0616 -1.2389  0.7648
 6683SOL    HW220863   0.228   0.676  -0.008  0.8616 -1.0652 -1.5221
 6684SOL     OW20864   4.253   1.066   5.130 -0.6312 -0.3583 -0.1325
 6684SOL    HW120865   4.168   1.029   5.106  0.4526 -1.9764 -1.5722
 6684SOL    HW220866   4.244   1.160   5.112 -2.0871 -0.5174 -0.3175
 6685SOL     OW20867   4.628   0.126   7.829  0.0226  0.1423  0.3775
 6685SOL    HW120868   4.592   0.192   7.889 -0.4123 -0.7080  1.0704
 6685SOL    HW220869   4.551   0.075   7.801 -0.0303  1.5736 -2.2365
 6686SOL     OW20870   5.786   3.336   1.833 -0.3234  0.3373  0.1060
 6686SOL    HW120871   5.741   3.274   1.890  2.1766  0.2729  2.0829
 6686SOL    HW220872   5.836   3.391   1.892  0.3339  1.9297 -1.8859
 6687SOL     OW20873   1.493   6.059   5.341  0.4821 -0.0152  0.4367
 6687SOL    HW120874   1.496   6.109   5.259  1.3360 -0.6003  0.1195
 6687SOL    HW220875   1.544   6.112   5.403 -0.5408  0.6577  0.7338
 6688SOL     OW20876   1.317   6.904   7.887 -0.6324 -0.6206  0.3281
 6688SOL    HW120877   1.295   6.992   7.860  1.9462 -0.1602 -0.4145
 6688SOL    HW220878   1.374   6.916   7.964  1.1171 -1.5466 -0.7921
 6689SOL     OW20879   3.014   3.706   5.607 -0.8740  0.6207  0.4151
 6689SOL    HW120880   3.063   3.789   5.605 -1.5739  1.0235 -0.8749
 6689SOL    HW220881   2.928   3.728   5.570 -1.6146 -0.3427  1.5314
 6690SOL     OW20882   7.005   1.991   2.480 -0.1611  0.6762  0.2934
 6690SOL    HW120883   6.956   1.989   2.562  0.1889 -0.6630  0.4774
 6690SOL    HW220884   6.938   1.993   2.411 -0.4540  1.2277  0.5912
 6691SOL     OW20885   2.261   5.815   3.193  0.6544 -0.1193  0.4507
 6691SOL    HW120886   2.183   5.851   3.151  0.7180 -0.3169  0.1659
 6691SOL    HW220887   2.334   5.861   3.151  0.6908  0.1617  0.8082
 6692SOL     OW20888   4.685   6.449   7.287 -0.4676 -0.0673 -0.2291
 6692SOL    HW120889   4.687   6.524   7.347  0.9510 -0.8177  0.7056
 6692SOL    HW220890   4.660   6.487   7.202 -0.7984  1.2857  0.4474
 6693SOL     OW20891   4.777   7.500   5.140  0.4587  0.2360 -0.1446
 6693SOL    HW120892   4.863   7.492   5.180 -0.5160 -1.2586  1.7793
 6693SOL    HW220893   4.756   7.593   5.147 -0.0933 -0.0854  3.8918
 6694SOL     OW20894   2.270   0.718   4.048 -0.6520 -0.2521  0.3196
 6694SOL    HW120895   2.273   0.811   4.070 -3.1524  0.2342 -1.2027
 6694SOL    HW220896   2.256   0.674   4.132 -0.0670  0.7802  0.9712
 6695SOL     OW20897   0.330   1.429   1.000  0.4276  0.3238 -0.2417
 6695SOL    HW120898   0.382   1.496   0.956  0.7100  0.4390  0.2580
 6695SOL    HW220899   0.348   1.349   0.951 -0.1017  0.6579 -0.9931
 6696SOL     OW20900   5.271   1.050   0.471  0.0797 -0.0608 -0.2327
 6696SOL    HW120901   5.274   0.956   0.452  1.4816  0.1043 -0.9619
 6696SOL    HW220902   5.345   1.064   0.530 -1.1550  0.3088  1.2259
 6697SOL     OW20903   0.650   6.066   5.296 -0.5182 -0.0212  0.5279
 6697SOL    HW120904   0.619   6.009   5.225  1.2696 -1.2239  0.6730
 6697SOL    HW220905   0.738   6.093   5.269 -0.4711  0.8517  1.5090
 6698SOL     OW20906   3.910   5.627   4.166  0.0908 -0.2936 -0.8600
 6698SOL    HW120907   3.931   5.619   4.073 -1.9982  0.5186 -1.4211
 6698SOL    HW220908   3.931   5.718   4.188  1.8916 -0.8617 -0.1855
 6699SOL     OW20909   0.085   7.705   6.769  0.2346 -0.0272 -0.6255
 6699SOL    HW120910   0.055   7.796   6.772 -0.9376 -0.4396  0.7177
 6699SOL    HW220911   0.138   7.695   6.848 -2.2330 -1.3791  0.8898
 6700SOL     OW20912   7.891   5.569   3.592  0.1798  0.9900 -0.3813
 6700SOL    HW120913   7.968   5.546   3.540  1.5269  0.2474  1.8536
 6700SOL    HW220914   7.817   5.529   3.546  1.4794 -0.6999 -1.0470
 6701SOL     OW20915   1.047   3.873   7.454  0.0277  0.1236  0.3274
 6701SOL    HW120916   1.087   3.804   7.400 -1.0521 -0.2652  0.0206
 6701SOL    HW220917   1.017   3.938   7.390 -0.5515  0.0345  0.5137
 6702SOL     OW20918   7.973   6.626   4.086 -0.0713  0.2668  0.0644
 6702SOL    HW120919   7.980   6.645   4.180  0.7438  0.0581  0.0466
 6702SOL    HW220920   8.041   6.680   4.045  0.1965 -0.3581 -0.3100
 6703SOL     OW20921   7.064   0.455   1.056  0.0807  0.7016  0.3107
 6703SOL    HW120922   7.084   0.533   1.108  2.0109 -0.5318  1.4668
 6703SOL    HW220923   7.024   0.394   1.118 -0.5108  0.3856 -0.3702
 6704SOL     OW20924   7.498   6.330   5.700 -0.1011 -0.2772 -0.0314
 6704SOL    HW120925   7.432   6.391   5.669  0.9661 -0.1772 -2.1683
 6704SOL    HW220926   7.486   6.328   5.795 -2.0760  0.9794 -0.2311
 6705SOL     OW20927   5.179   2.185   7.275 -0.2605  0.3338  0.1852
 6705SOL    HW120928   5.155   2.121   7.342  1.7175  1.0160  1.6054
 6705SOL    HW220929   5.114   2.173   7.205 -0.0042 -3.0796  0.4830
 6706SOL     OW20930   2.583   3.605   5.122  0.4133  0.5844 -0.7195
 6706SOL    HW120931   2.569   3.587   5.029  2.0461  0.4683 -0.9568
 6706SOL    HW220932   2.507   3.567   5.165  0.2661 -0.4891 -1.8975
 6707SOL     OW20933   0.062   3.540   3.407  0.9942 -0.6632 -0.1144
 6707SOL    HW120934   0.037   3.601   3.339 -0.9588 -0.9189  0.3588
 6707SOL    HW220935   0.112   3.472   3.362 -0.2557 -0.8162 -1.2825
 6708SOL     OW20936   2.500   2.876   6.793  0.3469 -0.1806 -0.1300
 6708SOL    HW120937   2.428   2.928   6.828  0.1130  0.1163 -1.0325
 6708SOL    HW220938   2.465   2.788   6.786 -0.8307  0.4542 -3.0474
 6709SOL     OW20939   0.390   1.832   4.658 -0.3969 -0.0273 -0.1779
 6709SOL    HW120940   0.300   1.845   4.686 -0.0468  0.3386  0.8439
 6709SOL    HW220941   0.419   1.919   4.629  0.3349  0.3927  1.7136
 6710SOL     OW20942   5.972   7.562   7.858 -0.0318 -0.2702 -0.5623
 6710SOL    HW120943   6.046   7.553   7.918  0.2606  1.4455 -0.6330
 6710SOL    HW220944   5.930   7.476   7.858  2.9677 -1.8260 -1.8450
 6711SOL     OW20945   6.516   4.242   2.802 -0.0973  0.5165 -0.1527
 6711SOL    HW120946   6.435   4.203   2.767  1.2597 -0.2794 -2.5334
 6711SOL    HW220947   6.551   4.174   2.859 -0.4489  0.3463 -0.1317
 6712SOL     OW20948   2.401   4.276   1.375 -0.2569  0.4151  0.3957
 6712SOL    HW120949   2.479   4.242   1.417 -1.1184 -0.4239  1.3312
 6712SOL    HW220950   2.369   4.204   1.321  0.1210  1.0581 -0.7125
 6713SOL     OW20951   6.665   4.696   0.550 -0.1952  0.1444  0.1095
 6713SOL    HW120952   6.577   4.665   0.529 -1.0705  0.4634  3.0880
 6713SOL    HW220953   6.685   4.761   0.483 -1.9657 -0.3542 -0.9287
 6714SOL     OW20954   6.675   6.078   4.578 -0.0585 -0.0521  0.2445
 6714SOL    HW120955   6.618   6.010   4.615  0.6138 -0.2137  0.9836
 6714SOL    HW220956   6.694   6.047   4.489  0.0352 -0.6984  0.4895
 6715SOL     OW20957   5.829   0.319   7.168  0.7152 -0.4497  0.4876
 6715SOL    HW120958   5.785   0.396   7.133  1.5784 -0.9844 -1.9245
 6715SOL    HW220959   5.803   0.315   7.260 -1.7624  0.9730 -0.1118
 6716SOL     OW20960   1.873   6.352   6.756 -0.0017 -0.0220  0.4431
 6716SOL    HW120961   1.850   6.305   6.676  2.4236 -1.6661  0.6668
 6716SOL    HW220962   1.789   6.373   6.796 -1.1990 -1.4092 -1.2512
 6717SOL     OW20963   3.476   5.027   7.157 -0.1842  0.0039 -0.4213
 6717SOL    HW120964   3.384   5.048   7.141 -0.0118 -0.6749 -2.4319
 6717SOL    HW220965   3.474   4.936   7.187 -0.1148 -0.2195 -1.0931
 6718SOL     OW20966   6.772   0.614   3.674  0.2682 -0.4605 -0.1807
 6718SOL    HW120967   6.723   0.574   3.746 -0.2950 -1.8733 -1.3406
 6718SOL    HW220968   6.705   0.644   3.613  0.7553  0.4938 -0.2583
 6719SOL     OW20969   2.033   1.835   5.302 -0.5122 -0.4978  0.1107
 6719SOL    HW120970   2.045   1.890   5.225 -2.9091  1.0488  0.7767
 6719SOL    HW220971   1.940   1.845   5.325 -0.1971 -2.0957  2.3066
 6720SOL     OW20972   4.008   6.491   5.298  0.8494  0.5935 -0.3905
 6720SOL    HW120973   3.986   6.581   5.320  1.5535  0.4720  0.9134
 6720SOL    HW220974   4.095   6.496   5.258  1.3636  0.3908  0.6869
 6721SOL     OW20975   2.813   4.267   5.952  0.0434 -0.1107 -0.5576
 6721SOL    HW120976   2.788   4.335   6.014 -1.8379 -1.8300  0.6186
 6721SOL    HW220977   2.897   4.233   5.985 -0.5663 -0.4895  0.6159
 6722SOL     OW20978   5.821   6.055   6.538 -0.0863 -0.2774 -0.1152
 6722SOL    HW120979   5.868   6.062   6.621 -1.4560 -1.4109  0.7729
 6722SOL    HW220980   5.733   6.087   6.557 -0.8428 -1.9218 -0.7321
 6723SOL     OW20981   1.222   3.842   3.019  0.1658 -0.2129 -0.4638
 6723SOL    HW120982   1.215   3.936   3.002 -1.1451 -0.3383 -0.6163
 6723SOL    HW220983   1.246   3.804   2.934 -2.9489 -0.4289 -1.3140
 6724SOL     OW20984   6.206   2.936   3.780 -0.1987  0.1079  0.4525
 6724SOL    HW120985   6.141   3.001   3.753  1.1676  0.8367 -1.1787
 6724SOL    HW220986   6.252   2.913   3.699  2.6741  0.8635  1.7806
 6725SOL     OW20987   6.920   3.510   6.987 -0.0523 -0.2796  0.4373
 6725SOL    HW120988   6.873   3.584   6.947  0.8596 -0.3661 -0.8223
 6725SOL    HW220989   6.873   3.433   6.957  1.5307 -0.4320 -1.7603
 6726SOL     OW20990   4.514   6.473   1.986 -0.2613 -0.0786 -0.0574
 6726SOL    HW120991   4.537   6.530   1.913 -1.5631  1.4114  0.6747
 6726SOL    HW220992   4.427   6.501   2.013 -0.7610 -2.1397  0.6005
 6727SOL     OW20993   7.086   0.857   2.777 -0.3545 -0.2695  0.4553
 6727SOL    HW120994   7.039   0.861   2.860 -1.0613 -0.5514  0.0773
 6727SOL    HW220995   7.147   0.931   2.780 -0.2672 -0.3667  1.2846
 6728SOL     OW20996   5.636   3.656   5.493  0.0418  0.0966  0.2376
 6728SOL    HW120997   5.550   3.662   5.452 -0.1280 -1.1775  0.3746
 6728SOL    HW220998   5.617   3.648   5.587  0.1769 -2.3692  0.1088
 6729SOL     OW20999   4.374   7.947   3.135 -0.1007 -0.0665 -0.0096
 6729SOL    HW121000   4.441   8.012   3.112 -0.5108  0.3145 -0.1161
 6729SOL    HW221001   4.395   7.871   3.081 -0.0867  0.2501 -0.4433
 6730SOL     OW21002   6.781   3.059   2.724  0.3081  0.3502 -0.1746
 6730SOL    HW121003   6.765   3.145   2.686 -1.9736 -0.2971 -0.7447
 6730SOL    HW221004   6.741   3.064   2.811 -2.2582 -0.9966 -1.2544
 6731SOL     OW21005   1.582   0.134   5.560  0.0503 -0.3463  0.6445
 6731SOL    HW121006   1.618   0.189   5.630  1.2836 -1.2918  0.7662
 6731SOL    HW221007   1.612   0.176   5.479  2.0216 -1.4831  0.7505
 6732SOL     OW21008   0.465   5.797   4.637  0.3627  0.1071  0.3183
 6732SOL    HW121009   0.430   5.880   4.670 -0.6586 -1.0704  2.3176
 6732SOL    HW221010   0.555   5.793   4.671 -0.1530 -0.3513  1.7075
 6733SOL     OW21011   5.074   3.643   1.368  0.0341  0.4394 -0.5824
 6733SOL    HW121012   5.101   3.556   1.339 -1.7839 -0.2041 -0.4372
 6733SOL    HW221013   5.024   3.626   1.448  0.2330  1.6743 -0.1977
 6734SOL     OW21014   3.504   7.224   2.613 -0.4234 -0.2242 -0.0071
 6734SOL    HW121015   3.508   7.316   2.637  2.3317 -0.7032  1.4714
 6734SOL    HW221016   3.410   7.203   2.615 -1.1139  2.5758 -0.6756
 6735SOL     OW21017   2.068   6.626   2.196 -0.1158  0.4589 -0.0208
 6735SOL    HW121018   2.111   6.699   2.153  1.7541 -0.6966 -0.1734
 6735SOL    HW221019   2.049   6.564   2.125 -0.0535  0.0147  0.3453
 6736SOL     OW21020   1.163   4.956   2.912 -0.4693  0.2678  0.9420
 6736SOL    HW121021   1.162   5.011   2.833 -0.4099  0.2960  0.9607
 6736SOL    HW221022   1.214   4.879   2.887 -0.8203  0.0761  0.8191
 6737SOL     OW21023   6.053   6.304   0.499  0.5990 -0.7249 -0.2648
 6737SOL    HW121024   6.114   6.242   0.540  0.0106 -0.2980  1.3175
 6737SOL    HW221025   5.976   6.303   0.556 -0.8728 -1.2045 -2.2049
 6738SOL     OW21026   7.587   5.447   6.175 -0.0262  0.1806  0.2961
 6738SOL    HW121027   7.504   5.402   6.159  0.2313  0.2201 -1.2259
 6738SOL    HW221028   7.626   5.457   6.088  1.0000  1.2595  0.8635
 6739SOL     OW21029   7.565   1.486   5.129  0.2696  0.3973 -0.0292
 6739SOL    HW121030   7.588   1.539   5.204  1.7312  1.0303 -0.9084
 6739SOL    HW221031   7.513   1.414   5.165  0.6815  0.8712  1.5292
 6740SOL     OW21032   2.280   3.646   4.702 -0.7680  0.0292 -0.6904
 6740SOL    HW121033   2.201   3.592   4.710 -0.3447 -0.3713  0.9862
 6740SOL    HW221034   2.262   3.724   4.755 -0.4118  0.3788 -1.0786
 6741SOL     OW21035   0.849   1.460   0.324  0.5753 -0.2751 -0.0848
 6741SOL    HW121036   0.831   1.421   0.410  0.4528  0.3750  0.1882
 6741SOL    HW221037   0.898   1.392   0.277 -0.4730 -1.1428  0.0356
 6742SOL     OW21038   2.857   4.452   5.019 -0.0219 -0.4602 -0.1583
 6742SOL    HW121039   2.920   4.523   5.026  0.0434 -0.5186 -0.1578
 6742SOL    HW221040   2.882   4.404   4.941 -0.2674 -0.2870 -0.3453
 6743SOL     OW21041   5.713   3.414   7.592  0.1513 -0.1268 -0.1502
 6743SOL    HW121042   5.657   3.393   7.518 -0.1530 -2.5818  0.7208
 6743SOL    HW221043   5.797   3.372   7.572  0.5437  0.4661  0.2202
 6744SOL     OW21044   6.750   5.050   0.871  0.2390  0.3333  0.2254
 6744SOL    HW121045   6.671   4.995   0.873  1.3010 -1.3473 -2.3409
 6744SOL    HW221046   6.721   5.132   0.832 -0.3710 -0.0729 -0.1805
 6745SOL     OW21047   0.057   1.113   5.221  0.1374 -0.2095  0.0751
 6745SOL    HW121048   0.028   1.051   5.288  0.3931 -0.9725 -0.5052
 6745SOL    HW221049  -0.022   1.133   5.171 -0.0978  0.5291  0.7278
 6746SOL     OW21050   6.641   2.395   3.771  0.6242  0.0751 -0.3195
 6746SOL    HW121051   6.732   2.378   3.793  0.7475 -1.5875 -2.0171
 6746SOL    HW221052   6.631   2.365   3.681 -1.7797 -0.4000  0.0566
 6747SOL     OW21053   2.755   5.796   1.111 -0.3502 -0.3960 -0.1255
 6747SOL    HW121054   2.742   5.852   1.034  2.0108 -0.3506 -0.5164
 6747SOL    HW221055   2.721   5.848   1.184 -2.3093 -0.3105 -1.0517
 6748SOL     OW21056   5.849   0.251   2.306 -0.1358 -0.4573 -0.4273
 6748SOL    HW121057   5.865   0.321   2.369 -0.2030 -0.6366 -0.2076
 6748SOL    HW221058   5.904   0.272   2.231 -0.2343 -0.1174 -0.4013
 6749SOL     OW21059   0.191   5.948   7.025 -0.0587 -0.6150  0.0398
 6749SOL    HW121060   0.132   6.020   7.001 -1.5788 -1.5526  0.8402
 6749SOL    HW221061   0.162   5.874   6.970 -0.4561 -1.4307  1.3252
 6750SOL     OW21062   7.620   1.507   5.589 -0.2452  0.0307 -0.3671
 6750SOL    HW121063   7.629   1.587   5.537  0.8813  0.0774 -0.1286
 6750SOL    HW221064   7.613   1.437   5.524 -0.6471  0.2633 -0.5768
 6751SOL     OW21065   1.062   5.832   7.576  0.0298 -0.0645 -0.4528
 6751SOL    HW121066   1.114   5.909   7.598  0.9966 -1.0021  0.6176
 6751SOL    HW221067   1.054   5.835   7.481  2.4543 -0.1360 -0.7018
 6752SOL     OW21068   7.456   3.785   0.295 -0.4041 -0.2635  0.7716
 6752SOL    HW121069   7.484   3.872   0.268  1.6487 -1.0383  0.2872
 6752SOL    HW221070   7.463   3.787   0.391  2.3795 -0.7347  0.6286
 6753SOL     OW21071   3.059   3.708   0.904 -0.2186  0.6476 -0.4683
 6753SOL    HW121072   3.066   3.690   0.810  1.9079 -2.0011  0.1500
 6753SOL    HW221073   3.121   3.648   0.945  0.4145  3.1631  2.5041
 6754SOL     OW21074   2.626   4.358   5.269  0.0155 -0.6882 -0.0743
 6754SOL    HW121075   2.707   4.404   5.292 -0.2331  0.1502 -0.8775
 6754SOL    HW221076   2.557   4.405   5.316 -0.2505 -0.1620 -0.9735
 6755SOL     OW21077   7.390   5.268   1.849 -0.1731 -0.3034 -0.8466
 6755SOL    HW121078   7.446   5.327   1.900 -1.3521  0.0052  0.1136
 6755SOL    HW221079   7.366   5.198   1.910  1.0599 -1.7094 -1.9235
 6756SOL     OW21080   5.231   0.594   3.230 -0.7826 -0.3045  0.0064
 6756SOL    HW121081   5.200   0.571   3.142 -0.0023  1.4580 -0.7420
 6756SOL    HW221082   5.232   0.689   3.231 -1.1293 -0.3043  2.0699
 6757SOL     OW21083   3.423   6.157   1.538 -0.1831  0.1180 -0.2655
 6757SOL    HW121084   3.459   6.199   1.617 -0.5464  1.3255 -0.7364
 6757SOL    HW221085   3.346   6.109   1.570  0.5114 -0.5986  0.3562
 6758SOL     OW21086   5.010   1.383   3.039  0.2923 -0.2885  0.1922
 6758SOL    HW121087   4.973   1.423   3.118 -0.0261  0.1774 -0.1892
 6758SOL    HW221088   4.935   1.340   2.997  0.7504 -1.8957  0.9475
 6759SOL     OW21089   2.790   0.516   0.699  0.1729 -0.1237 -0.0940
 6759SOL    HW121090   2.711   0.462   0.699  0.3254 -0.3504  0.4864
 6759SOL    HW221091   2.809   0.532   0.606 -1.1905  0.8712 -0.2186
 6760SOL     OW21092   2.020   4.332   0.329  0.2569 -0.0181  0.2143
 6760SOL    HW121093   1.986   4.254   0.285  0.4835  0.8953 -1.6052
 6760SOL    HW221094   2.003   4.316   0.422 -2.6383 -0.8010 -0.3961
 6761SOL     OW21095   0.313   4.813   2.177  0.2388 -0.2237  0.8658
 6761SOL    HW121096   0.354   4.728   2.195 -0.1556 -1.3069 -2.8728
 6761SOL    HW221097   0.228   4.808   2.219  1.6499 -0.1960  3.8282
 6762SOL     OW21098   1.043   4.881   2.172  0.5084 -0.3003  0.2169
 6762SOL    HW121099   1.113   4.942   2.191  0.5662  0.0505 -1.0670
 6762SOL    HW221100   0.988   4.882   2.250  1.5272 -0.0343  0.9416
 6763SOL     OW21101   2.799   2.193   5.638  0.8206  0.4076  0.1829
 6763SOL    HW121102   2.722   2.138   5.653  0.1792  0.9479 -0.9782
 6763SOL    HW221103   2.781   2.273   5.687  0.4937  0.6490 -0.3207
 6764SOL     OW21104   1.243   0.757   7.821  0.2801  0.0916  0.7228
 6764SOL    HW121105   1.189   0.755   7.742  0.7483 -0.2873  0.4084
 6764SOL    HW221106   1.281   0.845   7.822  0.1641  0.1440  0.6029
 6765SOL     OW21107   3.660   2.179   1.371  0.4289  0.7717  0.2766
 6765SOL    HW121108   3.618   2.130   1.302  2.7612 -1.6583  0.4970
 6765SOL    HW221109   3.599   2.249   1.392 -2.9719 -1.9909 -0.0895
 6766SOL     OW21110   1.845   5.178   0.183  0.1455 -0.0028 -0.2327
 6766SOL    HW121111   1.844   5.258   0.235 -1.5301  0.1215 -0.4471
 6766SOL    HW221112   1.768   5.129   0.211  0.6987 -1.1775 -0.6992
 6767SOL     OW21113   0.980   3.689   2.156  0.2174  0.1182  0.2317
 6767SOL    HW121114   0.970   3.598   2.128 -0.9110  0.7213 -1.4186
 6767SOL    HW221115   1.020   3.733   2.081  1.6431  0.8040  1.3782
 6768SOL     OW21116   6.842   0.260   0.096  0.1635  0.0455 -0.1965
 6768SOL    HW121117   6.929   0.232   0.124  0.5051  0.2836 -1.0081
 6768SOL    HW221118   6.798   0.179   0.069  0.5175  0.0577 -0.8207
 6769SOL     OW21119   7.080   7.907   6.026  0.1027 -0.3285  0.1116
 6769SOL    HW121120   7.105   7.986   5.979 -0.8516 -0.3722 -0.4785
 6769SOL    HW221121   6.994   7.884   5.992  0.6616 -2.0078 -0.2345
 6770SOL     OW21122   3.046   5.951   4.356  0.3549  0.3913 -0.2548
 6770SOL    HW121123   3.111   5.962   4.287 -0.8698 -0.6016 -1.5928
 6770SOL    HW221124   3.095   5.967   4.437  1.9556  0.9327 -1.2976
 6771SOL     OW21125   6.730   1.395   6.463  0.1254 -0.2344  0.1671
 6771SOL    HW121126   6.687   1.465   6.513 -0.5927 -0.8974  0.4889
 6771SOL    HW221127   6.661   1.332   6.446  0.3776 -0.0529 -1.6450
 6772SOL     OW21128   2.940   7.483   4.045 -0.0210 -0.1179 -0.3401
 6772SOL    HW121129   2.932   7.426   4.121  2.0110 -0.2500 -0.2124
 6772SOL    HW221130   2.969   7.426   3.974 -2.5573 -0.1242 -1.4156
 6773SOL     OW21131   4.798   0.980   0.776 -0.4014 -0.9751 -0.3479
 6773SOL    HW121132   4.720   1.002   0.827 -0.3366 -0.4439 -0.4720
 6773SOL    HW221133   4.867   1.034   0.813 -0.0654 -1.5174 -0.1760
 6774SOL     OW21134   6.902   6.157   4.085 -0.2168  0.1014 -0.5335
 6774SOL    HW121135   6.990   6.191   4.096 -0.0884  0.3339 -2.3084
 6774SOL    HW221136   6.908   6.094   4.014 -0.9540 -1.8745  1.0778
 6775SOL     OW21137   5.833   6.998   1.626  0.1498 -0.1879 -0.5386
 6775SOL    HW121138   5.801   7.074   1.577 -0.8470 -0.2451 -0.0014
 6775SOL    HW221139   5.775   6.993   1.702 -0.1706 -1.8350 -0.8682
 6776SOL     OW21140   2.222   3.444   4.977  0.5266 -0.3392  0.0421
 6776SOL    HW121141   2.176   3.415   4.898 -0.4814 -0.4087  0.6424
 6776SOL    HW221142   2.219   3.368   5.035  1.2283 -0.2740  0.1759
 6777SOL     OW21143   0.389   2.171   7.538 -0.0043  0.0767  0.1871
 6777SOL    HW121144   0.379   2.266   7.545 -1.0090 -0.0814  1.0369
 6777SOL    HW221145   0.350   2.137   7.618  1.5014 -0.9902  0.4870
 6778SOL     OW21146   3.609   1.571   0.883 -0.4395 -0.2299  0.2040
 6778SOL    HW121147   3.675   1.590   0.817  1.4003 -1.0912  1.7370
 6778SOL    HW221148   3.631   1.482   0.914 -2.6659 -0.7614  0.3248
 6779SOL     OW21149   5.837   1.995   0.278 -0.3561  0.5663 -0.8181
 6779SOL    HW121150   5.913   2.048   0.253  0.1298  0.1745 -0.1606
 6779SOL    HW221151   5.844   1.984   0.372 -1.3104  0.6374 -0.7251
 6780SOL     OW21152   7.337   0.758   4.486 -0.5479 -0.4762 -0.6687
 6780SOL    HW121153   7.380   0.779   4.403  0.4114 -1.1214 -0.3278
 6780SOL    HW221154   7.377   0.677   4.515 -0.2317  0.2241  0.8911
 6781SOL     OW21155   0.029   7.101   4.279  0.3716  0.2106  0.4380
 6781SOL    HW121156   0.044   7.047   4.202 -0.7044  0.6848 -0.1123
 6781SOL    HW221157  -0.006   7.041   4.345 -1.4841  0.3506 -0.3943
 6782SOL     OW21158   3.690   2.875   0.317  0.3479  0.0369  0.7784
 6782SOL    HW121159   3.680   2.870   0.412  1.2752 -1.6460  0.7982
 6782SOL    HW221160   3.676   2.786   0.286  1.3599  0.3155 -0.5347
 6783SOL     OW21161   0.885   5.826   5.394  0.5241  0.8445 -0.5547
 6783SOL    HW121162   0.903   5.919   5.377 -1.9583  1.4986  0.1435
 6783SOL    HW221163   0.844   5.825   5.481  1.5501 -1.0480 -0.0661
 6784SOL     OW21164   0.995   7.522   5.522 -0.3496 -0.6890 -0.4782
 6784SOL    HW121165   1.013   7.464   5.449 -1.0779 -0.9441 -0.4586
 6784SOL    HW221166   0.934   7.474   5.578 -0.3206 -0.2344 -0.0411
 6785SOL     OW21167   3.145   2.949   7.667  0.1380  0.6705  0.0873
 6785SOL    HW121168   3.112   3.030   7.704  2.0846  2.4024 -1.8405
 6785SOL    HW221169   3.115   2.950   7.576 -2.0586 -2.0899  0.6979
 6786SOL     OW21170   1.709   5.343   5.499  0.2985 -0.1573 -0.2006
 6786SOL    HW121171   1.747   5.427   5.524 -1.2670  0.8708 -1.2008
 6786SOL    HW221172   1.709   5.292   5.580  0.8687  0.9441  0.5068
 6787SOL     OW21173   5.186   3.549   0.170  0.7031  0.1905  0.2646
 6787SOL    HW121174   5.159   3.547   0.078  0.4218  1.3718  0.3122
 6787SOL    HW221175   5.249   3.478   0.178  1.3247  0.5875 -1.0362
 6788SOL     OW21176   1.486   5.489   1.598 -0.1437  0.3174  0.9824
 6788SOL    HW121177   1.548   5.541   1.547  1.5761 -1.3614  1.2962
 6788SOL    HW221178   1.495   5.521   1.687 -1.0882  1.3161  0.7344
 6789SOL     OW21179   4.533   7.876   0.141  0.2605 -0.0158 -0.2634
 6789SOL    HW121180   4.547   7.794   0.093  1.8772  0.3754 -0.4764
 6789SOL    HW221181   4.458   7.857   0.198  1.6604 -2.1962  0.9264
 6790SOL     OW21182   0.001   1.131   2.925  0.2064 -0.1176  0.0961
 6790SOL    HW121183   0.082   1.149   2.879 -0.6338  0.3084 -1.2638
 6790SOL    HW221184   0.024   1.066   2.992  1.2419 -1.5605 -1.6349
 6791SOL     OW21185   7.106   5.173   3.722 -0.0440  0.1301  0.1654
 6791SOL    HW121186   7.086   5.094   3.673  1.7353  0.5571 -1.3121
 6791SOL    HW221187   7.026   5.225   3.717 -0.6096 -0.7867 -0.4139
 6792SOL     OW21188   4.275   5.772   6.980 -0.4159  0.0447 -0.1102
 6792SOL    HW121189   4.189   5.762   7.022 -0.2516  1.2712  0.5198
 6792SOL    HW221190   4.335   5.790   7.051  0.6485 -2.2816 -0.3910
 6793SOL     OW21191   2.108   7.271   1.137  0.3809 -0.2551  0.0406
 6793SOL    HW121192   2.082   7.199   1.079  0.4598  0.1161 -0.4585
 6793SOL    HW221193   2.099   7.349   1.083  0.7465  0.0636  0.4396
 6794SOL     OW21194   3.701   2.119   7.516  0.2583  0.4100  0.1634
 6794SOL    HW121195   3.716   2.192   7.456  0.1114  0.2102 -0.1159
 6794SOL    HW221196   3.787   2.105   7.558  0.3642  0.5377 -0.0098
 6795SOL     OW21197   4.482   7.342   1.838  0.3786 -0.2483  0.0857
 6795SOL    HW121198   4.496   7.366   1.746 -0.2647 -0.3931 -0.0524
 6795SOL    HW221199   4.564   7.301   1.865  0.8938  0.6333 -0.1514
 6796SOL     OW21200   3.529   2.721   5.321  0.1374 -0.3224  0.0784
 6796SOL    HW121201   3.441   2.716   5.284  0.6074 -2.3511 -0.8185
 6796SOL    HW221202   3.516   2.750   5.412 -1.3610  0.2138 -0.3024
 6797SOL     OW21203   5.384   3.979   6.708 -0.1810 -0.2183  0.1075
 6797SOL    HW121204   5.329   3.901   6.712  0.0313 -0.2958  1.4928
 6797SOL    HW221205   5.473   3.946   6.717  0.0067  0.0607 -0.6438
 6798SOL     OW21206   5.850   5.441   4.744  0.1724 -0.3689 -0.4421
 6798SOL    HW121207   5.833   5.389   4.665  0.3125  0.2456 -0.8757
 6798SOL    HW221208   5.897   5.381   4.802  0.9291 -0.5285 -1.2105
 6799SOL     OW21209   3.062   5.653   3.996  0.1609  0.2556  0.1239
 6799SOL    HW121210   3.115   5.600   3.936  1.6785 -0.3460  1.9401
 6799SOL    HW221211   3.009   5.708   3.939  0.4879 -1.3407 -1.7790
 6800SOL     OW21212   0.597   5.136   7.480 -0.1211  0.1154 -0.1730
 6800SOL    HW121213   0.659   5.177   7.540  1.3372 -2.7214  0.3482
 6800SOL    HW221214   0.629   5.160   7.392  0.4696  0.4225  0.1236
 6801SOL     OW21215   3.778   1.762   3.544  0.0766  0.1069  0.6219
 6801SOL    HW121216   3.717   1.712   3.598 -1.3188  0.5259 -0.5377
 6801SOL    HW221217   3.745   1.852   3.547  1.0991  0.4941  0.6247
 6802SOL     OW21218   3.380   4.710   1.542  0.2633 -0.2841 -0.1161
 6802SOL    HW121219   3.386   4.689   1.635 -0.6759 -1.6186 -0.3473
 6802SOL    HW221220   3.289   4.735   1.528  0.4498  0.1116 -0.6282
 6803SOL     OW21221   7.693   5.593   0.937  0.5087  0.2569 -0.0889
 6803SOL    HW121222   7.712   5.637   0.854 -1.3581 -0.7777 -1.0957
 6803SOL    HW221223   7.604   5.620   0.959  1.4714  1.6363  2.3310
 6804SOL     OW21224   2.995   6.691   4.128  0.5273 -0.0431 -0.2245
 6804SOL    HW121225   3.003   6.754   4.200  2.1408  0.5215 -0.8700
 6804SOL    HW221226   2.958   6.613   4.169 -0.7608  1.0487  0.7480
 6805SOL     OW21227   2.835   4.334   3.771 -0.3376 -0.3048  0.0211
 6805SOL    HW121228   2.920   4.307   3.736 -0.0787  0.1599  0.2893
 6805SOL    HW221229   2.832   4.295   3.858 -0.4446 -0.4108 -0.0304
 6806SOL     OW21230   1.950   3.577   3.356 -0.0372 -0.1772  0.4129
 6806SOL    HW121231   1.992   3.501   3.315 -1.0997 -0.2922 -0.4881
 6806SOL    HW221232   1.861   3.547   3.376 -0.3065  0.6778  0.4927
 6807SOL     OW21233   2.406   1.764   3.472 -0.2625 -0.0978 -0.0143
 6807SOL    HW121234   2.320   1.728   3.494  0.2800 -1.0246  0.6317
 6807SOL    HW221235   2.450   1.693   3.424 -0.3660  0.8719 -1.5816
 6808SOL     OW21236   5.866   3.922   4.838  0.2579  0.1646 -0.2454
 6808SOL    HW121237   5.945   3.886   4.797 -1.1020 -1.7106 -1.3128
 6808SOL    HW221238   5.807   3.847   4.846 -1.5448  1.5942  0.2406
 6809SOL     OW21239   1.031   2.121   5.055 -0.0365  0.0000 -0.3059
 6809SOL    HW121240   1.062   2.094   5.141  0.8687 -1.5886 -1.1181
 6809SOL    HW221241   1.001   2.211   5.067  0.6685 -0.0058  1.5145
 6810SOL     OW21242   6.900   3.162   3.930  0.2882  0.5154  0.3250
 6810SOL    HW121243   6.871   3.107   4.003  0.2133  2.6578  1.9572
 6810SOL    HW221244   6.829   3.156   3.866  0.4756 -1.6083  0.2935
 6811SOL     OW21245   1.207   4.332   4.466  0.1136 -0.5014  0.2684
 6811SOL    HW121246   1.206   4.249   4.417 -1.4399 -1.0029  1.1021
 6811SOL    HW221247   1.210   4.400   4.399 -1.5023 -1.1929 -0.5404
 6812SOL     OW21248   3.681   5.637   0.963  0.3023 -0.0002  0.4808
 6812SOL    HW121249   3.686   5.604   0.873  0.7382  0.3693  0.3689
 6812SOL    HW221250   3.639   5.723   0.954  1.1835  0.4413  0.5236
 6813SOL     OW21251   3.415   6.908   6.146 -0.6899  0.0986 -0.2089
 6813SOL    HW121252   3.401   6.988   6.097  0.1997  0.2463 -0.2298
 6813SOL    HW221253   3.510   6.901   6.155 -0.7667 -0.8522 -0.0441
 6814SOL     OW21254   0.523   6.032   1.301  0.3627  0.4209  0.4824
 6814SOL    HW121255   0.595   5.977   1.272 -0.8227 -0.6714 -0.4529
 6814SOL    HW221256   0.562   6.119   1.313  1.4551  0.2443 -1.6806
 6815SOL     OW21257   6.524   3.172   3.242  0.3438  0.9526  0.4544
 6815SOL    HW121258   6.499   3.082   3.262  0.5242  0.6180 -0.7655
 6815SOL    HW221259   6.603   3.187   3.293  0.5563  0.2754  0.3256
 6816SOL     OW21260   3.278   5.775   4.633 -0.3387  0.1573  0.2174
 6816SOL    HW121261   3.248   5.711   4.697  0.4217 -0.7126 -0.2963
 6816SOL    HW221262   3.322   5.724   4.565  1.2644  1.3071  0.3591
 6817SOL     OW21263   4.659   5.726   2.565 -0.0826  0.0991  0.4271
 6817SOL    HW121264   4.679   5.675   2.643 -0.2663  0.0968  0.4729
 6817SOL    HW221265   4.688   5.815   2.587 -0.7173  0.2393  0.7446
 6818SOL     OW21266   0.908   4.369   7.983  0.0774  0.2267 -0.5821
 6818SOL    HW121267   0.906   4.386   7.889  1.2290 -0.4552 -0.7370
 6818SOL    HW221268   0.857   4.288   7.994 -0.0774  0.3200 -0.6076
 6819SOL     OW21269   2.544   7.843   5.829 -0.4402  0.2154  0.2411
 6819SOL    HW121270   2.582   7.833   5.917 -1.8728  0.7376  0.9393
 6819SOL    HW221271   2.483   7.916   5.838 -0.8242  0.0705 -1.1246
 6820SOL     OW21272   6.799   5.735   3.878  0.3962 -0.8151 -0.3766
 6820SOL    HW121273   6.720   5.738   3.823  1.9720  0.2584 -2.6622
 6820SOL    HW221274   6.851   5.664   3.841  1.5670  0.0454 -0.3974
 6821SOL     OW21275   0.472   3.535   3.058 -0.3811 -0.0961  0.3283
 6821SOL    HW121276   0.506   3.504   3.142 -2.0290 -1.6465  0.4382
 6821SOL    HW221277   0.378   3.519   3.062 -0.7428  1.4743 -1.1213
 6822SOL     OW21278   7.643   7.623   5.038 -0.5290 -0.2650  0.2048
 6822SOL    HW121279   7.622   7.598   5.128  2.9486 -1.0445  0.8635
 6822SOL    HW221280   7.642   7.719   5.040  0.0639 -0.2715  1.2041
 6823SOL     OW21281   7.236   2.401   1.796 -0.0896 -0.0221 -0.3122
 6823SOL    HW121282   7.190   2.383   1.878  0.8740 -2.5691 -0.3081
 6823SOL    HW221283   7.328   2.404   1.821  0.0791  0.9647 -1.0326
 6824SOL     OW21284   3.831   1.640   0.746 -0.2270 -0.1825 -0.3044
 6824SOL    HW121285   3.889   1.577   0.705 -0.3680 -0.2866 -0.3452
 6824SOL    HW221286   3.876   1.666   0.827 -1.1819 -2.0109  0.8456
 6825SOL     OW21287   6.458   6.248   3.115 -0.1867 -0.0997 -0.3535
 6825SOL    HW121288   6.483   6.158   3.097  0.5512  0.2313 -0.9947
 6825SOL    HW221289   6.363   6.250   3.099 -0.2972 -0.8809  0.1918
 6826SOL     OW21290   2.263   5.871   0.364  0.3556  0.5618 -0.2554
 6826SOL    HW121291   2.270   5.839   0.274  0.5399  0.8317 -0.3373
 6826SOL    HW221292   2.341   5.836   0.408  0.6569  1.0529 -0.3935
 6827SOL     OW21293   1.858   5.278   6.296 -0.2865  0.6825  0.1214
 6827SOL    HW121294   1.882   5.292   6.205  0.1953 -0.9675 -0.0227
 6827SOL    HW221295   1.841   5.365   6.330  0.7999  1.4255 -1.1975
 6828SOL     OW21296   2.718   1.354   3.628  0.0092 -0.1847  0.7053
 6828SOL    HW121297   2.646   1.340   3.566  1.1159 -2.5560 -0.1019
 6828SOL    HW221298   2.695   1.301   3.704  1.2712 -1.6019  0.1196
 6829SOL     OW21299   3.383   4.768   7.266  0.9232 -0.0319  0.6011
 6829SOL    HW121300   3.333   4.714   7.204  0.9802 -0.6607  1.1015
 6829SOL    HW221301   3.326   4.775   7.343 -1.0976  4.4025 -1.1211
 6830SOL     OW21302   4.350   1.962   2.644  0.0820  0.1950 -0.2453
 6830SOL    HW121303   4.392   1.938   2.561 -0.9480  0.5413 -0.8718
 6830SOL    HW221304   4.337   2.056   2.638  3.4630  0.9132  1.9180
 6831SOL     OW21305   6.039   5.115   3.975 -0.7528  0.1530 -0.2221
 6831SOL    HW121306   5.986   5.084   4.048 -0.7098  1.4846  0.3970
 6831SOL    HW221307   6.089   5.189   4.011  1.1485 -0.7482 -0.9200
 6832SOL     OW21308   1.442   3.662   4.395  0.2060 -0.3583  0.0780
 6832SOL    HW121309   1.500   3.605   4.445 -0.4280 -0.8140  0.2892
 6832SOL    HW221310   1.402   3.606   4.329 -0.6581 -0.2322  0.4872
 6833SOL     OW21311   2.105   4.943   4.465  0.2649 -0.5721  0.0005
 6833SOL    HW121312   2.047   4.979   4.397 -0.0007  1.8891  1.4628
 6833SOL    HW221313   2.050   4.884   4.516 -0.6903  0.9251  0.7181
 6834SOL     OW21314   4.359   6.523   1.639  0.1579  0.6125 -0.4090
 6834SOL    HW121315   4.397   6.435   1.642  2.0166  1.3901 -0.7244
 6834SOL    HW221316   4.413   6.574   1.699 -2.8670  0.8252  2.2843
 6835SOL     OW21317   6.943   7.821   5.355 -0.0645  0.3874  0.2023
 6835SOL    HW121318   6.884   7.896   5.365 -0.5658  0.2996 -1.8728
 6835SOL    HW221319   7.023   7.860   5.319 -0.4668 -0.0909 -1.2621
 6836SOL     OW21320   7.842   4.303   1.435  0.1090 -0.1400  0.6580
 6836SOL    HW121321   7.924   4.350   1.420  0.6380 -1.0208  0.7541
 6836SOL    HW221322   7.836   4.294   1.530 -0.5931  0.7632  0.7167
 6837SOL     OW21323   7.248   7.110   4.115  0.5966 -0.2331  0.1121
 6837SOL    HW121324   7.300   7.190   4.113  0.8845 -0.4153  0.3733
 6837SOL    HW221325   7.312   7.039   4.113  0.3095 -0.4673 -1.6931
 6838SOL     OW21326   0.063   3.883   2.361  0.3177 -0.3779 -0.3483
 6838SOL    HW121327   0.083   3.917   2.449  3.2800  0.4168 -1.2832
 6838SOL    HW221328   0.093   3.792   2.363  0.7417 -0.2435 -0.6676
 6839SOL     OW21329   3.092   3.533   7.473 -1.0107  0.3791  0.0072
 6839SOL    HW121330   3.093   3.547   7.568  1.0893 -0.0107  0.0578
 6839SOL    HW221331   3.161   3.590   7.439 -0.9274 -0.3903 -1.1421
 6840SOL     OW21332   4.839   6.343   6.702 -0.1326 -0.1232  0.2896
 6840SOL    HW121333   4.866   6.340   6.794  2.2710 -0.0733 -0.3727
 6840SOL    HW221334   4.842   6.436   6.679 -1.0413 -0.1004  0.2266
 6841SOL     OW21335   2.979   6.052   7.361  0.0753 -0.1430  0.2223
 6841SOL    HW121336   3.071   6.042   7.337 -0.3536 -1.5721 -0.8450
 6841SOL    HW221337   2.980   6.121   7.428  1.9382 -0.2922  0.3845
 6842SOL     OW21338   7.712   7.627   0.277 -0.0047  0.8138  0.3551
 6842SOL    HW121339   7.703   7.692   0.208  1.0739 -0.8210 -1.4074
 6842SOL    HW221340   7.623   7.614   0.311 -0.6660  1.1235 -1.2340
 6843SOL     OW21341   0.092   4.443   2.846  0.4443 -0.3790 -0.2450
 6843SOL    HW121342   0.047   4.359   2.835 -0.0823 -0.5584  2.7783
 6843SOL    HW221343   0.185   4.421   2.834  0.1201 -0.9410 -1.7750
 6844SOL     OW21344   2.382   2.069   5.402  0.2515  0.0490 -0.1221
 6844SOL    HW121345   2.438   2.129   5.352 -0.1428  0.6601  0.1641
 6844SOL    HW221346   2.325   2.127   5.454 -0.6597 -0.5691 -0.4291
 6845SOL     OW21347   2.019   7.802   5.179 -0.2636  0.3086 -0.6384
 6845SOL    HW121348   1.966   7.834   5.105 -0.4741 -1.8430 -1.4575
 6845SOL    HW221349   1.994   7.710   5.188  1.4440 -0.0493  0.6592
 6846SOL     OW21350   1.799   4.720   2.367  0.2021 -0.2521  0.1188
 6846SOL    HW121351   1.828   4.808   2.341  0.8293 -0.6531 -0.5641
 6846SOL    HW221352   1.735   4.696   2.301 -1.1593  0.3235  1.2001
 6847SOL     OW21353   2.038   7.772   7.473 -0.1460  0.0121 -0.2459
 6847SOL    HW121354   2.015   7.738   7.387 -2.0475  0.5461  0.0361
 6847SOL    HW221355   1.957   7.810   7.506  0.9839  1.2909  1.0911
 6848SOL     OW21356   7.267   4.691   6.111  0.1906  0.0413  0.1129
 6848SOL    HW121357   7.309   4.774   6.089  0.6869 -0.1916  0.1619
 6848SOL    HW221358   7.180   4.715   6.141  0.5471  0.5973  0.7271
 6849SOL     OW21359   1.530   0.345   6.213 -0.2654 -0.3375  0.0559
 6849SOL    HW121360   1.491   0.265   6.249  0.9534 -1.8150 -1.7637
 6849SOL    HW221361   1.607   0.362   6.268  0.0828 -1.0622 -0.1951
 6850SOL     OW21362   6.081   5.586   0.614 -0.0468 -0.7014 -0.2941
 6850SOL    HW121363   6.070   5.663   0.670  3.4673  0.5807 -1.2192
 6850SOL    HW221364   6.072   5.512   0.673 -3.8827  0.3012  0.5520
 6851SOL     OW21365   7.350   0.613   7.710 -0.4834 -0.5492 -0.2078
 6851SOL    HW121366   7.338   0.526   7.749 -0.7034 -0.4318 -0.0076
 6851SOL    HW221367   7.340   0.673   7.784  0.6587 -0.4016 -0.1658
 6852SOL     OW21368   2.483   3.039   0.955 -0.3199  0.1729  0.6638
 6852SOL    HW121369   2.412   2.976   0.968  0.6621 -1.2956 -0.8439
 6852SOL    HW221370   2.556   3.004   1.007  0.9075 -1.1700 -1.8268
 6853SOL     OW21371   2.791   4.428   6.441 -0.1873 -0.1033  0.1306
 6853SOL    HW121372   2.731   4.371   6.488  0.7679 -0.8504  0.4727
 6853SOL    HW221373   2.739   4.464   6.369 -0.3824 -2.7197 -1.1063
 6854SOL     OW21374   2.819   7.005   1.073  0.0576  0.0105  0.3159
 6854SOL    HW121375   2.753   6.938   1.053  1.3806 -0.5222 -2.5198
 6854SOL    HW221376   2.781   7.086   1.038 -0.3077  0.2102  1.1823
 6855SOL     OW21377   1.447   2.716   0.036  0.4237  0.1030 -0.3097
 6855SOL    HW121378   1.460   2.739  -0.056  1.3628  3.3745  0.5684
 6855SOL    HW221379   1.371   2.657   0.035  1.4919 -1.3216 -3.3079
 6856SOL     OW21380   1.646   7.066   3.106 -0.0798 -0.0606  0.9652
 6856SOL    HW121381   1.609   7.030   3.187  0.4498  1.0359  1.6993
 6856SOL    HW221382   1.569   7.092   3.054 -0.4167 -0.6430  1.1732
 6857SOL     OW21383   0.669   2.368   1.233  0.0800  0.3390 -0.2380
 6857SOL    HW121384   0.658   2.451   1.280 -1.2103 -0.4201  0.8194
 6857SOL    HW221385   0.716   2.312   1.294 -0.9746 -0.4153 -0.1156
 6858SOL     OW21386   4.292   3.189   2.752 -0.5799 -0.3807  0.6201
 6858SOL    HW121387   4.387   3.181   2.761 -0.6668 -0.5927  1.4498
 6858SOL    HW221388   4.278   3.230   2.667  0.2197 -1.1774  0.1030
 6859SOL     OW21389   2.568   4.819   6.412  0.0637 -0.1970  0.4091
 6859SOL    HW121390   2.498   4.884   6.406 -0.0404 -0.4133 -0.9164
 6859SOL    HW221391   2.648   4.870   6.425 -0.0229  0.2031 -0.5633
 6860SOL     OW21392   5.375   1.274   6.235  0.1019 -0.7239  0.1350
 6860SOL    HW121393   5.350   1.183   6.254 -1.2722 -0.9685 -2.6769
 6860SOL    HW221394   5.323   1.298   6.159  0.7055  2.3430  0.6216
 6861SOL     OW21395   1.692   6.309   1.789 -0.2223 -0.4854 -0.0434
 6861SOL    HW121396   1.773   6.358   1.771 -1.3991  0.7784 -2.0853
 6861SOL    HW221397   1.657   6.349   1.869 -1.5145  2.5803 -2.0380
 6862SOL     OW21398   2.116   4.887   6.944  0.8829 -0.0581 -0.1609
 6862SOL    HW121399   2.083   4.952   6.882  0.5275 -0.2589 -0.1856
 6862SOL    HW221400   2.083   4.803   6.911 -0.6488 -0.0033  1.1597
 6863SOL     OW21401   6.055   2.040   3.100 -0.1309 -0.0708  0.3390
 6863SOL    HW121402   6.082   2.131   3.085  0.0275 -0.3189 -0.9242
 6863SOL    HW221403   6.057   2.030   3.195 -2.0665  1.8350  0.6150
 6864SOL     OW21404   6.947   5.810   2.410  0.6756  0.3669 -0.2264
 6864SOL    HW121405   7.021   5.798   2.350  0.7734  0.6894 -0.1708
 6864SOL    HW221406   6.950   5.733   2.467  0.5524  0.0338 -0.6634
 6865SOL     OW21407   3.852   5.517   0.413  0.1868  0.2527  0.5275
 6865SOL    HW121408   3.841   5.422   0.412 -0.1841  0.2508  2.6817
 6865SOL    HW221409   3.877   5.539   0.323 -1.5804 -1.6501 -0.4795
 6866SOL     OW21410   5.589   6.907   6.188  0.4835 -0.3224 -0.0239
 6866SOL    HW121411   5.578   6.856   6.268 -1.9283  1.5172  0.8826
 6866SOL    HW221412   5.517   6.880   6.131  0.4400  0.5049 -0.3784
 6867SOL     OW21413   7.678   3.589   5.336 -0.1534 -0.0878  0.3231
 6867SOL    HW121414   7.633   3.587   5.420 -0.7934 -0.2293 -0.0190
 6867SOL    HW221415   7.617   3.634   5.277  0.5793  0.6281  0.1008
 6868SOL     OW21416   6.427   6.577   4.122 -0.2341  0.0044  0.4442
 6868SOL    HW121417   6.361   6.621   4.176 -0.4181 -0.7094  0.8134
 6868SOL    HW221418   6.422   6.622   4.038 -0.5122  0.5994  0.7692
 6869SOL     OW21419   6.149   2.129   3.792 -0.1113 -0.1945  0.3449
 6869SOL    HW121420   6.153   2.038   3.820  0.1505  0.1160  1.3471
 6869SOL    HW221421   6.231   2.144   3.745 -0.8417 -0.9029 -1.1692
 6870SOL     OW21422   4.861   7.448   0.411  0.0595  0.3043  0.0781
 6870SOL    HW121423   4.868   7.376   0.349 -1.5215  1.1952 -1.1663
 6870SOL    HW221424   4.806   7.414   0.481 -0.6683  0.3013 -0.4980
 6871SOL     OW21425   3.366   3.909   4.167 -0.3793  0.4340 -0.5863
 6871SOL    HW121426   3.300   3.967   4.207 -2.1493 -1.3005 -0.9396
 6871SOL    HW221427   3.429   3.893   4.238 -2.1644 -0.6046  0.8172
 6872SOL     OW21428   3.372   5.458   1.598 -0.0027  0.0900  0.9285
 6872SOL    HW121429   3.444   5.440   1.659  2.7717  2.3400 -1.4945
 6872SOL    HW221430   3.341   5.545   1.622 -0.0098  0.2871  0.2293
 6873SOL     OW21431   3.846   2.945   7.870 -0.2746  0.1096  0.6338
 6873SOL    HW121432   3.811   2.860   7.843 -1.6679  0.8848 -0.0741
 6873SOL    HW221433   3.891   2.928   7.953  2.7957 -2.0459 -1.3481
 6874SOL     OW21434   1.214   5.009   6.889  0.4330  0.1118 -0.6749
 6874SOL    HW121435   1.137   4.981   6.841 -1.0751  2.9273  0.0203
 6874SOL    HW221436   1.242   4.931   6.938 -0.1026 -1.7713 -3.2880
 6875SOL     OW21437   4.429   4.639   2.673 -0.1535 -0.5719 -0.2712
 6875SOL    HW121438   4.457   4.711   2.616  0.8636 -1.1850 -0.5830
 6875SOL    HW221439   4.407   4.569   2.612 -2.3486 -0.1251 -0.0133
 6876SOL     OW21440   7.516   7.206   1.388  0.3212 -0.2265  0.1226
 6876SOL    HW121441   7.475   7.233   1.470 -0.3710 -2.7496  0.6555
 6876SOL    HW221442   7.443   7.202   1.326  0.8232  1.5534 -0.6395
 6877SOL     OW21443   2.403   2.430   2.305 -0.4678  0.5143 -0.2896
 6877SOL    HW121444   2.466   2.464   2.241 -0.1938  0.1305 -0.2227
 6877SOL    HW221445   2.318   2.456   2.271 -0.2436  1.5095 -0.1041
 6878SOL     OW21446   6.994   5.263   0.999  0.2859  0.0449  0.0711
 6878SOL    HW121447   7.065   5.218   1.044 -0.3347 -1.3958 -0.3574
 6878SOL    HW221448   7.016   5.356   1.006  1.5317 -0.3121  1.0619
 6879SOL     OW21449   2.432   6.645   6.416  0.2363 -0.5612 -0.3184
 6879SOL    HW121450   2.422   6.565   6.468 -1.2775  0.0051  0.2982
 6879SOL    HW221451   2.498   6.696   6.463 -0.1546 -0.6348  0.3192
 6880SOL     OW21452   0.952   6.939   0.630 -0.6558  0.4564  0.0183
 6880SOL    HW121453   0.909   6.855   0.615 -0.4944  0.6465 -1.6065
 6880SOL    HW221454   0.880   7.002   0.639 -0.7656  0.2325  0.7613
 6881SOL     OW21455   6.520   3.988   0.402 -0.2975  0.0789 -0.0836
 6881SOL    HW121456   6.527   3.904   0.446 -0.2493  1.4297  2.5759
 6881SOL    HW221457   6.565   4.050   0.460 -0.9103  2.0510 -1.6430
 6882SOL     OW21458   1.212   7.490   3.860 -0.5409 -0.1237 -0.1970
 6882SOL    HW121459   1.178   7.403   3.840 -1.6354  0.4836 -1.0942
 6882SOL    HW221460   1.137   7.549   3.846  0.3639  1.0338 -0.3166
 6883SOL     OW21461   5.530   6.458   6.338  0.1172 -0.5510  0.1961
 6883SOL    HW121462   5.453   6.487   6.288 -0.4454 -2.5602 -0.1498
 6883SOL    HW221463   5.601   6.456   6.273 -0.0178 -0.6713  0.0515
 6884SOL     OW21464   3.274   5.483   0.588 -0.1667  0.0081  0.1809
 6884SOL    HW121465   3.188   5.443   0.574  0.3170 -1.2022  0.5442
 6884SOL    HW221466   3.256   5.562   0.639 -1.2445  0.8372 -1.4448
 6885SOL     OW21467   3.566   6.045   3.093 -0.4759 -0.6384 -0.4101
 6885SOL    HW121468   3.523   6.111   3.038 -0.9281  0.4354  1.2026
 6885SOL    HW221469   3.660   6.062   3.082 -0.6048  0.9939  0.8358
 6886SOL     OW21470   0.572   0.685   2.852 -0.5906  0.2303 -0.0592
 6886SOL    HW121471   0.517   0.639   2.788  2.5593 -0.0795 -2.6441
 6886SOL    HW221472   0.583   0.772   2.815  1.1829  0.0764  0.0872
 6887SOL     OW21473   2.913   7.761   6.219 -0.8848 -0.0138  0.6532
 6887SOL    HW121474   2.993   7.804   6.189 -2.9642  2.2396 -1.9105
 6887SOL    HW221475   2.943   7.676   6.251  2.2941 -0.0760 -2.1516
 6888SOL     OW21476   4.348   0.528   1.014  0.2511  0.2422  0.0083
 6888SOL    HW121477   4.327   0.585   0.940  0.4970  0.6744  0.2699
 6888SOL    HW221478   4.267   0.524   1.065 -0.3685 -1.2376 -1.0572
 6889SOL     OW21479   1.596   2.959   3.365  0.0452  0.0169  0.0698
 6889SOL    HW121480   1.677   2.939   3.319  0.2499 -0.6045  0.6853
 6889SOL    HW221481   1.558   2.873   3.385 -0.5120  0.2963  0.2098
 6890SOL     OW21482   4.527   2.923   0.968 -0.7454 -0.2454  0.5183
 6890SOL    HW121483   4.554   2.838   0.935  1.1388  0.3443  0.4416
 6890SOL    HW221484   4.447   2.906   1.017 -0.4075 -2.0431  0.4799
 6891SOL     OW21485   7.511   5.824   3.389 -0.0735 -0.2566 -0.0637
 6891SOL    HW121486   7.426   5.800   3.426  0.0282 -1.9911 -0.9182
 6891SOL    HW221487   7.494   5.844   3.298  0.4221 -0.5707 -0.2294
 6892SOL     OW21488   7.498   2.104   1.112  0.3230 -0.6204  0.0993
 6892SOL    HW121489   7.533   2.186   1.147  1.0373  0.6103 -3.2503
 6892SOL    HW221490   7.575   2.050   1.095  0.0830 -0.7269 -0.6555
 6893SOL     OW21491   5.994   0.581   7.479 -0.2859 -0.4021 -0.2158
 6893SOL    HW121492   6.081   0.547   7.458 -0.8504 -0.9738 -1.6867
 6893SOL    HW221493   6.011   0.665   7.522  1.0840 -1.8464  2.2566
 6894SOL     OW21494   0.506   7.684   7.814  0.2353  0.0244  0.5370
 6894SOL    HW121495   0.439   7.616   7.826  0.3908 -0.1417  0.4540
 6894SOL    HW221496   0.585   7.636   7.792  0.9914  0.0421  3.0166
 6895SOL     OW21497   6.474   7.221   3.688  0.0689  0.1072 -0.1482
 6895SOL    HW121498   6.446   7.224   3.597  0.8234 -0.6054 -0.4184
 6895SOL    HW221499   6.538   7.292   3.696  1.7281 -1.2911 -0.7938
 6896SOL     OW21500   0.092   4.931   3.305 -0.0912  0.3664  0.3504
 6896SOL    HW121501   0.178   4.948   3.343 -0.2708  1.0159  0.4688
 6896SOL    HW221502   0.059   5.018   3.281  1.0181 -0.1756 -3.4711
 6897SOL     OW21503   2.779   5.285   5.855 -0.0810  0.0653  0.0272
 6897SOL    HW121504   2.793   5.339   5.933 -0.5116 -1.7017  1.3671
 6897SOL    HW221505   2.861   5.292   5.806  0.2359  1.0885  0.6845
 6898SOL     OW21506   0.947   4.273   6.913 -0.5907 -0.1779 -0.0784
 6898SOL    HW121507   0.970   4.257   6.822 -0.9504 -0.7383 -0.0714
 6898SOL    HW221508   0.880   4.342   6.909  0.9446  1.3462 -0.1045
 6899SOL     OW21509   3.398   4.951   0.242  0.1006 -0.3661  0.2556
 6899SOL    HW121510   3.460   4.964   0.314  1.0157  1.9557 -0.8949
 6899SOL    HW221511   3.453   4.936   0.165 -0.8242 -0.4731 -0.3935
 6900SOL     OW21512   7.279   7.031   7.204  0.4072 -0.7785 -0.4193
 6900SOL    HW121513   7.372   7.052   7.213  0.6988 -2.8281  1.9035
 6900SOL    HW221514   7.242   7.047   7.291 -1.6272  0.8611 -1.5364
 6901SOL     OW21515   6.948   0.843   5.910  0.1116  0.3100  0.5137
 6901SOL    HW121516   6.875   0.864   5.968  0.3854  0.1696  0.9106
 6901SOL    HW221517   7.025   0.845   5.967  0.4317  0.5682  0.0765
 6902SOL     OW21518   0.375   2.765   5.630  0.5523 -0.3908  0.4456
 6902SOL    HW121519   0.331   2.807   5.555  0.0198 -1.6301  0.0476
 6902SOL    HW221520   0.317   2.693   5.654  0.6813  0.0465  2.1243
 6903SOL     OW21521   7.590   7.583   6.563 -0.1863 -0.0544 -0.1871
 6903SOL    HW121522   7.585   7.594   6.657 -0.0996 -0.7268 -0.1004
 6903SOL    HW221523   7.503   7.605   6.531 -0.4327 -0.5677  0.1313
 6904SOL     OW21524   0.858   7.202   5.320 -0.6298  0.6424  0.5412
 6904SOL    HW121525   0.839   7.157   5.238  0.0635  1.4030 -0.0459
 6904SOL    HW221526   0.912   7.277   5.295  1.3615 -0.2767  1.9012
 6905SOL     OW21527   0.998   7.443   0.140 -0.0115 -0.0901 -0.7957
 6905SOL    HW121528   0.908   7.433   0.108 -0.0128 -0.1804 -0.7659
 6905SOL    HW221529   0.990   7.494   0.220  0.1168  1.2572 -1.6232
 6906SOL     OW21530   6.018   3.060   6.421 -0.2214 -0.2472  0.1206
 6906SOL    HW121531   6.006   3.052   6.326  0.7566 -0.5526  0.0190
 6906SOL    HW221532   6.092   3.121   6.430 -0.9757  0.5956  0.7068
 6907SOL     OW21533   3.311   4.930   3.139 -0.5477 -0.2632 -0.1479
 6907SOL    HW121534   3.310   4.996   3.209  0.9386  0.6596 -0.9687
 6907SOL    HW221535   3.395   4.885   3.149  0.0495  0.4131 -1.7848
 6908SOL     OW21536   2.675   6.847   7.451  0.3011  0.6555 -0.3963
 6908SOL    HW121537   2.758   6.845   7.500  0.7736 -0.4228 -1.1989
 6908SOL    HW221538   2.612   6.883   7.512  0.9271 -0.4464  0.9462
 6909SOL     OW21539   2.765   1.805   7.849  0.4586 -0.2037 -0.3335
 6909SOL    HW121540   2.749   1.873   7.915  0.7266 -0.0154 -0.4588
 6909SOL    HW221541   2.798   1.853   7.773  2.7972 -0.6710  0.3352
 6910SOL     OW21542   6.210   5.572   0.964 -0.1528  0.3707 -0.3612
 6910SOL    HW121543   6.129   5.607   0.926  1.0636  2.4337 -1.1760
 6910SOL    HW221544   6.280   5.616   0.915  1.4625  0.3863  1.8850
 6911SOL     OW21545   5.580   0.166   3.586  0.1807 -0.3338  0.1214
 6911SOL    HW121546   5.591   0.234   3.520  0.8391  1.6630  2.2273
 6911SOL    HW221547   5.530   0.098   3.542  0.3452  1.0747 -2.3314
 6912SOL     OW21548   2.971   0.221   3.030  0.3033  0.1913  0.0705
 6912SOL    HW121549   2.920   0.292   2.992 -0.8007 -1.1969 -1.1309
 6912SOL    HW221550   2.970   0.238   3.124 -0.5042  1.3876 -0.1426
 6913SOL     OW21551   6.946   0.510   4.412 -0.2839 -0.0473  0.2816
 6913SOL    HW121552   7.040   0.521   4.400  0.0791 -1.5129  1.6745
 6913SOL    HW221553   6.935   0.488   4.505 -1.9737 -0.1042  0.0971
 6914SOL     OW21554   7.608   6.239   2.265 -0.0189 -0.0098 -0.1311
 6914SOL    HW121555   7.598   6.144   2.251 -0.1944 -0.1757  1.0305
 6914SOL    HW221556   7.603   6.277   2.178  0.2854 -1.0984 -0.6321
 6915SOL     OW21557   6.541   5.635   2.195 -0.1376 -0.3032  0.0227
 6915SOL    HW121558   6.499   5.553   2.169 -0.2493  0.3491 -1.9149
 6915SOL    HW221559   6.480   5.675   2.257 -0.4929 -1.2628  0.3042
 6916SOL     OW21560   2.191   2.540   1.878  0.3935 -0.7016  0.3146
 6916SOL    HW121561   2.144   2.590   1.811  0.7373 -1.1570 -0.2728
 6916SOL    HW221562   2.245   2.479   1.828  0.1582 -1.4966  1.0194
 6917SOL     OW21563   0.659   7.960   1.493 -0.3196 -0.4089 -0.0016
 6917SOL    HW121564   0.723   7.977   1.424 -0.5850 -3.7181 -1.1926
 6917SOL    HW221565   0.574   7.970   1.450 -0.5375  0.3540  0.6040
 6918SOL     OW21566   0.340   2.858   0.472 -0.3636 -0.0880 -0.1310
 6918SOL    HW121567   0.291   2.900   0.401 -1.7344 -0.1963  0.7280
 6918SOL    HW221568   0.331   2.918   0.546 -0.7304 -0.9827  0.5587
 6919SOL     OW21569   0.621   3.422   1.905  0.2997  0.3972  0.0108
 6919SOL    HW121570   0.585   3.335   1.891 -0.8086  0.8081  0.2254
 6919SOL    HW221571   0.676   3.438   1.828 -0.5167  0.0193 -0.6643
 6920SOL     OW21572   0.763   1.421   0.591  0.1216 -0.2178 -0.2914
 6920SOL    HW121573   0.803   1.480   0.655 -1.5355  0.4057  0.2061
 6920SOL    HW221574   0.778   1.333   0.626  0.3377  0.0530  0.3071
 6921SOL     OW21575   1.493   4.057   5.533  0.1106  0.1991 -0.2631
 6921SOL    HW121576   1.420   4.057   5.595 -0.8743  0.9094 -1.4061
 6921SOL    HW221577   1.555   4.120   5.569  0.4419 -0.8241  1.0142
 6922SOL     OW21578   2.867   0.048   3.296 -0.5968  0.1925  0.0051
 6922SOL    HW121579   2.907  -0.011   3.232 -0.1355 -0.7170  1.1111
 6922SOL    HW221580   2.923   0.041   3.373 -1.8842  0.2943  0.9622
 6923SOL     OW21581   2.671   5.701   4.298  0.3435 -0.3751 -0.1601
 6923SOL    HW121582   2.642   5.792   4.292  0.3781 -0.4661 -1.7706
 6923SOL    HW221583   2.610   5.653   4.242  0.0408 -1.4281  1.0397
 6924SOL     OW21584   5.361   7.142   7.020 -0.0526 -0.5335  0.0538
 6924SOL    HW121585   5.300   7.217   7.021 -0.3272 -0.7607  1.0035
 6924SOL    HW221586   5.393   7.136   7.110  1.1340 -0.6208 -0.3768
 6925SOL     OW21587   7.292   6.072   6.867 -0.2172 -0.5021  0.0646
 6925SOL    HW121588   7.229   6.004   6.892  0.2118 -0.8122  0.3188
 6925SOL    HW221589   7.295   6.131   6.943 -1.6329  0.5849 -0.7096
 6926SOL     OW21590   4.057   4.965   1.690  0.3023  0.5862  0.0827
 6926SOL    HW121591   4.069   4.961   1.595  0.6547  0.1255  0.1401
 6926SOL    HW221592   3.976   5.014   1.703  1.1924  2.1999 -0.3930
 6927SOL     OW21593   3.794   6.192   3.048 -0.1130  0.5850  0.1505
 6927SOL    HW121594   3.784   6.285   3.069  1.1795  1.1629 -1.7247
 6927SOL    HW221595   3.851   6.158   3.117  1.6309  1.7991 -0.6651
 6928SOL     OW21596   3.502   2.457   2.401  0.2837  0.0729 -0.1700
 6928SOL    HW121597   3.501   2.369   2.364  1.1944  0.5052 -1.2507
 6928SOL    HW221598   3.506   2.515   2.325 -0.4150  1.0587  0.5249
 6929SOL     OW21599   1.358   7.478   6.862  0.3264  0.3102  0.1643
 6929SOL    HW121600   1.285   7.488   6.923 -1.2709  0.3115 -1.6928
 6929SOL    HW221601   1.386   7.387   6.872 -1.2384 -0.2581 -0.5240
 6930SOL     OW21602   7.422   4.936   7.807  0.7954  0.6079 -0.5915
 6930SOL    HW121603   7.328   4.921   7.819  1.2787 -0.3225  2.5521
 6930SOL    HW221604   7.439   4.916   7.715 -2.1953  1.4699 -1.3665
 6931SOL     OW21605   0.848   6.657   0.998  0.0448 -0.1282 -0.5982
 6931SOL    HW121606   0.787   6.596   0.957  0.3823 -0.6098 -0.3827
 6931SOL    HW221607   0.901   6.603   1.056  1.5191  0.0628 -1.7361
 6932SOL     OW21608   2.970   5.952   3.188 -0.0920  0.1263 -0.5986
 6932SOL    HW121609   2.981   5.863   3.157  0.9196 -0.4275  1.2546
 6932SOL    HW221610   2.920   5.996   3.119 -1.6262 -2.1704 -1.0108
 6933SOL     OW21611   4.617   0.069   3.756 -1.0115 -0.1958 -0.1800
 6933SOL    HW121612   4.523   0.062   3.743 -1.2467 -0.1614  1.3222
 6933SOL    HW221613   4.651  -0.018   3.736 -1.5260 -0.5441  0.4606
 6934SOL     OW21614   7.892   6.698   3.067 -0.3903 -0.1359  0.5468
 6934SOL    HW121615   7.935   6.773   3.025 -0.3253  0.6429  1.9620
 6934SOL    HW221616   7.936   6.690   3.152 -1.4293 -0.8317  1.0263
 6935SOL     OW21617   6.291   5.638   3.730  0.1457  0.0728  0.0879
 6935SOL    HW121618   6.267   5.567   3.671  1.5573  1.7079 -2.5268
 6935SOL    HW221619   6.207   5.669   3.765 -0.6891 -1.0345 -0.9011
 6936SOL     OW21620   2.311   7.038   0.294 -0.1468 -0.4271  0.2898
 6936SOL    HW121621   2.333   6.985   0.370  2.6573  0.4289  0.1644
 6936SOL    HW221622   2.358   7.121   0.309 -1.4895  0.6386 -1.2275
 6937SOL     OW21623   2.108   6.602   3.489 -0.4739  0.0382 -0.1698
 6937SOL    HW121624   2.022   6.609   3.449  0.7575 -0.3735 -2.9614
 6937SOL    HW221625   2.131   6.692   3.513 -2.5823 -0.1165  2.6495
 6938SOL     OW21626   2.321   4.438   7.961  0.3242 -0.3105  0.3005
 6938SOL    HW121627   2.342   4.478   8.045 -0.2948  2.0965 -0.6629
 6938SOL    HW221628   2.225   4.435   7.959  0.2942  1.1327 -0.9932
 6939SOL     OW21629   1.895   4.544   3.349  0.6186  0.6083  0.6356
 6939SOL    HW121630   1.948   4.599   3.291  1.0238 -2.2728 -1.8569
 6939SOL    HW221631   1.959   4.489   3.395  0.0212 -0.5254  0.1358
 6940SOL     OW21632   5.333   0.040   2.291 -0.4131 -0.3685 -0.1109
 6940SOL    HW121633   5.355   0.129   2.262  2.7543 -0.5351  1.5424
 6940SOL    HW221634   5.289   0.000   2.216 -1.3798  2.3919 -1.0707
 6941SOL     OW21635   2.233   6.588   6.975 -0.2280 -0.0649 -0.2119
 6941SOL    HW121636   2.145   6.581   6.939 -0.5988 -0.5167  0.7456
 6941SOL    HW221637   2.220   6.628   7.061  0.4623 -0.4306  0.0648
 6942SOL     OW21638   1.334   0.010   6.620 -0.0173 -0.6507 -0.3816
 6942SOL    HW121639   1.246  -0.020   6.595 -0.4119 -0.8802  1.2782
 6942SOL    HW221640   1.325   0.039   6.710  1.8279 -1.5393  0.1012
 6943SOL     OW21641   3.626   2.453   4.379  0.1030  0.9715 -0.7477
 6943SOL    HW121642   3.643   2.435   4.472 -1.1623  0.2140 -0.6444
 6943SOL    HW221643   3.649   2.545   4.368 -0.4795  1.2874  0.5221
 6944SOL     OW21644   3.531   1.955   6.472  0.4347 -0.0075 -0.9272
 6944SOL    HW121645   3.534   1.916   6.384 -2.8977  0.3845 -1.2806
 6944SOL    HW221646   3.516   1.880   6.531 -0.3235  0.0734 -1.0147
 6945SOL     OW21647   0.412   3.676   6.926  0.0658  0.1871  0.1172
 6945SOL    HW121648   0.502   3.656   6.901  1.0738  2.8647  1.3157
 6945SOL    HW221649   0.390   3.610   6.992  0.1687 -2.0835 -2.0627
 6946SOL     OW21650   4.534   1.046   4.019 -0.0303 -0.2858  0.0942
 6946SOL    HW121651   4.577   1.066   3.936 -1.2767 -0.5023 -0.6078
 6946SOL    HW221652   4.442   1.067   4.004 -0.6946 -2.6719  0.6361
 6947SOL     OW21653   0.479   5.870   4.354 -0.1199  0.5000  0.1350
 6947SOL    HW121654   0.491   5.822   4.436  0.1363 -0.0909 -0.2439
 6947SOL    HW221655   0.454   5.958   4.381  1.1795  0.6516  0.8775
 6948SOL     OW21656   7.088   3.197   2.676 -0.7270  0.0391  0.2607
 6948SOL    HW121657   7.037   3.117   2.685  0.1511 -0.5507  0.0769
 6948SOL    HW221658   7.179   3.169   2.690 -0.4268  1.0205  0.3179
 6949SOL     OW21659   1.350   5.539   3.629 -0.2919 -0.2564  0.9634
 6949SOL    HW121660   1.287   5.474   3.659  2.7284 -2.6287  2.4121
 6949SOL    HW221661   1.403   5.559   3.706  0.9501  1.4705 -0.2791
 6950SOL     OW21662   2.186   5.225   4.164  0.0356  0.0596  0.0461
 6950SOL    HW121663   2.111   5.174   4.194  0.3629  0.2165  1.1373
 6950SOL    HW221664   2.249   5.220   4.236  0.4445  1.2275 -0.2307
 6951SOL     OW21665   1.565   4.287   2.439  0.2371 -0.2549 -0.0117
 6951SOL    HW121666   1.522   4.249   2.362  2.1113  1.2764 -1.8698
 6951SOL    HW221667   1.658   4.267   2.427  0.5706  0.1185  1.8060
 6952SOL     OW21668   0.945   2.353   2.328  0.0183 -0.0960  0.6399
 6952SOL    HW121669   1.002   2.388   2.260  0.8121  0.5832  1.6343
 6952SOL    HW221670   0.860   2.395   2.313  0.5300  1.0291  0.8453
 6953SOL     OW21671   3.290   5.863   7.887 -0.0513  0.2466  0.1936
 6953SOL    HW121672   3.206   5.820   7.904 -0.0189 -0.2750 -0.8738
 6953SOL    HW221673   3.274   5.916   7.809  0.6227  0.0926 -0.0534
 6954SOL     OW21674   3.362   4.654   0.179  0.0226 -0.5078 -0.2214
 6954SOL    HW121675   3.378   4.655   0.274  0.1733  0.5611 -0.2480
 6954SOL    HW221676   3.438   4.610   0.142  1.5542  1.9867 -0.1123
 6955SOL     OW21677   2.234   5.499   2.628  0.1819  0.0072 -0.0788
 6955SOL    HW121678   2.292   5.498   2.704  0.0404 -0.4213  0.0260
 6955SOL    HW221679   2.158   5.549   2.657 -0.5340 -1.4368  0.5636
 6956SOL     OW21680   5.779   7.422   4.543  0.3918 -0.1123  0.0946
 6956SOL    HW121681   5.684   7.417   4.557  0.3148  0.7869 -0.0726
 6956SOL    HW221682   5.816   7.367   4.612 -0.2638 -0.8138 -0.0956
 6957SOL     OW21683   0.303   1.037   7.814 -0.5065 -0.2198 -0.0000
 6957SOL    HW121684   0.248   0.971   7.771  0.5422 -0.7846 -0.5147
 6957SOL    HW221685   0.325   0.998   7.899 -1.5147  0.3323  0.5150
 6958SOL     OW21686   0.470   3.484   1.381  0.2924  0.1393  0.1821
 6958SOL    HW121687   0.465   3.560   1.323 -1.1593 -0.4775 -0.5282
 6958SOL    HW221688   0.522   3.420   1.332 -1.2408 -0.5175 -0.6316
 6959SOL     OW21689   7.472   3.058   3.483 -0.1862  0.3209  0.1439
 6959SOL    HW121690   7.457   3.102   3.399 -0.7329  1.8975  1.0389
 6959SOL    HW221691   7.384   3.040   3.516  0.0256 -1.7122 -0.3115
 6960SOL     OW21692   5.746   6.145   0.210  0.1158 -0.1129 -0.3895
 6960SOL    HW121693   5.694   6.205   0.264 -0.4341  0.1647 -1.2249
 6960SOL    HW221694   5.829   6.137   0.257  0.1998  1.3049 -0.2639
 6961SOL     OW21695   5.246   6.093   7.398 -0.2660  0.3759  0.1312
 6961SOL    HW121696   5.250   6.174   7.348  1.3298  0.0994 -0.2317
 6961SOL    HW221697   5.157   6.089   7.432 -0.8420  1.4300 -1.2437
 6962SOL     OW21698   5.056   5.478   0.482 -0.2112  0.3160  0.1882
 6962SOL    HW121699   5.017   5.440   0.560  2.0339  0.1225  1.2761
 6962SOL    HW221700   5.045   5.572   0.492 -1.5070  0.2005 -0.1437
 6963SOL     OW21701   1.413   3.033   4.049  0.2087 -0.1118 -0.2103
 6963SOL    HW121702   1.351   2.966   4.076  1.1092 -0.1762  1.7749
 6963SOL    HW221703   1.487   2.985   4.013  0.5708 -0.1538  0.5956
 6964SOL     OW21704   5.931   2.687   6.299  0.3824  0.6208  0.6362
 6964SOL    HW121705   5.870   2.760   6.291  1.5631  1.6508  0.9124
 6964SOL    HW221706   5.893   2.631   6.366  0.0023  1.5049  1.1671
 6965SOL     OW21707   6.595   2.038   6.372  0.4572 -0.0159 -0.1679
 6965SOL    HW121708   6.651   2.109   6.340  1.3457 -0.3753  0.5502
 6965SOL    HW221709   6.599   2.046   6.467 -0.2121 -0.4351 -0.1082
 6966SOL     OW21710   0.867   2.238   4.782  0.0712  0.1858 -0.2459
 6966SOL    HW121711   0.862   2.283   4.866 -0.8554 -1.4538  0.6078
 6966SOL    HW221712   0.961   2.229   4.765  0.2741 -0.1645  1.0013
 6967SOL     OW21713   7.831   2.297   4.119  0.0854 -0.1616  0.1238
 6967SOL    HW121714   7.766   2.303   4.189 -1.1392  2.9160 -1.2339
 6967SOL    HW221715   7.782   2.272   4.041  0.9889 -0.6408 -0.3093
 6968SOL     OW21716   6.522   1.328   5.681 -0.2609  0.5838 -0.4482
 6968SOL    HW121717   6.486   1.322   5.769 -1.8330  2.5502 -0.9302
 6968SOL    HW221718   6.538   1.237   5.655 -0.8679 -0.0674  1.4133
 6969SOL     OW21719   3.103   0.961   5.583  0.2731 -0.4624 -0.1915
 6969SOL    HW121720   3.022   0.957   5.634  0.3583  1.2556  0.1008
 6969SOL    HW221721   3.173   0.961   5.648  0.4506 -0.2367 -0.3812
 6970SOL     OW21722   2.265   1.708   4.290 -0.4477  0.0183 -0.2785
 6970SOL    HW121723   2.198   1.698   4.357 -0.5702 -0.2667 -0.4438
 6970SOL    HW221724   2.219   1.748   4.215 -0.2500  0.6023 -0.0940
 6971SOL     OW21725   1.029   0.352   2.731 -0.1472  0.1726  0.2240
 6971SOL    HW121726   1.100   0.332   2.793 -0.7882 -2.4044  0.1918
 6971SOL    HW221727   1.004   0.266   2.696 -1.8673  1.2912 -1.3262
 6972SOL     OW21728   1.160   7.239   6.840  0.1211 -0.3567  0.0548
 6972SOL    HW121729   1.234   7.213   6.895  1.1113  1.2132 -0.5260
 6972SOL    HW221730   1.109   7.300   6.895  0.7969  0.7623 -0.5639
 6973SOL     OW21731   1.667   2.546   7.880 -0.3799  0.2669 -0.1376
 6973SOL    HW121732   1.721   2.484   7.831  0.3718  1.2712 -0.6008
 6973SOL    HW221733   1.591   2.561   7.825 -1.1986 -1.2196  0.5532
 6974SOL     OW21734   6.038   6.038   5.508 -0.3263  0.2790 -0.1042
 6974SOL    HW121735   6.059   5.977   5.579 -0.2220  0.6610  0.1966
 6974SOL    HW221736   6.110   6.028   5.446  0.4071  1.0843  0.5950
 6975SOL     OW21737   2.844   5.290   0.885  0.2661 -0.0221 -0.0276
 6975SOL    HW121738   2.921   5.235   0.870  1.5485  1.8237 -0.2828
 6975SOL    HW221739   2.878   5.378   0.894 -1.8119  0.8075  0.0836
 6976SOL     OW21740   7.660   6.139   5.595 -0.5955 -0.0956 -0.2778
 6976SOL    HW121741   7.615   6.215   5.633 -2.9734 -1.0368 -1.1312
 6976SOL    HW221742   7.674   6.162   5.503  0.8023  0.2349  0.0065
 6977SOL     OW21743   2.965   7.933   5.028  0.4283 -0.0476 -0.3085
 6977SOL    HW121744   3.035   7.944   4.964 -0.9221 -0.6493 -1.9409
 6977SOL    HW221745   2.886   7.960   4.982 -0.4923  0.0784  1.3145
 6978SOL     OW21746   1.434   5.990   4.122 -0.3153  0.2961 -0.3579
 6978SOL    HW121747   1.421   6.084   4.135 -2.1309  0.0461 -0.2129
 6978SOL    HW221748   1.393   5.971   4.038 -0.9905 -0.5651  0.1533
 6979SOL     OW21749   3.797   5.820   1.572  0.1299 -0.0669  0.3576
 6979SOL    HW121750   3.746   5.845   1.495  1.5809 -0.8902 -0.8908
 6979SOL    HW221751   3.742   5.847   1.646 -1.4346  0.4407 -0.9430
 6980SOL     OW21752   5.438   2.647   2.092  0.1007 -0.5297 -0.5207
 6980SOL    HW121753   5.435   2.551   2.082 -0.3542 -0.6958  1.0046
 6980SOL    HW221754   5.482   2.661   2.176 -0.5572  0.5611 -0.3442
 6981SOL     OW21755   1.857   7.395   2.264  0.0021  0.0048  0.0996
 6981SOL    HW121756   1.808   7.315   2.276 -0.9638  0.5088 -0.4312
 6981SOL    HW221757   1.945   7.375   2.297 -0.1374 -1.3620 -0.3558
 6982SOL     OW21758   2.117   3.414   4.489 -0.6214 -0.0945 -0.4134
 6982SOL    HW121759   2.131   3.499   4.449 -1.5625 -0.9991 -2.7327
 6982SOL    HW221760   2.189   3.360   4.457 -0.0202 -0.2081  1.0543
 6983SOL     OW21761   0.645   1.210   0.746 -0.0660 -0.4650  0.1039
 6983SOL    HW121762   0.567   1.186   0.697  0.1398 -0.4699 -0.2240
 6983SOL    HW221763   0.617   1.282   0.803  0.5986  2.1432 -2.7536
 6984SOL     OW21764   6.868   2.915   0.989 -0.2724 -0.5418  0.3233
 6984SOL    HW121765   6.792   2.922   1.046 -0.1306 -1.0021  0.5631
 6984SOL    HW221766   6.942   2.946   1.042 -0.2986 -0.0473  0.0754
 6985SOL     OW21767   4.827   3.343   3.865  0.5316 -0.3741 -0.2514
 6985SOL    HW121768   4.736   3.334   3.839  0.4908  1.6901 -0.8826
 6985SOL    HW221769   4.852   3.256   3.897 -1.0746 -1.4519 -1.8689
 6986SOL     OW21770   0.851   3.100   7.514  0.2997 -0.0392  0.0040
 6986SOL    HW121771   0.808   3.162   7.456  1.9440  0.8946 -0.2345
 6986SOL    HW221772   0.909   3.154   7.568  1.5539 -1.3378 -0.0321
 6987SOL     OW21773   2.185   4.358   0.691 -0.2438 -0.3000  0.1406
 6987SOL    HW121774   2.128   4.375   0.766  0.5432 -0.9951  0.9035
 6987SOL    HW221775   2.251   4.298   0.724 -1.3264 -2.6058 -1.7598
 6988SOL     OW21776   3.164   6.299   7.522 -0.4746  0.5416 -0.5373
 6988SOL    HW121777   3.111   6.328   7.448  0.5592 -1.4207 -2.0966
 6988SOL    HW221778   3.254   6.300   7.489 -0.1644 -2.0135  0.1033
 6989SOL     OW21779   1.803   3.196   0.842 -0.1824 -0.3258 -0.1532
 6989SOL    HW121780   1.747   3.125   0.812 -0.9481 -0.4894  1.6161
 6989SOL    HW221781   1.872   3.152   0.893 -0.0459  0.1132  0.0453
 6990SOL     OW21782   6.191   6.247   6.383  0.5185 -0.3228  0.8011
 6990SOL    HW121783   6.170   6.266   6.474  0.5997 -1.8806  1.1608
 6990SOL    HW221784   6.131   6.176   6.359 -1.7277  2.1444 -1.3445
 6991SOL     OW21785   3.297   3.614   7.990  0.7123  0.1498  0.6566
 6991SOL    HW121786   3.245   3.588   8.067  0.2975  1.9010  1.0050
 6991SOL    HW221787   3.233   3.620   7.919  1.0962 -1.4679  0.1744
 6992SOL     OW21788   6.734   2.538   5.196  0.0908  0.0195  0.2098
 6992SOL    HW121789   6.739   2.606   5.262 -2.3052 -1.7175  2.2736
 6992SOL    HW221790   6.645   2.544   5.161  0.8941  0.0360 -1.9286
 6993SOL     OW21791   7.134   0.188   2.275 -0.1380 -0.5155  0.0990
 6993SOL    HW121792   7.191   0.265   2.282 -0.8463  0.0869 -0.6441
 6993SOL    HW221793   7.102   0.173   2.363 -1.2603  1.0247 -0.0249
 6994SOL     OW21794   7.635   4.723   3.725  0.1466 -0.0051 -0.1838
 6994SOL    HW121795   7.664   4.691   3.811 -1.9507  0.8276  0.8809
 6994SOL    HW221796   7.670   4.812   3.720 -2.9410  1.3952  1.5651
 6995SOL     OW21797   5.865   1.916   0.812 -0.7987 -0.0686  0.2727
 6995SOL    HW121798   5.945   1.924   0.863  1.3576 -1.8516 -2.6878
 6995SOL    HW221799   5.831   2.006   0.806 -0.5075  0.3267  3.7602
 6996SOL     OW21800   3.742   7.669   3.272  0.0110  0.3326  0.1919
 6996SOL    HW121801   3.776   7.758   3.282 -1.3245  1.3564 -3.3711
 6996SOL    HW221802   3.647   7.680   3.272 -0.1556 -0.9995 -0.8245
 6997SOL     OW21803   2.657   1.949   4.707 -0.0335 -0.3528 -0.0471
 6997SOL    HW121804   2.580   1.908   4.747 -1.2565 -0.3862 -2.3828
 6997SOL    HW221805   2.732   1.902   4.745 -1.1845 -0.9941  1.4768
 6998SOL     OW21806   3.412   7.363   4.455  0.0382  0.2378 -0.6181
 6998SOL    HW121807   3.449   7.308   4.523 -1.3138  1.4732  1.1498
 6998SOL    HW221808   3.341   7.411   4.498 -3.3505 -1.7020 -3.7975
 6999SOL     OW21809   3.639   3.001   2.140 -0.0821  0.6187  0.3057
 6999SOL    HW121810   3.716   2.996   2.196 -0.7877 -1.4865  1.1720
 6999SOL    HW221811   3.673   2.990   2.051  0.6153 -0.5133  0.6993
 7000SOL     OW21812   5.867   5.326   4.488  0.0254 -0.4586 -0.7692
 7000SOL    HW121813   5.883   5.401   4.431 -1.2997  0.3952 -0.0225
 7000SOL    HW221814   5.911   5.253   4.444  0.0981  0.4541 -2.2362
 7001SOL     OW21815   3.007   1.069   0.487 -0.0515  0.3070 -0.2454
 7001SOL    HW121816   3.015   1.004   0.418 -0.2189 -0.1865  0.1903
 7001SOL    HW221817   3.033   1.022   0.567 -0.0566  0.8085  0.0525
 7002SOL     OW21818   2.908   5.796   3.838  0.0101  0.0971 -0.0119
 7002SOL    HW121819   2.859   5.767   3.761 -0.6444  0.1011  0.4021
 7002SOL    HW221820   2.929   5.888   3.820 -1.6904  0.6251  0.5850
 7003SOL     OW21821   4.909   4.222   0.485  0.0311  0.2686  0.3395
 7003SOL    HW121822   4.913   4.155   0.417 -2.0267 -0.1358  0.5764
 7003SOL    HW221823   4.916   4.173   0.568 -0.0180  0.5021  0.4824
 7004SOL     OW21824   7.765   5.783   5.724  0.2654 -0.0677 -0.4547
 7004SOL    HW121825   7.777   5.743   5.638 -0.0985 -1.7128  0.2254
 7004SOL    HW221826   7.840   5.754   5.775 -0.5424 -0.7840  0.3588
 7005SOL     OW21827   5.228   4.653   3.382  0.0138 -0.0801  0.0283
 7005SOL    HW121828   5.150   4.602   3.359 -1.7598  2.2926  0.4840
 7005SOL    HW221829   5.291   4.634   3.312 -1.5022 -0.9668 -1.1369
 7006SOL     OW21830   5.428   3.955   0.543 -0.2699  0.9043  0.0522
 7006SOL    HW121831   5.470   4.038   0.519  2.6241 -0.9881 -1.8082
 7006SOL    HW221832   5.475   3.927   0.621 -0.9960  0.8451  0.4664
 7007SOL     OW21833   1.201   2.667   0.809  0.6891 -0.4528  0.1421
 7007SOL    HW121834   1.290   2.672   0.845 -0.1497  0.3130  2.2496
 7007SOL    HW221835   1.188   2.575   0.788  1.7787 -0.6679  0.3776
 7008SOL     OW21836   4.030   3.591   7.070 -0.3863 -0.4333 -0.4325
 7008SOL    HW121837   3.954   3.644   7.097 -0.3750 -1.3232  1.4172
 7008SOL    HW221838   4.005   3.555   6.985 -1.2002  0.9243 -0.7922
 7009SOL     OW21839   1.299   3.901   1.342  0.2663  0.8428  0.8822
 7009SOL    HW121840   1.319   3.946   1.260 -0.6398  0.6111  0.5378
 7009SOL    HW221841   1.371   3.926   1.401  0.0496  2.3285  0.5349
 7010SOL     OW21842   6.198   0.514   0.962  0.0402  0.2024  0.8042
 7010SOL    HW121843   6.237   0.510   1.049 -0.3541  0.6849  1.0024
 7010SOL    HW221844   6.191   0.607   0.942 -0.9203  0.1176  0.7305
 7011SOL     OW21845   3.183   7.545   6.230  0.2572 -0.1778 -0.3514
 7011SOL    HW121846   3.186   7.538   6.134 -1.0257  1.1707 -0.5173
 7011SOL    HW221847   3.102   7.500   6.255  0.9966 -1.2276  0.1835
 7012SOL     OW21848   1.187   2.438   6.346  0.2679 -0.2961  0.0907
 7012SOL    HW121849   1.283   2.441   6.346  0.3114  0.1307  2.8474
 7012SOL    HW221850   1.165   2.348   6.321  1.4855 -1.0649  1.6786
 7013SOL     OW21851   0.683   4.569   0.558 -0.0865  0.4278  0.2458
 7013SOL    HW121852   0.594   4.584   0.524  1.4133  1.5074 -3.4281
 7013SOL    HW221853   0.734   4.642   0.523  2.8839 -1.7516 -0.1312
 7014SOL     OW21854   0.323   6.745   5.985 -0.0562 -0.4954 -0.2633
 7014SOL    HW121855   0.377   6.823   5.967 -0.0745 -0.4607 -0.1714
 7014SOL    HW221856   0.233   6.774   5.970 -0.2718  0.2285  2.2003
 7015SOL     OW21857   1.960   3.579   3.998  0.1522  0.4708 -0.2024
 7015SOL    HW121858   1.990   3.521   3.927 -2.2271  1.0022 -1.7045
 7015SOL    HW221859   2.028   3.571   4.065  0.4702 -3.1708 -0.8348
 7016SOL     OW21860   6.430   5.029   7.137  0.0626  0.1653  0.3100
 7016SOL    HW121861   6.383   4.975   7.074  1.3978 -0.7193  0.0378
 7016SOL    HW221862   6.390   5.008   7.222  1.1712 -1.9796  0.3412
 7017SOL     OW21863   2.301   1.717   2.909  0.5057  0.0701  0.1129
 7017SOL    HW121864   2.263   1.803   2.890  0.8698  0.4566  1.1222
 7017SOL    HW221865   2.248   1.655   2.857  0.7702  0.9820 -1.2782
 7018SOL     OW21866   6.298   6.210   0.962 -0.4112 -0.3746  0.0481
 7018SOL    HW121867   6.368   6.156   0.925  0.8443  0.6072  0.9499
 7018SOL    HW221868   6.288   6.282   0.900  0.2553  0.1588  0.5561
 7019SOL     OW21869   7.149   1.388   2.232  0.3859  0.0235  0.1980
 7019SOL    HW121870   7.060   1.409   2.262  0.4224  1.4884 -0.6395
 7019SOL    HW221871   7.192   1.350   2.308 -0.6526  0.2643  0.9163
 7020SOL     OW21872   5.905   7.695   1.177  0.1444 -1.0183  0.0923
 7020SOL    HW121873   5.911   7.790   1.173  2.0389 -1.0902  0.6436
 7020SOL    HW221874   5.830   7.673   1.123 -1.3349  0.9071  1.3075
 7021SOL     OW21875   3.397   0.037   7.684 -0.4130 -0.1539 -0.3023
 7021SOL    HW121876   3.339   0.059   7.611 -1.1250  0.9596  0.5722
 7021SOL    HW221877   3.406   0.120   7.732  2.0416 -0.2571 -0.5225
 7022SOL     OW21878   1.975   4.800   7.433  0.1972 -0.2253 -0.2834
 7022SOL    HW121879   2.035   4.742   7.481  0.6987  2.2177  2.1097
 7022SOL    HW221880   1.888   4.763   7.449  0.4078  0.2910  2.1222
 7023SOL     OW21881   5.443   5.170   0.780  0.4497  0.3777 -0.1722
 7023SOL    HW121882   5.407   5.097   0.729  0.6544  0.3183 -0.2301
 7023SOL    HW221883   5.366   5.213   0.818  0.3336  0.0950 -0.0896
 7024SOL     OW21884   7.130   0.859   3.249 -0.2179  0.1412 -0.8596
 7024SOL    HW121885   7.076   0.936   3.232  1.1567  1.7344  1.6754
 7024SOL    HW221886   7.218   0.894   3.264  0.5088 -1.9477  0.0083
 7025SOL     OW21887   6.950   3.150   6.276  0.1042  0.0560  0.4945
 7025SOL    HW121888   6.891   3.167   6.349 -1.6440 -0.2633 -0.8222
 7025SOL    HW221889   7.018   3.217   6.284 -0.9075  0.9759  1.5122
 7026SOL     OW21890   6.828   3.531   1.493  0.4191  0.2289  0.1800
 7026SOL    HW121891   6.774   3.463   1.453  0.3095  0.2884  0.2278
 7026SOL    HW221892   6.895   3.483   1.541 -0.1010  0.1550  0.8293
 7027SOL     OW21893   1.089   3.508   1.540  0.0934 -0.2174 -0.2164
 7027SOL    HW121894   1.001   3.497   1.504  1.0948  1.5759 -3.3395
 7027SOL    HW221895   1.111   3.599   1.522  2.1581 -0.3206  1.5821
 7028SOL     OW21896   1.245   5.732   3.432  0.3247 -0.2230 -0.9509
 7028SOL    HW121897   1.293   5.693   3.504  1.2556  2.3061 -0.1491
 7028SOL    HW221898   1.290   5.701   3.353  2.8657  1.5332 -0.2352
 7029SOL     OW21899   1.783   6.493   6.259  0.0176 -0.2963  0.1099
 7029SOL    HW121900   1.810   6.495   6.351  2.3420 -1.4592 -0.4977
 7029SOL    HW221901   1.705   6.438   6.257 -0.4552  0.3027  1.4646
 7030SOL     OW21902   7.634   7.232   3.687  0.0180  0.4490 -0.8504
 7030SOL    HW121903   7.615   7.235   3.781  2.4112  1.0069 -0.3471
 7030SOL    HW221904   7.581   7.159   3.654  0.8990 -1.2388  1.3723
 7031SOL     OW21905   0.811   0.928   4.973  0.3571  1.4668  0.1957
 7031SOL    HW121906   0.717   0.926   4.993  0.3691  0.5996  0.1844
 7031SOL    HW221907   0.850   0.866   5.035  0.7781  0.9944 -0.5374
 7032SOL     OW21908   1.911   1.835   7.512  0.5821  0.6215  0.5205
 7032SOL    HW121909   1.826   1.796   7.492  1.4357 -0.7269 -0.5320
 7032SOL    HW221910   1.974   1.764   7.500  1.8722  1.6113  1.2781
 7033SOL     OW21911   1.089   5.871   3.605 -0.5961  1.2792  0.8261
 7033SOL    HW121912   1.130   5.958   3.599  0.6950  0.6610  0.6149
 7033SOL    HW221913   1.149   5.813   3.559 -1.6488  0.3206  0.6290
 7034SOL     OW21914   0.019   4.259   2.333  0.1819  0.1189 -0.2970
 7034SOL    HW121915   0.011   4.164   2.337  1.6555 -0.0951 -1.9381
 7034SOL    HW221916  -0.070   4.291   2.345 -0.2221 -1.4189  1.0570
 7035SOL     OW21917   5.928   0.817   1.536  0.0806 -0.1742 -0.0934
 7035SOL    HW121918   6.002   0.758   1.549  0.1158 -0.1055  0.0235
 7035SOL    HW221919   5.952   0.869   1.460  1.2995  1.6084  1.4572
 7036SOL     OW21920   0.435   2.255   0.033 -0.3361 -0.1998 -0.1235
 7036SOL    HW121921   0.486   2.320   0.081  0.7694 -0.7748 -0.4910
 7036SOL    HW221922   0.390   2.205   0.100 -0.2665  0.1918  0.2145
 7037SOL     OW21923   1.568   0.549   5.030  0.0004 -0.2732 -0.4137
 7037SOL    HW121924   1.627   0.624   5.027 -0.5982  0.3093  1.7518
 7037SOL    HW221925   1.481   0.587   5.036 -0.3715 -1.1481 -0.1482
 7038SOL     OW21926   5.468   4.966   7.510  0.3279  0.1709  0.5874
 7038SOL    HW121927   5.428   4.921   7.584 -0.1607  0.9048  0.7731
 7038SOL    HW221928   5.412   4.945   7.435 -0.6068  1.4708  0.9108
 7039SOL     OW21929   0.179   2.895   6.864 -0.2931  1.0055  0.0628
 7039SOL    HW121930   0.179   2.870   6.956  0.8261  1.1353  0.1115
 7039SOL    HW221931   0.126   2.974   6.860 -0.4043  0.9597  0.5885
 7040SOL     OW21932   7.594   6.752   5.969 -0.3660  0.2978  0.6155
 7040SOL    HW121933   7.592   6.834   6.019 -3.0963  1.1864 -0.8606
 7040SOL    HW221934   7.570   6.777   5.880  3.1868 -1.4640 -0.9384
 7041SOL     OW21935   1.884   7.665   4.534 -0.1353  0.3330 -0.4052
 7041SOL    HW121936   1.860   7.626   4.450 -0.4114 -1.9726  0.7033
 7041SOL    HW221937   1.808   7.648   4.591  0.0706  1.8218  0.3450
 7042SOL     OW21938   0.293   5.018   0.297  0.3368  0.5112 -0.1494
 7042SOL    HW121939   0.208   5.010   0.342  0.1114 -2.5226 -0.9750
 7042SOL    HW221940   0.341   5.083   0.348 -1.0936 -0.5057  2.5986
 7043SOL     OW21941   2.090   0.506   2.868  0.1083 -0.2925  0.3588
 7043SOL    HW121942   2.124   0.571   2.807  0.6628  0.5875  1.6035
 7043SOL    HW221943   2.120   0.422   2.833  2.1453  0.3529  0.5338
 7044SOL     OW21944   2.215   5.341   6.547  0.3661  0.3472  0.0387
 7044SOL    HW121945   2.300   5.335   6.591  0.1018 -1.6595  0.3205
 7044SOL    HW221946   2.236   5.343   6.453  0.6317 -3.5331 -0.0443
 7045SOL     OW21947   7.514   1.551   1.924 -0.1139  0.0988 -0.5689
 7045SOL    HW121948   7.588   1.612   1.921  2.1968 -2.5268 -0.1126
 7045SOL    HW221949   7.498   1.529   1.832 -0.0693  0.4143 -0.6527
 7046SOL     OW21950   2.138   3.837   7.606  0.7391  0.4405  0.2535
 7046SOL    HW121951   2.049   3.812   7.629  1.2106  0.9457  2.7920
 7046SOL    HW221952   2.127   3.912   7.548 -0.4975  1.0591  1.2585
 7047SOL     OW21953   2.660   4.238   2.768 -0.5671 -0.5689  0.2079
 7047SOL    HW121954   2.727   4.179   2.803  0.8605  0.6586 -0.4161
 7047SOL    HW221955   2.681   4.323   2.807 -2.3061 -0.3591  0.7025
 7048SOL     OW21956   6.455   4.144   3.269  0.1964 -0.0491  0.0378
 7048SOL    HW121957   6.442   4.207   3.341  0.0163  0.2283 -0.2356
 7048SOL    HW221958   6.488   4.197   3.197 -5.4000  0.8235 -2.1137
 7049SOL     OW21959   1.095   7.910   7.785  0.7727 -0.3842 -0.2283
 7049SOL    HW121960   1.175   7.858   7.785  1.3753  0.4886 -2.1320
 7049SOL    HW221961   1.025   7.847   7.804  1.9914 -0.9742  2.4538
 7050SOL     OW21962   6.725   4.948   1.965  0.1958  0.2745  0.2726
 7050SOL    HW121963   6.783   4.973   1.893 -0.6744  0.6028 -0.3281
 7050SOL    HW221964   6.710   5.029   2.014 -1.7658  0.7525 -1.0512
 7051SOL     OW21965   2.888   2.678   5.226 -0.3000  0.3877 -0.2338
 7051SOL    HW121966   2.825   2.648   5.160  1.4601 -0.3952 -1.5722
 7051SOL    HW221967   2.961   2.616   5.221  1.5013  2.4468 -0.1090
 7052SOL     OW21968   1.358   1.208   4.009  0.0229 -0.1327 -0.3200
 7052SOL    HW121969   1.342   1.121   3.973 -1.1244 -0.5576  1.1392
 7052SOL    HW221970   1.413   1.192   4.086 -1.4977  0.2227  0.8862
 7053SOL     OW21971   4.938   1.646   5.775  0.4057  0.0828  0.1989
 7053SOL    HW121972   5.018   1.593   5.770  0.4989  0.1584  0.8715
 7053SOL    HW221973   4.918   1.650   5.868 -0.2577  0.2582  0.0485
 7054SOL     OW21974   1.981   3.609   3.644 -0.0144 -0.6962 -0.0984
 7054SOL    HW121975   1.968   3.611   3.549  0.9912  1.7677 -0.2109
 7054SOL    HW221976   2.069   3.575   3.656  0.2213 -0.0777 -0.0838
 7055SOL     OW21977   6.698   2.852   1.447  0.0562 -0.3477  0.1680
 7055SOL    HW121978   6.703   2.758   1.465  0.3781 -0.2857  0.4064
 7055SOL    HW221979   6.628   2.883   1.503 -0.2493 -0.4964 -0.1281
 7056SOL     OW21980   6.339   0.087   5.999 -0.4849  0.2069 -0.3782
 7056SOL    HW121981   6.250   0.095   6.033 -0.2815 -0.0245  0.1999
 7056SOL    HW221982   6.355   0.171   5.956 -0.4263  0.8290  0.8410
 7057SOL     OW21983   3.520   0.947   7.471  0.3279  0.1854  0.5002
 7057SOL    HW121984   3.474   0.877   7.518 -0.2526  1.6317  2.1529
 7057SOL    HW221985   3.453   0.987   7.417  0.2669  0.5412  0.8374
 7058SOL     OW21986   3.623   2.033   5.833 -0.5596  0.4788 -0.5193
 7058SOL    HW121987   3.671   2.000   5.909 -3.2284 -1.3691  0.4105
 7058SOL    HW221988   3.689   2.083   5.784  1.8461 -0.4349  1.6363
 7059SOL     OW21989   5.735   7.928   5.831 -0.0130  0.4478 -0.0801
 7059SOL    HW121990   5.699   7.913   5.918 -2.2223 -0.6391 -1.1524
 7059SOL    HW221991   5.707   8.016   5.807 -0.2210  0.3781 -0.0879
 7060SOL     OW21992   2.765   7.369   0.595  0.3857 -0.4031  0.2447
 7060SOL    HW121993   2.709   7.409   0.528 -0.9981  0.2379  1.7565
 7060SOL    HW221994   2.739   7.412   0.676  3.0431 -0.1441  1.0076
 7061SOL     OW21995   6.020   4.051   5.033 -0.0002 -0.0722 -0.4324
 7061SOL    HW121996   5.975   4.131   5.061  1.9305  1.3780 -1.3203
 7061SOL    HW221997   5.956   4.005   4.978 -0.8344  1.3268 -0.6554
 7062SOL     OW21998   7.426   1.885   5.291 -0.6018 -0.5754 -0.3821
 7062SOL    HW121999   7.377   1.856   5.368  1.0384 -0.5586  0.6941
 7062SOL    HW222000   7.405   1.978   5.283 -1.0847 -0.6660 -0.1911
 7063SOL     OW22001   1.697   3.613   4.081 -0.2437  0.7692 -0.1945
 7063SOL    HW122002   1.758   3.645   4.014  0.6246 -2.9620 -1.3463
 7063SOL    HW222003   1.740   3.633   4.164  0.2308  2.4785 -0.8241
 7064SOL     OW22004   0.322   7.344   4.117 -0.0617 -0.0814  0.2120
 7064SOL    HW122005   0.238   7.350   4.163  0.4956 -0.4366  1.3028
 7064SOL    HW222006   0.372   7.420   4.149 -0.0626  0.2815 -0.6378
 7065SOL     OW22007   2.918   2.924   6.785  0.5704  0.1403  0.2446
 7065SOL    HW122008   2.973   2.959   6.855 -0.1088 -0.6537  1.1829
 7065SOL    HW222009   2.944   2.832   6.777  0.6853  0.2376 -0.5909
 7066SOL     OW22010   0.801   1.415   3.403 -0.3775 -0.0222 -0.1604
 7066SOL    HW122011   0.765   1.381   3.320 -0.7995 -0.3640  0.1576
 7066SOL    HW222012   0.736   1.390   3.468  1.5132 -2.6902  0.7980
 7067SOL     OW22013   2.959   5.048   5.266  0.4176  0.5641 -0.1660
 7067SOL    HW122014   2.924   4.996   5.339  2.6257 -1.1488 -0.2714
 7067SOL    HW222015   2.915   5.132   5.274 -2.6758 -1.0128  0.5313
 7068SOL     OW22016   3.602   3.310   7.523  0.2882  0.2112 -0.3411
 7068SOL    HW122017   3.695   3.310   7.544  0.1615  1.2365  0.2667
 7068SOL    HW222018   3.567   3.232   7.567  0.7601  0.1196 -0.1248
 7069SOL     OW22019   5.964   5.817   2.796 -0.1137 -0.1953  0.1152
 7069SOL    HW122020   6.005   5.851   2.876 -1.7651 -0.4729  1.1009
 7069SOL    HW222021   5.942   5.726   2.817  0.4656 -0.6110 -1.0501
 7070SOL     OW22022   7.681   7.332   4.691  0.2477 -0.5089 -0.1100
 7070SOL    HW122023   7.636   7.408   4.729  0.0836 -0.0245 -1.2365
 7070SOL    HW222024   7.613   7.286   4.642  0.4493 -1.1438  0.2027
 7071SOL     OW22025   3.835   2.400   0.231 -0.0116 -0.2490 -0.1527
 7071SOL    HW122026   3.757   2.358   0.269  0.2438 -1.7075 -1.2152
 7071SOL    HW222027   3.800   2.460   0.165 -0.3013  0.2515  0.4400
 7072SOL     OW22028   4.296   3.817   1.676  0.0385  0.3482  0.4012
 7072SOL    HW122029   4.208   3.791   1.706 -0.0043  0.0336  0.0155
 7072SOL    HW222030   4.341   3.844   1.755 -0.0450 -0.5636  0.7734
 7073SOL     OW22031   5.276   4.918   6.061  0.0968  0.3641  0.0823
 7073SOL    HW122032   5.358   4.937   6.016  0.2552  0.8155  0.5693
 7073SOL    HW222033   5.294   4.838   6.110 -0.4140 -0.7844 -1.5437
 7074SOL     OW22034   6.041   1.127   1.208 -0.0622 -0.0650 -0.0054
 7074SOL    HW122035   6.030   1.211   1.253  0.8302 -0.0095  0.1296
 7074SOL    HW222036   5.958   1.112   1.164 -0.6620  0.2749  1.0048
 7075SOL     OW22037   0.478   6.958   4.647  0.2464 -0.2090 -0.0709
 7075SOL    HW122038   0.510   6.927   4.731 -1.0939 -0.8573  0.2179
 7075SOL    HW222039   0.555   6.992   4.602  1.1938 -1.1080  0.8714
 7076SOL     OW22040   0.628   2.815   5.354 -0.0693 -0.2677 -0.5639
 7076SOL    HW122041   0.557   2.752   5.366 -1.5499  0.8945 -2.8576
 7076SOL    HW222042   0.586   2.892   5.316  2.0660  1.3026  0.1727
 7077SOL     OW22043   3.927   2.336   5.435  0.4656 -0.0043  0.0739
 7077SOL    HW122044   3.928   2.424   5.397  0.2889 -0.8236 -1.9395
 7077SOL    HW222045   3.919   2.350   5.529  0.3998  2.1256 -0.2174
 7078SOL     OW22046   2.369   5.067   5.995 -0.1357 -0.3106  0.4686
 7078SOL    HW122047   2.297   5.096   6.051 -0.1615  0.1649  0.1980
 7078SOL    HW222048   2.440   5.127   6.016 -0.1739 -0.0790 -0.0699
 7079SOL     OW22049   2.472   2.479   1.764 -0.2560  0.4991 -0.3453
 7079SOL    HW122050   2.485   2.528   1.845 -0.7590 -0.4723  0.3324
 7079SOL    HW222051   2.527   2.524   1.700  0.2256  1.2180  0.5552
 7080SOL     OW22052   7.438   6.217   3.263  0.0587 -0.3854 -0.5895
 7080SOL    HW122053   7.463   6.250   3.177 -1.4152 -0.3679 -1.0243
 7080SOL    HW222054   7.380   6.143   3.244 -1.0153  0.1986  0.3877
 7081SOL     OW22055   1.763   5.437   0.927  0.1854  0.7791  0.3289
 7081SOL    HW122056   1.678   5.480   0.920  0.2232  0.5456 -1.9477
 7081SOL    HW222057   1.818   5.498   0.976 -0.3249  2.4273 -1.1406
 7082SOL     OW22058   4.812   2.925   2.150 -0.3828 -0.2442 -0.2663
 7082SOL    HW122059   4.813   2.995   2.216  0.4065 -0.4627 -0.0411
 7082SOL    HW222060   4.830   2.846   2.200  1.0955 -0.3007 -0.8753
 7083SOL     OW22061   4.908   0.480   3.142  0.2036  0.1021 -0.0296
 7083SOL    HW122062   4.900   0.521   3.228  0.1511  0.6326 -0.2853
 7083SOL    HW222063   4.840   0.523   3.089  0.2967 -0.1576 -0.3590
 7084SOL     OW22064   4.035   2.703   7.871 -0.6272  0.3688  0.4606
 7084SOL    HW122065   4.112   2.699   7.928  0.3721 -1.8425 -0.9327
 7084SOL    HW222066   4.069   2.730   7.786 -1.7001  1.1905  0.2796
 7085SOL     OW22067   6.717   5.988   3.619  0.0768  0.2824  0.0281
 7085SOL    HW122068   6.663   5.945   3.685 -0.7691 -0.6901 -1.2716
 7085SOL    HW222069   6.807   5.960   3.640 -0.3538 -1.3010 -0.1825
 7086SOL     OW22070   1.875   3.951   1.543  0.2307  0.4030  0.1911
 7086SOL    HW122071   1.814   3.973   1.614  0.3124  0.9969  0.0835
 7086SOL    HW222072   1.886   4.033   1.496 -2.1149 -0.6516 -2.2930
 7087SOL     OW22073   6.425   4.685   5.872  0.5882  0.1787 -0.0094
 7087SOL    HW122074   6.444   4.639   5.790 -0.1725  0.6111 -0.4424
 7087SOL    HW222075   6.509   4.719   5.900  1.0052 -0.7051 -0.1601
 7088SOL     OW22076   4.489   4.759   3.763 -0.2144 -0.1823  0.0336
 7088SOL    HW122077   4.450   4.675   3.742 -0.5912  0.1998 -0.8225
 7088SOL    HW222078   4.583   4.743   3.761 -0.3007 -1.1682  2.3599
 7089SOL     OW22079   1.668   6.915   1.650 -0.0524  0.1960 -0.4221
 7089SOL    HW122080   1.720   6.995   1.637  0.5930  0.0545  1.2168
 7089SOL    HW222081   1.599   6.941   1.711  1.5529 -1.0599  2.0016
 7090SOL     OW22082   4.335   6.734   7.982 -0.2890 -0.5947 -0.1437
 7090SOL    HW122083   4.424   6.750   8.012  0.0690 -0.5624 -1.2016
 7090SOL    HW222084   4.343   6.723   7.887 -1.5740  0.6614 -0.4170
 7091SOL     OW22085   6.529   3.836   6.651 -0.5156  0.3882  0.0120
 7091SOL    HW122086   6.441   3.807   6.675 -0.3573 -1.0190 -1.0268
 7091SOL    HW222087   6.565   3.872   6.732 -1.5735 -0.2088  0.7680
 7092SOL     OW22088   2.794   4.699   1.789 -0.4005 -0.3967  0.0214
 7092SOL    HW122089   2.797   4.795   1.792 -0.4094 -0.4170  1.0486
 7092SOL    HW222090   2.883   4.673   1.765  0.1623 -0.1767  1.7844
 7093SOL     OW22091   5.829   3.960   2.729 -0.2002  0.0834  0.6153
 7093SOL    HW122092   5.883   3.971   2.651  0.0482 -2.8195  0.3030
 7093SOL    HW222093   5.807   4.049   2.756  0.6303  1.1710 -2.1022
 7094SOL     OW22094   3.657   5.636   0.670  0.1476 -0.4763 -0.6541
 7094SOL    HW122095   3.711   5.715   0.663  0.1023 -0.3338  0.5220
 7094SOL    HW222096   3.602   5.638   0.592  0.6558  0.2736 -1.0027
 7095SOL     OW22097   6.489   1.808   0.089  0.1252  0.2067  0.3241
 7095SOL    HW122098   6.571   1.839   0.127 -0.5204  0.9453  1.1641
 7095SOL    HW222099   6.514   1.740   0.028  1.3671  0.4662  0.5386
 7096SOL     OW22100   7.752   5.743   4.567 -0.6681  0.2257 -0.3671
 7096SOL    HW122101   7.803   5.823   4.575  1.5018 -1.3005  1.7106
 7096SOL    HW222102   7.677   5.767   4.512  1.0806  3.0928 -1.5730
 7097SOL     OW22103   7.852   1.781   4.902 -0.1911 -0.0014 -0.1869
 7097SOL    HW122104   7.765   1.785   4.941 -0.9965  0.0345 -1.9398
 7097SOL    HW222105   7.871   1.871   4.878 -0.8533 -0.4030 -2.3010
 7098SOL     OW22106   6.317   5.719   1.602 -0.1284  0.0741 -0.4367
 7098SOL    HW122107   6.406   5.728   1.635 -0.2821  0.5490 -0.1571
 7098SOL    HW222108   6.266   5.784   1.649 -1.1203 -1.7973  1.1694
 7099SOL     OW22109   1.412   1.256   4.812  1.0564  0.3914 -0.3902
 7099SOL    HW122110   1.338   1.305   4.848  0.0044 -0.4772 -1.3428
 7099SOL    HW222111   1.427   1.296   4.726  0.2572 -0.8630 -1.1300
 7100SOL     OW22112   3.565   2.780   3.542  0.0571 -0.0592 -0.1455
 7100SOL    HW122113   3.658   2.762   3.528 -0.1133 -0.0942 -1.2704
 7100SOL    HW222114   3.564   2.865   3.586  0.7080 -1.0327  1.8099
 7101SOL     OW22115   4.434   1.784   1.924 -0.1789  0.0726 -0.1504
 7101SOL    HW122116   4.446   1.874   1.954 -1.5471 -0.0164  0.7591
 7101SOL    HW222117   4.518   1.742   1.940  0.0563  0.8379  0.7224
 7102SOL     OW22118   5.264   3.220   4.372  0.5344 -0.1224  0.4683
 7102SOL    HW122119   5.196   3.280   4.343 -2.6095 -3.2488  1.0500
 7102SOL    HW222120   5.264   3.227   4.467 -0.2861 -1.4091  0.5846
 7103SOL     OW22121   7.788   7.387   1.468  0.0984 -0.1663 -0.8262
 7103SOL    HW122122   7.729   7.434   1.409  0.2927  1.8826  0.5804
 7103SOL    HW222123   7.741   7.384   1.552  2.1187  1.8011  0.4015
 7104SOL     OW22124   5.935   1.763   3.324  0.4273 -0.4316  0.2785
 7104SOL    HW122125   5.998   1.814   3.376 -0.2859 -0.4568  1.1762
 7104SOL    HW222126   5.918   1.685   3.376  0.9446 -1.2483 -0.7542
 7105SOL     OW22127   6.596   2.685   0.680  0.4953 -0.1296 -0.2563
 7105SOL    HW122128   6.525   2.621   0.681  0.7419 -0.3981  0.0193
 7105SOL    HW222129   6.594   2.722   0.591 -1.4542  1.4855  0.4177
 7106SOL     OW22130   2.283   5.776   4.942 -0.0026  0.1640  0.0732
 7106SOL    HW122131   2.248   5.859   4.910  2.5288  0.5406 -1.8963
 7106SOL    HW222132   2.366   5.765   4.894  0.7277 -2.4624  1.8395
 7107SOL     OW22133   7.426   3.949   6.515  0.9372  0.1280 -0.0064
 7107SOL    HW122134   7.436   3.900   6.597 -2.9738  1.0738  1.1761
 7107SOL    HW222135   7.439   4.040   6.541  2.0477  0.2337 -0.9361
 7108SOL     OW22136   1.297   4.116   7.333 -0.6612  0.3642  0.5013
 7108SOL    HW122137   1.322   4.209   7.329 -1.7738  0.6377 -0.4579
 7108SOL    HW222138   1.250   4.108   7.416  0.4984  0.3719  1.1743
 7109SOL     OW22139   4.012   6.141   5.228  0.1508 -0.1207 -0.4519
 7109SOL    HW122140   3.968   6.226   5.232  1.6249  0.5973  0.7753
 7109SOL    HW222141   3.946   6.078   5.258  0.1208  1.0159  1.9129
 7110SOL     OW22142   2.178   3.892   4.816 -0.4939  0.1786  0.2720
 7110SOL    HW122143   2.202   3.979   4.848 -0.6700  0.5555 -0.6238
 7110SOL    HW222144   2.184   3.836   4.894 -1.0459  1.1157  0.9958
 7111SOL     OW22145   7.351   5.311   1.551  0.0465  0.2510 -0.2142
 7111SOL    HW122146   7.369   5.258   1.629  0.0082  0.8804  0.2264
 7111SOL    HW222147   7.395   5.264   1.480 -0.7023 -0.8267  0.0183
 7112SOL     OW22148   6.063   5.764   3.540 -0.8239 -0.3750  0.3113
 7112SOL    HW122149   6.023   5.679   3.520  1.5716 -1.0380 -1.8082
 7112SOL    HW222150   6.035   5.821   3.469  0.0927 -0.2306  0.0606
 7113SOL     OW22151   1.095   3.063   6.080  0.2055 -0.3421  0.4597
 7113SOL    HW122152   1.007   3.091   6.054 -0.4118 -1.5995  1.1478
 7113SOL    HW222153   1.150   3.084   6.005 -0.8494 -0.3590 -0.3304
 7114SOL     OW22154   7.268   2.132   3.768  0.4192  0.3202  0.3299
 7114SOL    HW122155   7.239   2.094   3.685 -1.3368  0.9049  0.6509
 7114SOL    HW222156   7.222   2.215   3.774  2.0616  1.2046  0.9805
 7115SOL     OW22157   1.270   7.819   3.068  0.3052 -0.4744  0.3035
 7115SOL    HW122158   1.185   7.843   3.106 -0.4493 -1.7465 -0.5248
 7115SOL    HW222159   1.298   7.743   3.120  1.1095  0.1561  0.7982
 7116SOL     OW22160   3.275   6.715   7.608  0.5255 -0.1005 -0.8826
 7116SOL    HW122161   3.284   6.729   7.702 -0.8401  1.0369 -0.8879
 7116SOL    HW222162   3.189   6.673   7.598 -0.4958  2.0629 -1.7662
 7117SOL     OW22163   1.797   4.348   6.126 -0.1666  0.1697 -0.2535
 7117SOL    HW122164   1.810   4.258   6.096 -1.4137  0.0743 -0.5056
 7117SOL    HW222165   1.719   4.379   6.079  0.3429  1.4404 -0.2962
 7118SOL     OW22166   0.401   4.310   6.648 -0.3112 -0.6599  0.0778
 7118SOL    HW122167   0.328   4.264   6.689  0.4850 -0.6854  1.4867
 7118SOL    HW222168   0.479   4.270   6.686  0.3885  1.8026  1.3250
 7119SOL     OW22169   5.952   5.633   5.947 -0.0759  0.0064 -0.5218
 7119SOL    HW122170   5.992   5.558   5.903  1.1638  0.7838 -0.7269
 7119SOL    HW222171   5.905   5.679   5.878 -1.1073 -0.7374 -0.3374
 7120SOL     OW22172   1.325   6.419   7.006  0.0168 -0.2501  0.4731
 7120SOL    HW122173   1.250   6.374   6.967  0.0635  1.1274 -1.2511
 7120SOL    HW222174   1.287   6.470   7.078 -0.4133 -0.9926  0.7843
 7121SOL     OW22175   0.008   1.552   6.856  0.3954  0.6589 -0.3210
 7121SOL    HW122176   0.091   1.550   6.809 -0.5127 -0.8007 -1.9081
 7121SOL    HW222177  -0.023   1.642   6.847  0.4974  0.5347 -2.0812
 7122SOL     OW22178   1.655   3.603   2.962 -0.6294 -0.4130 -0.0283
 7122SOL    HW122179   1.561   3.591   2.944 -0.7649 -0.0611  0.4514
 7122SOL    HW222180   1.696   3.602   2.876 -0.8917 -2.2039 -0.1511
 7123SOL     OW22181   7.744   3.586   7.363  0.0598  0.0735 -0.8361
 7123SOL    HW122182   7.748   3.494   7.334 -0.6002 -0.6116  1.1746
 7123SOL    HW222183   7.765   3.636   7.284  0.9180 -1.8129 -1.8610
 7124SOL     OW22184   0.940   2.123   7.667  0.4648  0.0273  0.2234
 7124SOL    HW122185   0.919   2.041   7.623  1.0512 -0.5984  1.0921
 7124SOL    HW222186   0.950   2.099   7.759  1.2148  0.9690  0.3936
 7125SOL     OW22187   0.821   5.423   1.601  0.4671  0.6131 -0.1905
 7125SOL    HW122188   0.861   5.448   1.684  1.9914  0.0701 -0.7588
 7125SOL    HW222189   0.856   5.336   1.582 -0.3463  0.4749 -1.1010
 7126SOL     OW22190   7.493   3.108   6.879  0.1681  0.0055  0.3181
 7126SOL    HW122191   7.511   3.157   6.799  2.1442  0.5089  1.0428
 7126SOL    HW222192   7.522   3.019   6.861 -2.4716 -0.7137 -0.6409
 7127SOL     OW22193   5.790   1.529   6.442 -0.4613 -0.3885  0.2630
 7127SOL    HW122194   5.798   1.586   6.365  2.5226  0.2319  0.9574
 7127SOL    HW222195   5.785   1.590   6.516 -1.5984 -1.0005  0.6976
 7128SOL     OW22196   5.687   6.597   5.370 -0.0851 -0.0033  0.8186
 7128SOL    HW122197   5.718   6.684   5.393 -2.0531  0.9849 -0.1545
 7128SOL    HW222198   5.593   6.600   5.387 -0.1387 -2.0250  1.0166
 7129SOL     OW22199   1.938   7.020   2.530 -0.2802  0.1617 -0.2388
 7129SOL    HW122200   1.895   6.954   2.475 -1.8618  0.7804  0.2179
 7129SOL    HW222201   1.940   6.979   2.617  0.5092 -0.0649 -0.3641
 7130SOL     OW22202   4.561   7.254   0.863 -0.0720 -0.2820  0.0596
 7130SOL    HW122203   4.618   7.177   0.869  2.0012  0.8376 -4.1090
 7130SOL    HW222204   4.605   7.321   0.914 -0.0426 -0.7548  0.6652
 7131SOL     OW22205   1.959   7.461   0.362  0.9277  0.1209 -0.0724
 7131SOL    HW122206   1.931   7.501   0.444  0.3672 -2.1668  0.8865
 7131SOL    HW222207   2.052   7.486   0.354  0.3867  2.2770  0.0453
 7132SOL     OW22208   7.186   3.331   4.839  0.1847  0.0425  0.0252
 7132SOL    HW122209   7.141   3.406   4.799  1.5878  0.6500 -0.4729
 7132SOL    HW222210   7.127   3.257   4.827 -0.4373  0.7145 -1.0812
 7133SOL     OW22211   6.308   5.543   7.692  0.2947 -0.2153  0.1633
 7133SOL    HW122212   6.274   5.595   7.765  0.3844  1.7917 -1.1936
 7133SOL    HW222213   6.395   5.580   7.674  0.2523 -0.6528 -1.0008
 7134SOL     OW22214   5.079   2.956   5.871  0.0596 -0.3672  0.0891
 7134SOL    HW122215   5.096   3.034   5.818 -1.2144  0.2493  0.5760
 7134SOL    HW222216   5.166   2.926   5.898  0.7175 -0.5754 -2.1717
 7135SOL     OW22217   4.445   0.149   2.810  0.3470  0.2192 -0.2494
 7135SOL    HW122218   4.438   0.062   2.769  0.7308  0.0283  0.0844
 7135SOL    HW222219   4.536   0.175   2.795  0.8640 -0.4286  1.6052
 7136SOL     OW22220   6.034   5.161   6.514 -0.0852  0.2100 -0.1327
 7136SOL    HW122221   5.944   5.190   6.523 -0.9659 -2.7663  1.5009
 7136SOL    HW222222   6.045   5.145   6.420 -1.3527  0.2823 -0.2977
 7137SOL     OW22223   0.424   3.160   3.808  0.0320 -0.5805 -0.0514
 7137SOL    HW122224   0.360   3.112   3.860 -0.0649  0.6838  1.0211
 7137SOL    HW222225   0.461   3.224   3.869  3.5010 -2.3405 -0.2045
 7138SOL     OW22226   7.740   2.112   3.279  0.3315 -0.4477  0.3245
 7138SOL    HW122227   7.670   2.078   3.336  0.4980 -1.8771 -0.3120
 7138SOL    HW222228   7.710   2.200   3.255  0.0713  0.0327  2.2939
 7139SOL     OW22229   2.804   0.096   6.292  0.3129  0.2067 -0.2227
 7139SOL    HW122230   2.855   0.075   6.213  2.0509  1.4371  0.5374
 7139SOL    HW222231   2.870   0.103   6.361 -0.9743  1.2504  0.9101
 7140SOL     OW22232   0.979   7.394   0.620 -0.4045  0.0913  0.6198
 7140SOL    HW122233   1.041   7.322   0.631 -1.3816 -1.0584 -1.2407
 7140SOL    HW222234   1.033   7.470   0.599  0.3730 -0.9492 -1.1863
 7141SOL     OW22235   7.136   4.814   2.963 -0.4187  0.1634  0.0218
 7141SOL    HW122236   7.156   4.771   3.046  0.2049 -0.6480 -0.5322
 7141SOL    HW222237   7.187   4.895   2.964 -0.9517  0.4921  0.7217
 7142SOL     OW22238   1.860   3.209   5.640  0.3849 -0.1022  0.5541
 7142SOL    HW122239   1.802   3.200   5.564  1.8377 -1.1223 -0.4631
 7142SOL    HW222240   1.805   3.249   5.708 -2.0074 -2.5313  0.1599
 7143SOL     OW22241   1.331   5.211   7.656 -0.0193 -0.0259 -0.0636
 7143SOL    HW122242   1.270   5.282   7.671 -0.0048  0.1923 -0.9712
 7143SOL    HW222243   1.350   5.176   7.743  1.1236  2.0278  0.5516
 7144SOL     OW22244   6.025   0.665   5.709  0.0409  0.7195  0.0603
 7144SOL    HW122245   6.054   0.601   5.775  0.9887  1.2127  0.1387
 7144SOL    HW222246   5.949   0.625   5.668  1.2504 -0.9397 -0.6251
 7145SOL     OW22247   1.488   7.100   5.938 -0.1452  0.1111  0.0744
 7145SOL    HW122248   1.487   7.005   5.926  1.3698  0.0555  0.3153
 7145SOL    HW222249   1.518   7.112   6.028 -0.5830  0.8223  0.1247
 7146SOL     OW22250   4.660   4.485   2.449  0.3910 -0.5423  0.0534
 7146SOL    HW122251   4.675   4.443   2.364  0.2387 -2.3930  0.9021
 7146SOL    HW222252   4.568   4.468   2.468  1.3189 -3.5145  2.3014
 7147SOL     OW22253   3.582   1.261   1.361  0.8638  0.1690 -0.9798
 7147SOL    HW122254   3.590   1.275   1.456 -3.3218  1.0175 -0.6761
 7147SOL    HW222255   3.636   1.330   1.322  0.2600  1.6863  0.7835
 7148SOL     OW22256   7.552   6.761   3.639 -0.3073  0.0569 -0.5952
 7148SOL    HW122257   7.487   6.696   3.614 -1.5735 -0.0878  2.7811
 7148SOL    HW222258   7.518   6.844   3.606 -1.6018 -0.2084  0.0351
 7149SOL     OW22259   6.502   1.679   1.464 -0.1274  0.1859  0.0630
 7149SOL    HW122260   6.595   1.674   1.485  0.0904 -2.9907 -1.4594
 7149SOL    HW222261   6.459   1.629   1.534 -0.4112 -1.0026 -0.9619
 7150SOL     OW22262   3.780   0.964   2.124  0.6051  0.1006 -0.2646
 7150SOL    HW122263   3.834   1.000   2.194  0.6779 -1.5413  0.5703
 7150SOL    HW222264   3.699   0.937   2.169  0.6278 -0.9004 -0.8021
 7151SOL     OW22265   6.550   0.554   7.364  0.0309  0.0418 -0.2455
 7151SOL    HW122266   6.644   0.575   7.371  0.3429 -1.6336  0.9333
 7151SOL    HW222267   6.545   0.497   7.287  0.1294 -0.5922  0.2103
 7152SOL     OW22268   7.324   5.671   6.822  0.0382  0.3032  0.5236
 7152SOL    HW122269   7.245   5.656   6.874 -0.1267  0.4184  0.3091
 7152SOL    HW222270   7.385   5.713   6.883 -0.5564  1.4891  0.3225
 7153SOL     OW22271   4.353   5.307   7.641  0.2143  0.4436  0.2562
 7153SOL    HW122272   4.364   5.339   7.731  0.5797  1.2253 -0.0563
 7153SOL    HW222273   4.282   5.243   7.646 -1.8326  2.6701  0.6215
 7154SOL     OW22274   3.489   5.322   6.305 -0.3553 -0.2341  0.1162
 7154SOL    HW122275   3.432   5.276   6.244 -0.9065 -0.1124  0.5302
 7154SOL    HW222276   3.428   5.366   6.365  0.1617  0.6660 -0.0074
 7155SOL     OW22277   4.267   2.292   0.448 -0.0656  0.2472 -0.3041
 7155SOL    HW122278   4.184   2.314   0.405 -1.0765 -1.3644  0.7574
 7155SOL    HW222279   4.248   2.211   0.496  2.1990 -0.2645 -0.2368
 7156SOL     OW22280   0.536   5.914   1.998 -0.0574 -0.4954 -0.3251
 7156SOL    HW122281   0.605   5.887   1.937 -0.3952 -2.0612 -0.0463
 7156SOL    HW222282   0.518   6.005   1.975  0.1958 -0.8894 -2.2254
 7157SOL     OW22283   4.348   7.549   0.984  0.1880 -0.0394 -0.0620
 7157SOL    HW122284   4.305   7.621   1.030 -0.5457  0.0735 -0.9078
 7157SOL    HW222285   4.382   7.492   1.053 -0.8144  0.1788  0.6099
 7158SOL     OW22286   2.336   3.405   0.516  0.3707  0.3704 -1.2733
 7158SOL    HW122287   2.397   3.471   0.549 -0.4552  0.3111  0.3896
 7158SOL    HW222288   2.374   3.378   0.432  3.5740 -0.9451  0.4931
 7159SOL     OW22289   5.341   0.878   3.212 -0.3543 -0.2063 -0.0402
 7159SOL    HW122290   5.399   0.945   3.247 -0.0530 -0.2968 -0.3625
 7159SOL    HW222291   5.271   0.927   3.169 -1.3242 -0.0789  1.6307
 7160SOL     OW22292   5.281   1.902   7.805  0.1232 -0.3001  0.1101
 7160SOL    HW122293   5.313   1.989   7.830 -0.0738 -1.0877  3.2654
 7160SOL    HW222294   5.360   1.847   7.805  0.0148 -0.4558 -0.3488
 7161SOL     OW22295   7.142   3.426   2.569  0.4504 -0.0223 -0.4265
 7161SOL    HW122296   7.107   3.355   2.622 -0.6015  0.6930 -0.1351
 7161SOL    HW222297   7.207   3.469   2.624  0.2404 -0.0410 -0.1616
 7162SOL     OW22298   7.365   6.586   4.814  0.7919 -0.0199  0.2373
 7162SOL    HW122299   7.346   6.675   4.784 -1.0246 -0.4072  0.1876
 7162SOL    HW222300   7.279   6.544   4.820  1.6776 -1.9588 -0.3180
 7163SOL     OW22301   3.237   2.732   0.094 -0.0419 -0.1617 -0.8092
 7163SOL    HW122302   3.211   2.715   0.003 -0.8133  0.1125 -0.6449
 7163SOL    HW222303   3.309   2.794   0.087  1.4664 -1.9375 -1.3225
 7164SOL     OW22304   6.389   3.830   0.724  0.0248 -0.0962 -0.4992
 7164SOL    HW122305   6.330   3.897   0.691 -1.0397  0.2217  1.9246
 7164SOL    HW222306   6.477   3.869   0.716 -0.3021  0.3896 -1.8413
 7165SOL     OW22307   7.708   1.878   5.677  0.1862 -0.1393  0.1737
 7165SOL    HW122308   7.722   1.964   5.638  1.4507 -0.9319 -1.1855
 7165SOL    HW222309   7.624   1.848   5.642  1.6570 -1.1655 -2.6252
 7166SOL     OW22310   7.310   3.658   5.710 -0.0239  0.0769 -0.2009
 7166SOL    HW122311   7.256   3.736   5.714  0.4547  0.4772 -1.4198
 7166SOL    HW222312   7.254   3.592   5.670  0.0549  0.2095 -0.5311
 7167SOL     OW22313   0.482   2.450   4.528  0.4907  0.2976  0.1216
 7167SOL    HW122314   0.485   2.545   4.513 -1.1758  0.3837  0.1813
 7167SOL    HW222315   0.442   2.415   4.448  1.9294 -0.4594 -0.2736
 7168SOL     OW22316   2.829   1.180   5.773 -0.5704  0.1113  0.1627
 7168SOL    HW122317   2.819   1.088   5.795 -0.2105 -0.0136 -0.1865
 7168SOL    HW222318   2.792   1.188   5.685 -2.1435  0.6380  0.8674
 7169SOL     OW22319   6.942   2.791   5.582 -0.0979  0.3210  0.0500
 7169SOL    HW122320   6.983   2.748   5.657  0.2125  0.6040  0.0404
 7169SOL    HW222321   7.006   2.781   5.511  0.6567  2.1883  0.4546
 7170SOL     OW22322   7.962   4.453   5.062 -0.1377 -0.3158  0.2439
 7170SOL    HW122323   7.981   4.417   4.976 -0.8370  0.6590 -0.3325
 7170SOL    HW222324   8.040   4.435   5.114 -0.7382 -3.3069  0.2015
 7171SOL     OW22325   3.034   5.347   1.619 -0.3739  0.1514  0.2226
 7171SOL    HW122326   3.117   5.341   1.665  0.5066 -1.1919 -1.4696
 7171SOL    HW222327   3.039   5.430   1.571  0.7576 -0.7500 -1.2661
 7172SOL     OW22328   3.979   1.988   4.563  0.4065  0.2393 -0.0693
 7172SOL    HW122329   3.997   2.068   4.514  0.5496 -1.0933 -2.2305
 7172SOL    HW222330   3.893   1.960   4.533  0.0067  0.0006  1.2709
 7173SOL     OW22331   0.860   0.005   6.401  0.5773  0.0797 -0.0877
 7173SOL    HW122332   0.878   0.092   6.437  0.4156  0.0347  0.1034
 7173SOL    HW222333   0.939  -0.045   6.419  0.4276  0.0040  0.3750
 7174SOL     OW22334   5.970   5.950   3.331 -0.6352 -0.3102 -0.1797
 7174SOL    HW122335   5.886   5.994   3.342  0.1065  0.7083  1.6509
 7174SOL    HW222336   6.035   6.020   3.341  0.4357 -1.0313 -1.8608
 7175SOL     OW22337   3.485   6.489   2.904  0.0712 -0.3426  0.5667
 7175SOL    HW122338   3.480   6.418   2.968  3.1491 -0.8100  0.3155
 7175SOL    HW222339   3.447   6.453   2.824 -2.5416 -0.1890  1.6772
 7176SOL     OW22340   5.202   0.316   2.191 -0.2215 -0.2858  0.0138
 7176SOL    HW122341   5.262   0.390   2.178  0.2590 -0.2929  2.0553
 7176SOL    HW222342   5.142   0.321   2.116  1.1604  0.8440 -1.0522
 7177SOL     OW22343   0.632   0.775   7.168 -0.2849 -0.1041 -0.2244
 7177SOL    HW122344   0.701   0.833   7.199 -0.0209  0.1240 -1.2367
 7177SOL    HW222345   0.599   0.816   7.089  0.8772 -2.0351 -1.7598
 7178SOL     OW22346   4.832   1.699   0.011 -0.1353 -0.1812  0.0546
 7178SOL    HW122347   4.825   1.609   0.044 -0.6823  0.4252  1.6375
 7178SOL    HW222348   4.895   1.693  -0.061  0.8341 -1.6092  0.9909
 7179SOL     OW22349   2.420   0.613   7.020  0.3937 -0.7006  0.3141
 7179SOL    HW122350   2.458   0.701   7.014  0.9221 -0.9428  0.0813
 7179SOL    HW222351   2.482   0.564   7.074 -1.0122 -0.3356  2.2965
 7180SOL     OW22352   5.195   5.885   5.554  0.2170 -0.2138 -0.0995
 7180SOL    HW122353   5.246   5.855   5.629 -0.4360 -2.0351 -0.3725
 7180SOL    HW222354   5.148   5.807   5.524 -1.4899  1.0705 -0.8341
 7181SOL     OW22355   3.309   1.627   0.466  0.4757 -0.0119  0.2055
 7181SOL    HW122356   3.325   1.641   0.559 -1.1215  2.0755  0.1961
 7181SOL    HW222357   3.218   1.598   0.461  0.9186 -1.3329 -0.6241
 7182SOL     OW22358   5.683   2.238   7.528  0.5587 -0.1696  0.0109
 7182SOL    HW122359   5.607   2.297   7.528  0.0248 -0.8498  0.7444
 7182SOL    HW222360   5.731   2.260   7.608  0.9506  0.0243 -0.2769
 7183SOL     OW22361   4.538   2.902   0.329 -0.0289 -0.1123  0.5334
 7183SOL    HW122362   4.521   2.810   0.352 -0.1575 -0.5934 -1.3412
 7183SOL    HW222363   4.618   2.924   0.376  0.7088 -1.6083  0.0305
 7184SOL     OW22364   2.119   2.737   6.666  0.4463 -0.4884 -0.8992
 7184SOL    HW122365   2.026   2.750   6.647  0.4404 -0.7507 -1.0507
 7184SOL    HW222366   2.136   2.795   6.741 -0.1430 -1.4004 -0.0459
 7185SOL     OW22367   1.955   2.184   0.781  0.2660 -0.2081  0.4047
 7185SOL    HW122368   1.887   2.181   0.847  0.5308  0.1704  0.6957
 7185SOL    HW222369   1.910   2.164   0.699 -0.1695 -0.0966  0.6162
 7186SOL     OW22370   7.079   0.284   1.275  0.5480  0.4240  0.0165
 7186SOL    HW122371   7.099   0.243   1.359  0.4755  1.9902  0.8219
 7186SOL    HW222372   7.139   0.242   1.213 -0.0445 -1.4094  0.6420
 7187SOL     OW22373   1.698   4.226   5.607  0.4871  0.1769  0.0486
 7187SOL    HW122374   1.709   4.304   5.552 -0.3448  1.8572  2.1834
 7187SOL    HW222375   1.776   4.225   5.662  0.8385 -0.9275 -0.4605
 7188SOL     OW22376   7.554   2.029   4.526  0.5171 -0.3558  0.0222
 7188SOL    HW122377   7.459   2.020   4.519  0.5340  0.3359 -1.1623
 7188SOL    HW222378   7.570   2.045   4.619 -0.5633 -0.0383  0.1591
 7189SOL     OW22379   0.078   4.034   6.099  0.1560 -0.2619  0.3919
 7189SOL    HW122380   0.120   4.073   6.176 -0.4187  2.4442 -0.6215
 7189SOL    HW222381   0.129   4.066   6.025 -1.6318  0.2814 -0.6149
 7190SOL     OW22382   2.318   0.894   7.723  0.0193  0.3454  0.1714
 7190SOL    HW122383   2.258   0.969   7.717  0.8454  1.1512  1.5244
 7190SOL    HW222384   2.339   0.889   7.817  0.4346 -1.2200 -0.0028
 7191SOL     OW22385   4.267   6.079   3.903  0.1314 -0.5760  0.1929
 7191SOL    HW122386   4.219   6.150   3.946 -0.3494 -1.1142  0.5343
 7191SOL    HW222387   4.233   6.079   3.813 -0.2471 -0.7274  0.3388
 7192SOL     OW22388   3.920   5.012   0.211  0.4936  0.7311  0.3422
 7192SOL    HW122389   3.851   5.039   0.151 -1.0231  0.9049  2.1264
 7192SOL    HW222390   3.979   4.959   0.158 -1.5586 -0.2800 -0.9807
 7193SOL     OW22391   4.321   1.515   5.340 -0.2776 -0.2921  0.1229
 7193SOL    HW122392   4.377   1.442   5.312 -0.2784 -0.4751  0.5977
 7193SOL    HW222393   4.252   1.519   5.274  1.4805  1.3316 -1.7066
 7194SOL     OW22394   1.714   3.460   7.869  0.4738  0.6766  0.7827
 7194SOL    HW122395   1.711   3.364   7.864 -1.7787  0.7529 -0.1041
 7194SOL    HW222396   1.628   3.484   7.904  0.0372  2.4747 -1.3774
 7195SOL     OW22397   7.931   2.557   1.970  0.3247  0.0962  0.0753
 7195SOL    HW122398   7.870   2.583   2.039 -1.2867  1.3166 -1.7748
 7195SOL    HW222399   8.017   2.556   2.014 -0.8045 -0.2431  2.3535
 7196SOL     OW22400   5.180   5.280   2.357 -0.3802  0.1501  0.5676
 7196SOL    HW122401   5.206   5.303   2.267  1.1300 -0.4733  0.8394
 7196SOL    HW222402   5.156   5.188   2.352 -2.0914  0.5733  0.4374
 7197SOL     OW22403   1.454   3.070   6.527 -0.3339 -0.5012  0.0447
 7197SOL    HW122404   1.525   3.016   6.561  0.4034  0.7374  0.4751
 7197SOL    HW222405   1.424   3.120   6.603 -1.2391 -0.5282 -0.2820
 7198SOL     OW22406   7.608   2.433   7.736 -0.1322 -0.5307  0.0353
 7198SOL    HW122407   7.679   2.457   7.676 -0.9573 -1.8177 -1.5064
 7198SOL    HW222408   7.550   2.508   7.735  0.8322  0.2298  0.7213
 7199SOL     OW22409   5.145   3.853   7.806 -0.0062  0.3567 -0.3970
 7199SOL    HW122410   5.184   3.896   7.730 -0.0775 -0.4200 -0.8780
 7199SOL    HW222411   5.152   3.917   7.877 -0.6745  1.3904 -1.2608
 7200SOL     OW22412   6.740   6.421   1.927  0.6012  0.1475  0.4320
 7200SOL    HW122413   6.754   6.380   1.841  1.1013  0.7206  0.2336
 7200SOL    HW222414   6.793   6.368   1.987 -1.1048 -1.3099  0.6947
 7201SOL     OW22415   4.567   7.554   7.291 -0.5568 -0.7705 -0.0186
 7201SOL    HW122416   4.535   7.590   7.209  0.9283 -0.1485 -0.3464
 7201SOL    HW222417   4.583   7.631   7.347  0.6550 -1.0277  0.0115
 7202SOL     OW22418   2.779   7.206   4.919 -0.1201  0.2337  0.0635
 7202SOL    HW122419   2.691   7.244   4.915 -0.1937  0.2755  1.9198
 7202SOL    HW222420   2.826   7.249   4.847 -1.5134  0.4442 -0.7421
 7203SOL     OW22421   2.245   0.883   2.140  0.1169  0.0753  0.4444
 7203SOL    HW122422   2.186   0.821   2.096 -0.2874  1.7546 -1.4570
 7203SOL    HW222423   2.233   0.865   2.233  0.3252 -2.9813 -0.0559
 7204SOL     OW22424   7.822   0.557   6.946 -0.1532  0.6898 -0.1576
 7204SOL    HW122425   7.779   0.471   6.944  0.9549  0.0125  2.3458
 7204SOL    HW222426   7.915   0.536   6.947  0.1144  1.8945  1.2628
 7205SOL     OW22427   2.127   0.131   6.161  0.3288  0.3206  0.1474
 7205SOL    HW122428   2.077   0.113   6.081  2.6595 -1.6206 -0.9414
 7205SOL    HW222429   2.117   0.052   6.214  1.7481  0.1168  0.1405
 7206SOL     OW22430   0.129   7.392   7.516 -0.5637 -0.3708  0.6719
 7206SOL    HW122431   0.141   7.325   7.583  1.4278 -0.7931 -0.0875
 7206SOL    HW222432   0.077   7.349   7.448  1.8866 -1.6213 -0.4560
 7207SOL     OW22433   7.144   1.950   6.332 -0.7393  0.2369  0.0407
 7207SOL    HW122434   7.225   1.916   6.370 -0.8868 -0.5644 -0.3504
 7207SOL    HW222435   7.093   1.981   6.407 -0.1846  0.5001  0.3101
 7208SOL     OW22436   7.114   7.224   7.699  0.4651 -0.0641 -0.0173
 7208SOL    HW122437   7.155   7.255   7.619  2.7213 -2.6068  0.0668
 7208SOL    HW222438   7.020   7.221   7.679  0.9025  0.2227 -2.2143
 7209SOL     OW22439   7.840   5.996   0.085 -0.3705 -0.3135 -0.1338
 7209SOL    HW122440   7.789   6.072   0.114 -1.5064 -0.8100 -0.8039
 7209SOL    HW222441   7.914   6.034   0.038 -0.0578  0.4181  0.9294
 7210SOL     OW22442   2.109   3.546   5.349 -0.1936  0.0387 -0.1641
 7210SOL    HW122443   2.106   3.459   5.387 -1.9125 -0.4123 -1.2825
 7210SOL    HW222444   2.185   3.587   5.389  1.2400 -2.3226 -0.4038
 7211SOL     OW22445   4.410   4.801   6.754  0.1745  0.7191 -0.5745
 7211SOL    HW122446   4.341   4.825   6.815  0.0491 -0.4643 -0.2436
 7211SOL    HW222447   4.366   4.748   6.687  1.1680 -2.3415  1.0738
 7212SOL     OW22448   4.306   7.990   1.339 -0.5713 -0.4651 -0.1559
 7212SOL    HW122449   4.312   8.047   1.416  2.6585  0.1300 -0.7859
 7212SOL    HW222450   4.284   8.050   1.267 -2.0877 -0.8014  0.0026
 7213SOL     OW22451   0.540   1.018   4.633 -0.6826 -0.5567 -0.0806
 7213SOL    HW122452   0.545   1.021   4.728  0.9514 -1.9191 -0.0879
 7213SOL    HW222453   0.501   0.933   4.613 -2.4482  0.3509 -0.6196
 7214SOL     OW22454   1.194   5.633   3.053 -0.0079  0.5681 -0.1651
 7214SOL    HW122455   1.255   5.579   3.001 -0.9748 -2.8912  2.1090
 7214SOL    HW222456   1.248   5.669   3.123 -0.0305 -0.4858  0.4156
 7215SOL     OW22457   5.406   1.087   2.451  0.1704  0.0085 -0.1739
 7215SOL    HW122458   5.410   1.172   2.496 -1.5003 -0.3062  0.5820
 7215SOL    HW222459   5.487   1.043   2.477 -0.5012  0.0541  2.1227
 7216SOL     OW22460   1.959   0.443   3.714  0.1523 -0.0092  0.2456
 7216SOL    HW122461   1.996   0.508   3.773  0.8613 -0.0755 -0.1210
 7216SOL    HW222462   1.902   0.390   3.770 -0.7787  1.2042  0.4440
 7217SOL     OW22463   4.161   6.522   4.673 -0.1287 -0.4920 -0.2517
 7217SOL    HW122464   4.197   6.582   4.739  0.5524  0.2262 -1.2501
 7217SOL    HW222465   4.072   6.555   4.658  0.1553  0.1160 -0.6116
 7218SOL     OW22466   5.981   4.684   3.700  0.2749  0.1308  0.2005
 7218SOL    HW122467   6.057   4.632   3.726 -0.6934 -1.7215 -0.6334
 7218SOL    HW222468   5.971   4.748   3.771  1.2753 -1.0124  1.4107
 7219SOL     OW22469   5.500   3.288   2.871  0.1156 -0.2759 -0.4955
 7219SOL    HW122470   5.580   3.340   2.880 -0.6642  1.0665 -1.0858
 7219SOL    HW222471   5.514   3.212   2.927  1.3451  0.5121  0.2962
 7220SOL     OW22472   6.804   7.909   7.325 -0.6703 -0.3646  0.3104
 7220SOL    HW122473   6.725   7.906   7.378 -0.3717 -1.9132  0.6970
 7220SOL    HW222474   6.873   7.877   7.383  0.6116  2.6782  0.5770
 7221SOL     OW22475   0.836   3.590   4.697  0.3344 -0.1979  0.0307
 7221SOL    HW122476   0.869   3.564   4.610  2.3019  0.3853  0.5629
 7221SOL    HW222477   0.913   3.627   4.741 -0.9137  0.5760  1.6095
 7222SOL     OW22478   6.595   2.609   6.859  0.5302 -0.3918  0.4409
 7222SOL    HW122479   6.628   2.696   6.881  0.7297 -0.0864 -1.0297
 7222SOL    HW222480   6.504   2.609   6.890  0.1113  0.8201 -0.7355
 7223SOL     OW22481   1.476   1.546   3.619  0.3843  0.4218 -0.0817
 7223SOL    HW122482   1.403   1.599   3.650 -2.1178 -1.0921 -3.0105
 7223SOL    HW222483   1.459   1.459   3.655  1.2471  0.2619 -0.0510
 7224SOL     OW22484   4.097   4.943   6.029 -0.0762  0.2793 -0.7928
 7224SOL    HW122485   4.046   5.005   5.977 -0.5016  1.4311  0.9606
 7224SOL    HW222486   4.032   4.894   6.078  0.4630  3.0619  2.9304
 7225SOL     OW22487   2.759   5.834   7.342  0.2344 -0.4817 -0.5381
 7225SOL    HW122488   2.827   5.898   7.362  0.8336 -1.4769  0.6743
 7225SOL    HW222489   2.739   5.793   7.426 -0.1933 -1.8304 -1.2842
 7226SOL     OW22490   5.654   2.101   1.513 -0.0515  0.2621  0.5554
 7226SOL    HW122491   5.693   2.061   1.590 -1.0273 -0.3843  0.7194
 7226SOL    HW222492   5.573   2.140   1.544 -0.3264  0.2102 -0.0872
 7227SOL     OW22493   5.393   7.638   7.701  0.3585 -0.3498 -0.1784
 7227SOL    HW122494   5.392   7.710   7.765 -1.0820  0.8901 -1.5509
 7227SOL    HW222495   5.480   7.600   7.709 -0.2170 -1.0556  3.4228
 7228SOL     OW22496   5.346   5.354   4.300 -0.5542 -0.2332 -0.2956
 7228SOL    HW122497   5.428   5.404   4.294 -0.5071 -0.2004  0.5684
 7228SOL    HW222498   5.326   5.331   4.209  0.9673 -1.1611 -0.4145
 7229SOL     OW22499   7.016   6.228   5.802 -0.0505  0.1966 -0.7195
 7229SOL    HW122500   6.953   6.226   5.730  1.2343 -0.8428 -1.8553
 7229SOL    HW222501   7.101   6.242   5.759  0.6063  0.5943  0.6901
 7230SOL     OW22502   6.688   7.685   3.419  0.8155 -0.3266  0.0395
 7230SOL    HW122503   6.606   7.723   3.390 -0.5488 -1.5870  2.0810
 7230SOL    HW222504   6.756   7.733   3.372 -1.0510  1.4686 -0.8491
 7231SOL     OW22505   6.651   0.878   6.784  0.0977 -0.0222 -0.1270
 7231SOL    HW122506   6.605   0.831   6.852 -1.5948  1.7852  0.0253
 7231SOL    HW222507   6.589   0.881   6.710  0.4670  1.2415 -0.4030
 7232SOL     OW22508   5.958   1.632   2.262 -0.1411  0.0586  0.1827
 7232SOL    HW122509   5.989   1.618   2.172  1.4841 -0.2543  0.7752
 7232SOL    HW222510   5.969   1.547   2.305 -1.9043 -0.0846  0.4181
 7233SOL     OW22511   3.794   7.471   5.459  0.5192 -0.4190 -0.0525
 7233SOL    HW122512   3.830   7.517   5.535  0.0106  1.1966 -0.7617
 7233SOL    HW222513   3.856   7.399   5.443  1.3847  0.0669  1.0372
 7234SOL     OW22514   1.209   6.754   6.220 -0.0735  0.6050 -0.7389
 7234SOL    HW122515   1.184   6.736   6.310  1.4189  1.8829 -0.0347
 7234SOL    HW222516   1.186   6.675   6.171 -1.3574  0.1000  0.6524
 7235SOL     OW22517   1.074   1.104   4.330  0.0187 -0.7406 -0.0806
 7235SOL    HW122518   1.048   1.077   4.418 -0.8158 -1.4722 -0.5466
 7235SOL    HW222519   1.125   1.030   4.297  2.9703  0.7503  0.9043
 7236SOL     OW22520   4.279   0.321   0.810 -0.1737  0.0527 -0.2540
 7236SOL    HW122521   4.330   0.375   0.869 -1.7238 -0.1632  1.3275
 7236SOL    HW222522   4.293   0.360   0.723  1.7238  0.6684  0.3201
 7237SOL     OW22523   4.463   1.405   4.404 -0.2813  0.0459  0.3557
 7237SOL    HW122524   4.488   1.400   4.496 -1.4761 -0.0469  0.6870
 7237SOL    HW222525   4.402   1.333   4.392 -1.1883  0.8850 -0.1536
 7238SOL     OW22526   6.204   3.163   0.172 -0.0894 -0.3335 -1.1359
 7238SOL    HW122527   6.198   3.076   0.210  0.7550  0.2637  0.3773
 7238SOL    HW222528   6.258   3.152   0.094  1.1926 -0.9183 -0.1778
 7239SOL     OW22529   3.257   0.057   4.278 -0.0873  0.1760  0.0661
 7239SOL    HW122530   3.211  -0.025   4.261  0.3225 -0.1702  0.6238
 7239SOL    HW222531   3.300   0.079   4.196 -0.1509 -0.1991 -0.0653
 7240SOL     OW22532   6.306   5.793   3.402 -0.2057 -0.5873 -0.3066
 7240SOL    HW122533   6.245   5.728   3.367  0.6348 -2.1180  0.9989
 7240SOL    HW222534   6.257   5.838   3.471 -0.1201 -1.2836  0.2132
 7241SOL     OW22535   0.528   7.467   1.637  0.6320 -0.2020  0.2354
 7241SOL    HW122536   0.500   7.402   1.701 -0.6172  0.6038  0.5328
 7241SOL    HW222537   0.446   7.497   1.597  1.2044  1.1044  0.0301
 7242SOL     OW22538   1.776   5.987   1.571 -0.3331 -0.3192 -0.0045
 7242SOL    HW122539   1.738   6.021   1.490 -0.1490 -0.6220 -0.2165
 7242SOL    HW222540   1.719   6.021   1.640 -0.9096 -0.6636 -0.3123
 7243SOL     OW22541   1.284   6.208   0.736 -0.3906  0.2966  0.2429
 7243SOL    HW122542   1.239   6.158   0.806  0.4808  0.0226  0.6127
 7243SOL    HW222543   1.351   6.257   0.782  0.4496 -0.1910 -0.4556
 7244SOL     OW22544   0.306   7.134   3.959 -0.1651  0.2575  0.7203
 7244SOL    HW122545   0.308   7.201   4.028 -2.2242  0.4446  0.6222
 7244SOL    HW222546   0.246   7.067   3.993 -0.0339 -0.3548 -0.2484
 7245SOL     OW22547   0.754   5.691   3.478 -0.0805  0.4211 -0.0040
 7245SOL    HW122548   0.681   5.670   3.420  0.6220 -0.0741 -0.7156
 7245SOL    HW222549   0.768   5.612   3.529  0.9230  0.0069 -0.9145
 7246SOL     OW22550   4.674   2.277   2.307  0.0021  0.1602 -0.4659
 7246SOL    HW122551   4.580   2.259   2.304 -0.1881  1.1246 -0.2860
 7246SOL    HW222552   4.692   2.302   2.397  0.1317  1.5282 -0.8500
 7247SOL     OW22553   0.704   4.393   2.102  0.1955 -0.7380 -0.3721
 7247SOL    HW122554   0.732   4.422   2.189 -1.3345 -0.4513  0.0463
 7247SOL    HW222555   0.785   4.376   2.055  1.0559  0.3156  0.7063
 7248SOL     OW22556   2.386   5.826   4.646  0.2775 -0.5210 -0.7767
 7248SOL    HW122557   2.463   5.839   4.702  0.4886 -0.8265 -0.9918
 7248SOL    HW222558   2.374   5.731   4.645 -1.5998 -0.3534  1.2611
 7249SOL     OW22559   4.671   7.836   3.542 -0.1798 -0.3308  0.6994
 7249SOL    HW122560   4.674   7.817   3.636 -0.8657 -0.5870  0.6725
 7249SOL    HW222561   4.761   7.821   3.512  0.6207  2.1395  1.7485
 7250SOL     OW22562   6.373   3.891   3.616  0.2772  0.3731 -0.4434
 7250SOL    HW122563   6.354   3.984   3.626  0.2295  0.3974 -0.7517
 7250SOL    HW222564   6.361   3.874   3.522 -1.2903 -0.2907 -0.1450
 7251SOL     OW22565   2.490   7.873   1.345  0.2913 -0.2265 -0.2773
 7251SOL    HW122566   2.495   7.940   1.413  1.8654 -1.1451  0.5354
 7251SOL    HW222567   2.399   7.846   1.344 -1.0633  3.9656 -2.6004
 7252SOL     OW22568   5.012   2.200   2.001  0.3504 -0.3900  0.1774
 7252SOL    HW122569   4.950   2.127   1.995  2.0081 -1.8919  1.0608
 7252SOL    HW222570   5.030   2.224   1.910  1.5216 -2.5941 -0.2050
 7253SOL     OW22571   5.520   6.000   2.527  0.0064  0.3627  0.1330
 7253SOL    HW122572   5.584   5.941   2.567 -0.2922  0.3327  0.5640
 7253SOL    HW222573   5.573   6.076   2.499  0.2579  0.2608  0.3285
 7254SOL     OW22574   7.232   2.451   2.470  0.2292 -0.2442  0.1340
 7254SOL    HW122575   7.276   2.368   2.449 -0.4885 -0.3083 -1.1318
 7254SOL    HW222576   7.276   2.481   2.549 -0.3032 -2.4350  1.3133
 7255SOL     OW22577   1.538   1.874   7.310 -0.0150 -0.8296  0.3163
 7255SOL    HW122578   1.458   1.909   7.272 -0.9604 -1.2163  1.9155
 7255SOL    HW222579   1.590   1.951   7.332 -0.3361 -0.5486  0.0866
 7256SOL     OW22580   1.711   1.037   7.032 -0.2421  0.3796 -0.3010
 7256SOL    HW122581   1.740   0.985   7.106 -1.6942 -0.7316 -0.5013
 7256SOL    HW222582   1.664   1.111   7.070 -1.3093 -0.3913 -0.1355
 7257SOL     OW22583   0.005   7.192   5.349 -0.3398 -0.4424 -0.1817
 7257SOL    HW122584  -0.064   7.126   5.340  1.1421 -1.8186 -1.5893
 7257SOL    HW222585   0.082   7.143   5.375  0.5292  0.8852 -0.2272
 7258SOL     OW22586   7.867   1.282   0.195  0.5881  0.3171  0.2735
 7258SOL    HW122587   7.794   1.273   0.133  0.1970 -2.4180  1.0650
 7258SOL    HW222588   7.940   1.236   0.154  0.3391 -1.4810  1.7644
 7259SOL     OW22589   7.709   3.466   4.642  0.1583  0.4292  0.8560
 7259SOL    HW122590   7.680   3.403   4.708 -0.3270  0.6204  0.8276
 7259SOL    HW222591   7.636   3.471   4.580  0.5503  0.3661  0.3874
 7260SOL     OW22592   7.147   6.416   6.868 -0.1218 -0.7552  0.3937
 7260SOL    HW122593   7.094   6.477   6.920 -0.6523  0.0363 -1.0457
 7260SOL    HW222594   7.199   6.369   6.933 -3.3601 -2.3524  1.9437
 7261SOL     OW22595   1.297   5.584   7.284  0.3873  0.2828  0.2840
 7261SOL    HW122596   1.208   5.605   7.255  0.5101 -0.2618 -0.5053
 7261SOL    HW222597   1.311   5.639   7.361 -1.5717 -1.4814  1.9667
 7262SOL     OW22598   7.099   7.454   0.228 -0.1438  0.0171  0.0858
 7262SOL    HW122599   7.139   7.372   0.202  1.9643  0.9919  0.1272
 7262SOL    HW222600   7.045   7.432   0.304  1.9134 -1.0028  1.2816
 7263SOL     OW22601   7.129   7.949   7.927 -0.2288 -0.2945  0.3671
 7263SOL    HW122602   7.201   7.967   7.988 -0.6132 -1.0908  1.0664
 7263SOL    HW222603   7.116   7.854   7.933 -0.8157 -0.2618 -0.3410
 7264SOL     OW22604   0.850   3.225   0.606  0.8422  0.1609 -0.0556
 7264SOL    HW122605   0.761   3.203   0.580  0.1066  2.8483  0.0163
 7264SOL    HW222606   0.868   3.170   0.683  0.1316 -2.0676 -1.4517
 7265SOL     OW22607   0.881   2.371   6.996  0.5559 -0.2677  0.3979
 7265SOL    HW122608   0.809   2.343   7.052 -0.5141 -0.1488 -0.8753
 7265SOL    HW222609   0.941   2.417   7.054 -1.2460  1.1323  1.1903
 7266SOL     OW22610   5.135   3.633   7.475 -0.0287  0.4512 -0.1574
 7266SOL    HW122611   5.219   3.644   7.430  1.0736  1.0306  1.9470
 7266SOL    HW222612   5.116   3.720   7.510 -1.6009  0.3553 -0.7635
 7267SOL     OW22613   1.164   1.306   1.784 -0.4148 -0.1042  0.0529
 7267SOL    HW122614   1.200   1.395   1.775  1.0812 -0.8333 -1.2836
 7267SOL    HW222615   1.229   1.259   1.836 -0.3463 -0.8948 -0.7394
 7268SOL     OW22616   6.242   5.366   1.451 -0.3666 -0.0166  0.5213
 7268SOL    HW122617   6.331   5.379   1.483 -0.8446  2.0650  1.0859
 7268SOL    HW222618   6.199   5.450   1.465 -1.4660  0.0359 -2.8375
 7269SOL     OW22619   6.867   6.816   6.563 -0.1995  0.2329  0.5163
 7269SOL    HW122620   6.818   6.895   6.541  0.9956  1.2180  1.3504
 7269SOL    HW222621   6.952   6.847   6.593  0.4882 -1.3943  0.3520
 7270SOL     OW22622   4.117   6.908   5.754 -0.2089 -0.0938  0.6090
 7270SOL    HW122623   4.161   6.896   5.670  0.6720  2.4023  0.6947
 7270SOL    HW222624   4.058   6.832   5.761  2.2692 -2.2098 -0.5940
 7271SOL     OW22625   0.513   6.148   3.564 -0.3098 -0.7507 -0.9063
 7271SOL    HW122626   0.601   6.177   3.540 -0.7554  0.5550 -1.0098
 7271SOL    HW222627   0.495   6.190   3.648 -1.6535  0.8021 -1.9087
 7272SOL     OW22628   4.387   6.755   6.585 -0.4625  0.3472  0.0541
 7272SOL    HW122629   4.348   6.842   6.597  0.5179  1.0002 -1.2344
 7272SOL    HW222630   4.375   6.737   6.491  1.1601  0.0069 -0.1064
 7273SOL     OW22631   0.396   5.357   4.939  0.2028 -0.5451  0.2935
 7273SOL    HW122632   0.434   5.301   4.871 -0.3487 -0.1948 -0.3043
 7273SOL    HW222633   0.310   5.382   4.905 -0.0120 -0.2377  1.0492
 7274SOL     OW22634   0.996   0.667   2.343  0.4680  0.2540  0.3656
 7274SOL    HW122635   1.087   0.649   2.321  0.3847 -0.7002  0.7596
 7274SOL    HW222636   0.957   0.701   2.263  0.9895 -0.0366 -0.0076
 7275SOL     OW22637   7.837   0.549   0.650 -0.0554  0.0506  0.6964
 7275SOL    HW122638   7.823   0.462   0.687 -0.5439 -0.2719 -0.2540
 7275SOL    HW222639   7.749   0.586   0.640  0.0826  0.1709 -0.0688
 7276SOL     OW22640   0.629   5.760   2.718  0.1893  0.1447  0.0666
 7276SOL    HW122641   0.655   5.672   2.691  2.4901  0.6926  0.3590
 7276SOL    HW222642   0.571   5.746   2.793 -0.2989 -1.1504 -0.5498
 7277SOL     OW22643   3.420   3.250   2.310 -0.6300 -0.2859 -0.2120
 7277SOL    HW122644   3.512   3.252   2.338 -0.5898  2.0537 -0.4042
 7277SOL    HW222645   3.372   3.224   2.389  0.1633 -1.5157 -0.1041
 7278SOL     OW22646   3.706   3.321   1.380  0.0967  0.1789 -0.3173
 7278SOL    HW122647   3.697   3.352   1.470 -1.2160  0.1321 -0.4256
 7278SOL    HW222648   3.624   3.274   1.363 -0.3425  1.5227 -2.0467
 7279SOL     OW22649   4.896   0.388   6.038 -0.1424  0.1363  0.3265
 7279SOL    HW122650   4.863   0.403   6.126 -0.8698 -0.6817  0.2042
 7279SOL    HW222651   4.860   0.460   5.986  0.1634  0.5334  0.6634
 7280SOL     OW22652   6.433   0.109   5.293  0.0336  0.1053  0.0495
 7280SOL    HW122653   6.456   0.144   5.207  0.0535 -1.2224 -0.4997
 7280SOL    HW222654   6.426   0.014   5.279 -0.2154 -0.0922  1.4536
 7281SOL     OW22655   5.081   3.361   0.919 -0.3905 -0.2534  0.2946
 7281SOL    HW122656   5.019   3.404   0.978 -0.9706 -1.3931  0.5208
 7281SOL    HW222657   5.150   3.426   0.905 -1.4847  0.9041  0.2877
 7282SOL     OW22658   4.819   2.394   7.188  0.1032 -0.2585  0.2571
 7282SOL    HW122659   4.840   2.389   7.282  0.5678  0.9135  0.2157
 7282SOL    HW222660   4.825   2.487   7.167  1.2916 -0.6716 -1.2443
 7283SOL     OW22661   4.622   5.596   1.800  0.2291  0.2094  0.0006
 7283SOL    HW122662   4.568   5.534   1.750 -1.0625  1.0540  0.3477
 7283SOL    HW222663   4.677   5.540   1.855  0.3363 -0.6779 -0.9871
 7284SOL     OW22664   4.048   3.345   5.634  0.2105 -0.3265  0.7258
 7284SOL    HW122665   4.035   3.430   5.591 -2.6511 -0.8032  0.5103
 7284SOL    HW222666   3.980   3.343   5.702  1.1606 -1.8548  1.6506
 7285SOL     OW22667   2.610   4.127   1.463 -0.0164  0.2056 -0.4641
 7285SOL    HW122668   2.654   4.041   1.464 -0.5561 -0.0691  0.7456
 7285SOL    HW222669   2.676   4.188   1.496  0.2534  0.2017 -0.9908
 7286SOL     OW22670   5.765   7.245   7.025  0.6544 -0.0045  0.0550
 7286SOL    HW122671   5.709   7.270   6.951  1.6763  0.4769 -0.5764
 7286SOL    HW222672   5.789   7.154   7.006 -1.6567 -0.9279  1.4509
 7287SOL     OW22673   5.125   5.263   3.812  0.2118  0.1382 -0.2647
 7287SOL    HW122674   5.126   5.207   3.735  0.9563 -0.9058  0.4831
 7287SOL    HW222675   5.036   5.299   3.815 -0.1589 -0.6982 -0.9748
 7288SOL     OW22676   1.803   6.647   2.913 -0.2329 -0.0560  0.1676
 7288SOL    HW122677   1.749   6.610   2.982 -0.8326  1.2604  0.4231
 7288SOL    HW222678   1.798   6.742   2.927 -0.2892  0.2213 -1.6293
 7289SOL     OW22679   7.998   4.954   0.576  0.1304 -0.1969 -0.1011
 7289SOL    HW122680   8.025   4.947   0.484  0.3489  1.7942 -0.2310
 7289SOL    HW222681   7.908   4.987   0.572 -0.4293 -1.6403  0.3923
 7290SOL     OW22682   5.700   6.272   3.225  0.1648  0.0268 -0.4728
 7290SOL    HW122683   5.681   6.305   3.313  2.5284 -1.0027  0.4720
 7290SOL    HW222684   5.682   6.178   3.230  2.0317 -0.3681 -0.5043
 7291SOL     OW22685   0.298   2.366   6.263 -0.2127  0.3355  0.4884
 7291SOL    HW122686   0.209   2.399   6.251 -0.9026 -1.7583 -0.5198
 7291SOL    HW222687   0.287   2.288   6.318  0.7835 -0.8415 -0.9286
 7292SOL     OW22688   6.946   0.760   4.040 -0.1686 -1.0393 -0.1038
 7292SOL    HW122689   6.984   0.783   3.955 -1.9884  0.7896 -0.4704
 7292SOL    HW222690   7.020   0.757   4.100  0.6508  2.2728 -0.8234
 7293SOL     OW22691   0.096   4.467   5.465 -0.7346 -0.2445 -0.2140
 7293SOL    HW122692   0.105   4.439   5.374  0.3930  0.2412 -0.2628
 7293SOL    HW222693   0.182   4.450   5.503 -1.0259  0.1238  0.6008
 7294SOL     OW22694   1.203   7.606   5.013 -0.5247 -0.0613 -0.1006
 7294SOL    HW122695   1.246   7.596   4.928 -1.8337 -1.7363 -0.5922
 7294SOL    HW222696   1.208   7.520   5.053  0.5976  0.8573  1.8084
 7295SOL     OW22697   0.508   4.393   3.944 -0.3804 -0.3555 -0.7332
 7295SOL    HW122698   0.506   4.468   3.884 -0.1735  0.5335  0.3596
 7295SOL    HW222699   0.418   4.362   3.946 -0.0624 -1.4855 -2.8552
 7296SOL     OW22700   2.836   7.695   7.952 -0.3326  0.0307  0.0613
 7296SOL    HW122701   2.878   7.749   8.019  0.6369  0.2361 -0.7091
 7296SOL    HW222702   2.745   7.723   7.953 -0.5398 -0.6195  1.9466
 7297SOL     OW22703   5.651   4.046   1.886 -0.1011  0.4948 -0.1776
 7297SOL    HW122704   5.619   4.136   1.896 -1.2947  0.1928 -1.2666
 7297SOL    HW222705   5.680   4.041   1.795 -2.1515 -0.8766 -0.7860
 7298SOL     OW22706   7.448   7.907   7.688 -0.1574  0.2735  0.3786
 7298SOL    HW122707   7.408   7.859   7.616  1.4785  1.5955 -1.4689
 7298SOL    HW222708   7.415   7.996   7.679 -1.8775 -0.0644  2.7884
 7299SOL     OW22709   7.395   7.879   6.932  0.5765  0.2082 -0.2145
 7299SOL    HW122710   7.489   7.895   6.941  1.0561 -1.8698 -1.1469
 7299SOL    HW222711   7.359   7.963   6.905  1.6795  1.8450  3.1676
 7300SOL     OW22712   1.655   1.304   7.169 -0.0753 -0.4103 -0.1629
 7300SOL    HW122713   1.575   1.330   7.215  0.0614  1.4159 -0.9217
 7300SOL    HW222714   1.723   1.360   7.204  0.8371 -1.7685  0.2690
 7301SOL     OW22715   2.643   7.722   3.065 -0.6913 -0.3291  0.1081
 7301SOL    HW122716   2.694   7.641   3.078  0.8876  0.3303 -1.7655
 7301SOL    HW222717   2.589   7.705   2.988 -0.8225  0.1654  0.0889
 7302SOL     OW22718   0.021   5.775   5.021  0.1278  0.1903 -0.1127
 7302SOL    HW122719  -0.070   5.804   5.022 -0.6067 -1.9902  0.0701
 7302SOL    HW222720   0.050   5.783   5.111 -0.6838 -1.3664  0.3211
 7303SOL     OW22721   6.953   0.422   7.726  0.1071 -0.2998 -0.4102
 7303SOL    HW122722   7.016   0.494   7.716  0.4078 -0.8961 -3.1986
 7303SOL    HW222723   6.914   0.412   7.639 -3.2354 -0.5298  1.0345
 7304SOL     OW22724   1.297   6.001   5.784  0.1358  0.2358  0.0698
 7304SOL    HW122725   1.238   6.069   5.751  0.5432  0.8635  0.6156
 7304SOL    HW222726   1.372   6.004   5.724  0.3813  0.6211  0.3920
 7305SOL     OW22727   5.853   4.758   6.238 -0.1544 -0.0411 -0.2232
 7305SOL    HW122728   5.854   4.850   6.213 -0.3349  0.3798  1.2873
 7305SOL    HW222729   5.773   4.748   6.290  0.2045 -0.8965  0.1777
 7306SOL     OW22730   7.203   1.827   3.426 -0.1343  0.1900 -0.1138
 7306SOL    HW122731   7.116   1.798   3.455 -0.6645  0.2266 -1.6280
 7306SOL    HW222732   7.186   1.880   3.348  1.3923 -1.4608 -1.6258
 7307SOL     OW22733   1.640   5.205   7.810 -0.1444  0.7864 -0.1847
 7307SOL    HW122734   1.622   5.220   7.718  1.8135 -0.4584 -0.8022
 7307SOL    HW222735   1.704   5.134   7.811 -0.7898  0.1876  2.1682
 7308SOL     OW22736   0.819   2.513   3.213 -0.0938 -0.0423  0.4133
 7308SOL    HW122737   0.890   2.577   3.222 -1.3999  1.3993  0.7235
 7308SOL    HW222738   0.809   2.476   3.301  1.5610 -1.6832 -0.0601
 7309SOL     OW22739   4.225   5.831   4.016 -0.0874 -0.9104 -0.4866
 7309SOL    HW122740   4.150   5.839   3.956 -0.4271  0.7578  0.1164
 7309SOL    HW222741   4.258   5.921   4.024  0.5626 -1.2767  1.0540
 7310SOL     OW22742   5.334   6.598   6.172  0.4236 -0.4136 -0.0234
 7310SOL    HW122743   5.242   6.581   6.151  0.6358  0.1074 -1.4586
 7310SOL    HW222744   5.331   6.674   6.230  0.0990  1.5388 -2.5332
 7311SOL     OW22745   6.606   4.372   1.418  0.2728  0.3251  0.0699
 7311SOL    HW122746   6.669   4.421   1.470  0.0315 -0.7175  1.3859
 7311SOL    HW222747   6.649   4.359   1.333  2.6533 -2.0210  1.5664
 7312SOL     OW22748   7.407   4.445   1.035 -0.3110  0.2614  0.0796
 7312SOL    HW122749   7.328   4.487   1.069 -0.4421  0.5583 -0.5778
 7312SOL    HW222750   7.376   4.389   0.964 -0.0745 -0.5760  0.6391
 7313SOL     OW22751   1.697   0.951   3.750  0.1328 -0.2007 -0.4328
 7313SOL    HW122752   1.721   0.950   3.657  0.1816  0.0603 -0.4251
 7313SOL    HW222753   1.761   1.009   3.790 -0.4798  0.4661 -0.4057
 7314SOL     OW22754   7.159   1.222   3.962  0.3069  0.0499 -0.6230
 7314SOL    HW122755   7.211   1.185   4.032 -1.0119 -0.7071 -0.0388
 7314SOL    HW222756   7.095   1.154   3.940 -1.0331  1.3053 -0.6907
 7315SOL     OW22757   5.407   4.670   7.006  0.1282  0.4187 -0.8138
 7315SOL    HW122758   5.319   4.707   7.009  0.2917  0.6980  1.4401
 7315SOL    HW222759   5.442   4.697   6.922 -1.0841  2.3019 -0.7313
 7316SOL     OW22760   7.662   5.519   1.852 -0.4946 -0.7243  0.3109
 7316SOL    HW122761   7.581   5.571   1.852  0.8959  1.5327  1.8630
 7316SOL    HW222762   7.729   5.580   1.882  1.9798 -2.3285 -1.7841
 7317SOL     OW22763   7.812   7.298   7.195 -0.0241  0.1232 -0.1023
 7317SOL    HW122764   7.741   7.247   7.156 -0.8921  0.7439  0.6423
 7317SOL    HW222765   7.889   7.277   7.141 -1.0290  0.4108 -1.6783
 7318SOL     OW22766   6.668   4.373   1.801  0.4740 -0.3086 -0.1707
 7318SOL    HW122767   6.724   4.295   1.800  0.0970 -0.5780 -0.1685
 7318SOL    HW222768   6.599   4.353   1.864  0.8463  0.3624  0.4747
 7319SOL     OW22769   2.456   3.599   7.200  0.7893  0.0584 -0.0142
 7319SOL    HW122770   2.363   3.574   7.197  0.4114  1.6124 -1.9674
 7319SOL    HW222771   2.495   3.556   7.124  1.8489 -1.0913  1.1381
 7320SOL     OW22772   1.213   5.369   1.764  0.4282 -0.3812 -0.3227
 7320SOL    HW122773   1.278   5.440   1.765  0.4195 -0.3931  1.2029
 7320SOL    HW222774   1.203   5.348   1.671  1.7126  0.4494 -0.6672
 7321SOL     OW22775   7.147   0.598   2.776  0.2403  0.1279  0.3204
 7321SOL    HW122776   7.113   0.566   2.860  0.9907  1.0827  1.0025
 7321SOL    HW222777   7.121   0.690   2.773  0.8079  0.2765 -0.1876
 7322SOL     OW22778   2.718   5.344   4.364 -0.1686 -0.1850  0.1386
 7322SOL    HW122779   2.671   5.421   4.333 -0.5077 -0.1177  0.8019
 7322SOL    HW222780   2.763   5.310   4.287  0.8612  1.3040  0.0627
 7323SOL     OW22781   0.356   5.599   0.904 -0.5389 -0.6250  0.9526
 7323SOL    HW122782   0.290   5.617   0.837 -0.1538 -2.9285 -0.0921
 7323SOL    HW222783   0.440   5.620   0.863 -0.4245 -0.4888  1.2550
 7324SOL     OW22784   5.080   2.765   4.931  0.2011  0.2004  0.0280
 7324SOL    HW122785   5.132   2.709   4.873  2.0717  1.5244  0.3700
 7324SOL    HW222786   5.047   2.834   4.874  0.7617  0.6483  0.2415
 7325SOL     OW22787   7.590   5.207   1.377  0.3664 -0.2293 -0.0219
 7325SOL    HW122788   7.660   5.263   1.409 -0.1837  0.7479 -0.5026
 7325SOL    HW222789   7.597   5.211   1.281 -0.1895 -0.3259 -0.0712
 7326SOL     OW22790   3.526   4.439   0.257  0.4846  0.0099  0.0016
 7326SOL    HW122791   3.544   4.363   0.312  2.1343 -0.4241 -1.1006
 7326SOL    HW222792   3.541   4.409   0.168 -0.5789  1.1549 -0.5798
 7327SOL     OW22793   6.943   3.854   7.248 -0.4673 -0.4335 -0.0868
 7327SOL    HW122794   7.033   3.824   7.265  0.3321  0.2997 -2.7769
 7327SOL    HW222795   6.954   3.930   7.191 -2.7304  1.0896  1.4735
 7328SOL     OW22796   6.811   2.304   2.447  0.5670 -0.1324  0.2415
 7328SOL    HW122797   6.746   2.263   2.503  2.7842  0.2197  3.2069
 7328SOL    HW222798   6.777   2.392   2.431 -1.4998 -1.1981 -1.5260
 7329SOL     OW22799   3.191   7.445   5.960 -0.1824 -1.1254  0.2115
 7329SOL    HW122800   3.228   7.392   5.889  1.1870  0.5330 -0.3489
 7329SOL    HW222801   3.113   7.486   5.923  0.2980 -0.5902 -0.2024
 7330SOL     OW22802   0.635   3.332   2.763 -0.4138 -0.1322  0.7459
 7330SOL    HW122803   0.602   3.278   2.835 -1.0317  0.5356  0.9711
 7330SOL    HW222804   0.654   3.269   2.692  0.5567 -0.8326  1.6098
 7331SOL     OW22805   7.425   1.196   1.820 -0.6406  0.4029  0.0232
 7331SOL    HW122806   7.425   1.143   1.740  0.1104 -0.6186  0.6924
 7331SOL    HW222807   7.343   1.176   1.863  0.5680 -1.8416  1.3293
 7332SOL     OW22808   4.584   4.147   0.368  0.8511  0.4106  0.0682
 7332SOL    HW122809   4.607   4.238   0.386  2.3148  0.4699 -1.8112
 7332SOL    HW222810   4.583   4.105   0.453  2.1989  1.7534  0.7812
 7333SOL     OW22811   5.676   2.179   0.130 -0.2455  0.0173 -0.7338
 7333SOL    HW122812   5.709   2.136   0.208 -1.0329  1.0599  0.1955
 7333SOL    HW222813   5.732   2.148   0.059  1.4982  0.2974  0.5008
 7334SOL     OW22814   3.000   4.261   6.641 -0.6324 -0.0265 -0.3778
 7334SOL    HW122815   3.061   4.200   6.601 -0.3531 -0.9252  1.3716
 7334SOL    HW222816   3.025   4.264   6.733 -1.5881  1.5952 -0.1417
 7335SOL     OW22817   1.135   7.632   0.566  0.0891  0.1016 -0.4074
 7335SOL    HW122818   1.195   7.633   0.641 -0.6790  1.8307  0.1956
 7335SOL    HW222819   1.181   7.680   0.498 -0.7743  1.8282  0.2034
 7336SOL     OW22820   0.698   2.579   0.937 -0.0361 -0.2966  0.1685
 7336SOL    HW122821   0.733   2.661   0.972  0.3857 -0.1685 -0.5479
 7336SOL    HW222822   0.764   2.513   0.958 -0.4133 -0.4702  0.8176
 7337SOL     OW22823   1.355   1.842   6.968 -0.2658 -0.4584  0.5148
 7337SOL    HW122824   1.423   1.893   6.925 -1.3775 -0.7015 -1.6111
 7337SOL    HW222825   1.336   1.890   7.048 -0.3233  1.7350 -0.7776
 7338SOL     OW22826   2.135   4.703   4.042  0.5694  0.7878  0.3862
 7338SOL    HW122827   2.164   4.617   4.072  0.0164 -0.0091 -1.3188
 7338SOL    HW222828   2.210   4.739   3.996  0.8153  1.2501  1.1382
 7339SOL     OW22829   6.744   7.248   5.255 -0.7024 -0.1304  0.0471
 7339SOL    HW122830   6.785   7.161   5.247 -2.0541 -0.7649 -0.1762
 7339SOL    HW222831   6.716   7.252   5.346 -3.2077 -1.1377 -0.6245
 7340SOL     OW22832   2.171   1.381   5.786  0.0312  0.1648 -0.4537
 7340SOL    HW122833   2.226   1.445   5.741  1.0375 -1.5943 -1.7617
 7340SOL    HW222834   2.100   1.363   5.725  0.1907 -0.5819 -0.4203
 7341SOL     OW22835   3.695   1.172   1.764 -0.0783  0.1440  0.3463
 7341SOL    HW122836   3.647   1.113   1.706 -0.6307  1.4584 -0.5500
 7341SOL    HW222837   3.633   1.190   1.836 -0.4307  0.7134 -0.0892
 7342SOL     OW22838   1.115   6.745   5.618  0.2652 -0.4140 -0.1141
 7342SOL    HW122839   1.153   6.828   5.648  1.2171 -1.2644  1.0843
 7342SOL    HW222840   1.186   6.702   5.572  1.8587 -3.3343  4.6564
 7343SOL     OW22841   5.476   5.786   1.541 -0.0008 -0.2880 -0.1722
 7343SOL    HW122842   5.547   5.722   1.541  0.6983  0.4574  1.1934
 7343SOL    HW222843   5.399   5.737   1.511  0.3942 -1.9130  1.4022
 7344SOL     OW22844   7.626   7.908   2.825 -0.0184 -0.0053  0.0141
 7344SOL    HW122845   7.532   7.906   2.841 -0.0166 -0.5491 -0.0555
 7344SOL    HW222846   7.634   7.941   2.735 -0.1123  0.6785  0.2474
 7345SOL     OW22847   0.601   1.234   2.276 -0.1345  0.6426  0.3275
 7345SOL    HW122848   0.551   1.158   2.245  1.6074 -0.1626 -0.5894
 7345SOL    HW222849   0.652   1.261   2.201  0.4379  1.7749  1.1124
 7346SOL     OW22850   3.360   1.349   6.507  0.5974 -0.4813  0.3532
 7346SOL    HW122851   3.321   1.264   6.484 -1.0392  0.0877  0.9612
 7346SOL    HW222852   3.368   1.394   6.423 -1.6751  0.0483  0.3842
 7347SOL     OW22853   6.291   3.415   6.107  0.0954 -0.3542  0.1077
 7347SOL    HW122854   6.207   3.378   6.080 -0.0155  0.0477 -0.0970
 7347SOL    HW222855   6.288   3.506   6.078  1.6446 -1.0008 -2.1942
 7348SOL     OW22856   5.082   6.500   5.316  0.1540 -0.3118  0.0063
 7348SOL    HW122857   5.136   6.457   5.382  1.0466  0.9278  0.1026
 7348SOL    HW222858   5.007   6.442   5.305 -0.5441 -0.0386  2.8766
 7349SOL     OW22859   4.129   7.803   0.564  0.7117  0.4388 -0.4863
 7349SOL    HW122860   4.210   7.766   0.601  0.4197 -0.0946 -0.3681
 7349SOL    HW222861   4.097   7.734   0.506 -1.7691 -1.0183  2.4744
 7350SOL     OW22862   6.369   1.085   3.747  0.4464 -0.0171 -0.4404
 7350SOL    HW122863   6.437   1.150   3.767 -0.7472  0.7929  1.0527
 7350SOL    HW222864   6.391   1.010   3.804 -0.3143  0.5306  0.5945
 7351SOL     OW22865   2.840   2.465   1.071 -0.2346  0.6414  0.2944
 7351SOL    HW122866   2.830   2.534   1.004  1.9175  0.4382 -0.2739
 7351SOL    HW222867   2.758   2.416   1.066  0.2372  0.0536 -2.8879
 7352SOL     OW22868   1.409   1.418   6.590  0.2565  0.1811  0.0286
 7352SOL    HW122869   1.477   1.366   6.632  1.4963  0.4931 -1.5727
 7352SOL    HW222870   1.331   1.361   6.592  1.0295 -0.8854  0.2085
 7353SOL     OW22871   3.266   3.188   7.437 -0.0178 -0.4358 -0.1832
 7353SOL    HW122872   3.237   3.252   7.503 -0.5491 -0.0992 -0.7367
 7353SOL    HW222873   3.336   3.233   7.390 -1.2175  0.2226 -1.3825
 7354SOL     OW22874   6.467   6.184   6.414 -0.2227  0.2893 -0.2134
 7354SOL    HW122875   6.388   6.203   6.363 -1.1632  1.1980  1.5099
 7354SOL    HW222876   6.517   6.265   6.412 -0.7878  0.6995  1.1565
 7355SOL     OW22877   7.289   1.131   4.175  0.0860 -0.1035  0.5694
 7355SOL    HW122878   7.343   1.200   4.213 -0.7233  0.9417 -0.1493
 7355SOL    HW222879   7.230   1.105   4.245  1.5042 -1.2453  1.3542
 7356SOL     OW22880   3.315   6.929   3.316 -0.3492 -0.2236 -0.1431
 7356SOL    HW122881   3.388   6.884   3.274 -0.3359 -0.7711  0.4595
 7356SOL    HW222882   3.352   6.967   3.395 -0.2327  1.3294 -0.9205
 7357SOL     OW22883   5.956   0.264   4.711  0.4095 -0.5294  0.3477
 7357SOL    HW122884   5.987   0.339   4.661 -1.2180 -0.6624 -0.8831
 7357SOL    HW222885   5.891   0.222   4.655 -0.7747 -1.2244  2.1920
 7358SOL     OW22886   1.564   0.950   7.595  0.6528 -0.1918  0.0354
 7358SOL    HW122887   1.527   0.954   7.683 -0.2854 -2.3172 -0.2233
 7358SOL    HW222888   1.534   1.030   7.552  0.2316  0.3443  1.3145
 7359SOL     OW22889   7.648   1.702   5.386  0.1158  0.6963 -0.0358
 7359SOL    HW122890   7.585   1.764   5.348 -0.6513  0.7813  1.3367
 7359SOL    HW222891   7.722   1.703   5.326 -1.0573  0.8512 -1.4980
 7360SOL     OW22892   4.983   0.169   5.160  0.0198  0.4661 -0.3641
 7360SOL    HW122893   4.980   0.074   5.172 -0.8783  0.8611  3.2068
 7360SOL    HW222894   5.045   0.182   5.088  1.1150 -2.7720 -0.1105
 7361SOL     OW22895   0.451   4.610   2.291 -0.5413  0.2837  0.0850
 7361SOL    HW122896   0.472   4.518   2.275 -0.2245  0.0427  1.7994
 7361SOL    HW222897   0.533   4.649   2.321 -1.2010  0.5893  1.5721
 7362SOL     OW22898   2.797   2.822   2.938  0.3392  0.3676  0.1081
 7362SOL    HW122899   2.723   2.762   2.928  1.4291 -1.0536  0.2984
 7362SOL    HW222900   2.831   2.805   3.026  2.8934 -1.4434 -1.1287
 7363SOL     OW22901   5.015   4.748   2.741 -0.0738 -0.7000 -0.2277
 7363SOL    HW122902   5.007   4.837   2.706 -0.3350 -0.5150  0.2884
 7363SOL    HW222903   4.928   4.710   2.730 -0.6267 -0.0814  1.6795
 7364SOL     OW22904   0.879   6.464   2.797  0.6151  0.0541 -0.2107
 7364SOL    HW122905   0.795   6.491   2.835 -0.4442  1.3700 -3.2911
 7364SOL    HW222906   0.867   6.372   2.775  0.6391 -0.2576  1.0655
 7365SOL     OW22907   4.298   7.007   7.178 -0.1517 -0.9066  0.2055
 7365SOL    HW122908   4.236   7.078   7.193  0.0776 -0.8148  0.7111
 7365SOL    HW222909   4.282   6.980   7.087 -2.2351 -2.1184  0.8846
 7366SOL     OW22910   6.039   3.474   7.175 -0.0454 -0.1315 -0.1230
 7366SOL    HW122911   5.988   3.515   7.245 -0.4349  1.9780 -1.6008
 7366SOL    HW222912   5.973   3.433   7.119  0.1170 -0.1504 -0.2976
 7367SOL     OW22913   2.000   4.663   7.164  0.6738 -0.2256  0.4705
 7367SOL    HW122914   1.967   4.708   7.242 -1.8990 -1.2745  0.0245
 7367SOL    HW222915   1.975   4.572   7.176 -1.3289 -0.1020 -2.3829
 7368SOL     OW22916   1.112   1.697   5.078  0.1180  0.4162  0.0621
 7368SOL    HW122917   1.162   1.688   4.997  0.9861  0.1019  0.6258
 7368SOL    HW222918   1.141   1.624   5.133 -1.9753 -0.5940 -0.1230
 7369SOL     OW22919   4.404   4.089   2.155 -0.4574 -0.5249  0.0067
 7369SOL    HW122920   4.374   4.179   2.143 -0.3768 -0.5774 -0.6221
 7369SOL    HW222921   4.463   4.093   2.231 -1.6676 -0.3407  0.9581
 7370SOL     OW22922   0.144   4.703   2.412  0.1604 -0.1319 -0.4887
 7370SOL    HW122923   0.159   4.614   2.445 -2.3057 -0.6622 -0.6966
 7370SOL    HW222924   0.155   4.759   2.488  0.5210 -0.7461 -0.0845
 7371SOL     OW22925   1.349   7.000   6.478  0.1053 -0.2729 -0.3457
 7371SOL    HW122926   1.330   6.912   6.510  0.3075  0.8458  2.9968
 7371SOL    HW222927   1.265   7.034   6.449 -0.4436 -0.5899  0.8589
 7372SOL     OW22928   5.892   6.976   7.897 -0.4229  0.0746  0.4733
 7372SOL    HW122929   5.823   6.916   7.868 -2.4786  2.1371  1.0250
 7372SOL    HW222930   5.883   6.978   7.992 -0.3208  1.1992  0.4628
 7373SOL     OW22931   4.915   2.685   2.228 -0.6470 -0.4332  0.1091
 7373SOL    HW122932   4.995   2.738   2.235 -0.3260 -1.0269  1.0286
 7373SOL    HW222933   4.919   2.648   2.140 -0.0797 -0.1873  0.0270
 7374SOL     OW22934   0.733   5.145   5.760 -0.3053 -0.0854 -0.4232
 7374SOL    HW122935   0.741   5.055   5.792  0.6740  0.1604  0.0462
 7374SOL    HW222936   0.719   5.135   5.666  1.1370 -0.7052 -0.5876
 7375SOL     OW22937   6.834   2.130   0.201  0.1402 -0.2730  0.2772
 7375SOL    HW122938   6.849   2.182   0.122 -0.5349 -0.2410  0.1703
 7375SOL    HW222939   6.916   2.081   0.213  1.0098  1.2826  0.7450
 7376SOL     OW22940   0.576   5.164   3.695 -0.9537  0.0679 -0.0102
 7376SOL    HW122941   0.668   5.178   3.673 -1.1598  0.9822 -0.3514
 7376SOL    HW222942   0.563   5.212   3.777 -1.7636  2.3121 -1.3819
 7377SOL     OW22943   0.022   5.884   1.381  0.8258  0.1675 -0.0437
 7377SOL    HW122944   0.099   5.871   1.327  1.9310  0.9147  1.3312
 7377SOL    HW222945   0.022   5.809   1.441  0.2032 -0.0870 -0.3560
 7378SOL     OW22946   3.413   6.379   3.166  0.5739 -0.0342  0.3713
 7378SOL    HW122947   3.382   6.298   3.127 -2.3410  1.2731 -0.2303
 7378SOL    HW222948   3.370   6.382   3.252  0.6016  0.8706  0.3659
 7379SOL     OW22949   6.534   4.976   6.578 -0.1514 -0.1031  0.3517
 7379SOL    HW122950   6.453   5.017   6.546 -1.0054 -2.9261 -1.3375
 7379SOL    HW222951   6.594   4.981   6.503 -0.6255 -2.7407 -0.2591
 7380SOL     OW22952   7.673   7.063   4.255  0.2048 -0.0796  0.0347
 7380SOL    HW122953   7.721   7.003   4.198  0.0810 -1.0323  0.9009
 7380SOL    HW222954   7.735   7.085   4.324  0.3346  1.0093 -0.4269
 7381SOL     OW22955   4.607   0.718   4.095 -0.1074 -0.3831 -0.3324
 7381SOL    HW122956   4.630   0.731   4.003 -0.7166 -2.4678 -0.8034
 7381SOL    HW222957   4.622   0.804   4.135  1.4109  0.2207 -2.0914
 7382SOL     OW22958   2.333   6.260   4.705  0.6530 -0.4655  0.6120
 7382SOL    HW122959   2.241   6.281   4.725  0.6838  1.4167 -1.0171
 7382SOL    HW222960   2.373   6.245   4.791 -0.7381  0.6564  1.4924
 7383SOL     OW22961   6.363   5.763   2.374  0.1571 -0.2838 -0.3365
 7383SOL    HW122962   6.379   5.764   2.468  0.3299 -2.4406 -0.3366
 7383SOL    HW222963   6.269   5.782   2.366 -0.0577 -1.0257  0.3226
 7384SOL     OW22964   3.816   2.303   0.894  0.0618 -0.7049 -0.1592
 7384SOL    HW122965   3.781   2.215   0.876 -1.8528 -0.3816  1.8086
 7384SOL    HW222966   3.742   2.362   0.879  0.6861  0.3352  0.7784
 7385SOL     OW22967   1.935   0.099   7.598 -0.0482 -0.3415 -0.4596
 7385SOL    HW122968   1.906   0.134   7.514 -0.5657 -1.9439 -0.9678
 7385SOL    HW222969   1.920   0.170   7.660 -0.1895  0.6575 -1.6221
 7386SOL     OW22970   4.430   4.355   4.153 -0.2357 -0.4888 -0.2122
 7386SOL    HW122971   4.394   4.348   4.241 -0.2319 -0.9937 -0.2456
 7386SOL    HW222972   4.382   4.290   4.102 -0.2028 -0.2335 -0.5684
 7387SOL     OW22973   6.169   4.675   5.874 -0.1457 -0.3850 -0.2430
 7387SOL    HW122974   6.166   4.657   5.780 -1.0055 -1.5637 -0.0168
 7387SOL    HW222975   6.262   4.675   5.897 -0.0146 -2.8405 -0.6230
 7388SOL     OW22976   2.030   0.439   4.086 -0.0281 -0.5186  0.2577
 7388SOL    HW122977   2.050   0.508   4.023 -0.6037 -0.2914  0.3183
 7388SOL    HW222978   2.039   0.358   4.038  0.8684 -0.4085  0.2393
 7389SOL     OW22979   3.651   4.303   6.257  0.1371 -0.0397  0.6546
 7389SOL    HW122980   3.717   4.369   6.279 -0.9934  1.0342  0.8952
 7389SOL    HW222981   3.577   4.353   6.224 -0.2232 -1.2971 -0.4943
 7390SOL     OW22982   6.583   3.766   4.458 -0.0674  0.5063 -0.2702
 7390SOL    HW122983   6.572   3.738   4.367 -1.2927 -0.4201  0.1492
 7390SOL    HW222984   6.624   3.852   4.452 -0.3869  0.5710 -1.7069
 7391SOL     OW22985   6.910   4.164   0.596  0.0678  0.3323  0.5571
 7391SOL    HW122986   6.926   4.218   0.519  2.5002  1.1377  1.5843
 7391SOL    HW222987   6.836   4.109   0.571  1.1392  0.1822 -2.5612
 7392SOL     OW22988   4.271   3.196   4.498 -0.4073  0.3265 -0.3021
 7392SOL    HW122989   4.278   3.156   4.411 -0.7643 -0.6375  0.1070
 7392SOL    HW222990   4.357   3.181   4.538 -1.0465 -1.4428  0.4424
 7393SOL     OW22991   3.058   4.248   0.167 -0.6572 -0.0216  0.1207
 7393SOL    HW122992   2.990   4.277   0.228 -1.2217 -0.7608 -0.1447
 7393SOL    HW222993   3.141   4.266   0.212 -1.1009 -2.3301  1.9387
 7394SOL     OW22994   5.602   0.936   2.852  0.2078 -0.0765 -0.0629
 7394SOL    HW122995   5.526   0.882   2.871  0.2350 -0.1314 -0.1108
 7394SOL    HW222996   5.601   1.004   2.920  0.3308 -0.2994  0.1630
 7395SOL     OW22997   4.313   6.689   4.837 -0.2848 -0.2285 -0.1265
 7395SOL    HW122998   4.287   6.780   4.852  0.3177  0.4593 -2.9744
 7395SOL    HW222999   4.407   6.688   4.856  0.4345  0.5928 -3.4136
 7396SOL     OW23000   2.240   6.274   5.807  0.5191 -0.4661 -0.4570
 7396SOL    HW123001   2.189   6.355   5.806 -1.4977 -1.6335  2.0659
 7396SOL    HW223002   2.318   6.296   5.857  0.2191  0.0440 -0.2007
 7397SOL     OW23003   2.787   7.487   3.382  0.0056  0.2013 -0.2395
 7397SOL    HW123004   2.880   7.509   3.393  0.2324 -1.0872  0.6085
 7397SOL    HW223005   2.765   7.438   3.462 -1.7969  1.7348  0.2264
 7398SOL     OW23006   0.234   4.151   0.867  0.2946  0.3521  0.1292
 7398SOL    HW123007   0.221   4.100   0.947  0.0171 -2.7809 -1.8281
 7398SOL    HW223008   0.316   4.118   0.831  0.1937  1.4345 -1.1164
 7399SOL     OW23009   5.625   0.604   1.767 -0.0994 -0.6897 -0.1755
 7399SOL    HW123010   5.668   0.639   1.688 -0.3164 -1.1233 -0.4870
 7399SOL    HW223011   5.692   0.549   1.808 -0.4938 -1.6871 -0.8766
 7400SOL     OW23012   7.468   6.914   0.399  0.0324 -0.3772 -0.6515
 7400SOL    HW123013   7.497   7.003   0.419  0.2238 -0.6085  0.1292
 7400SOL    HW223014   7.394   6.899   0.457 -0.8148 -0.2713 -1.6970
 7401SOL     OW23015   3.466   6.351   4.152 -0.3308 -0.0645 -0.1402
 7401SOL    HW123016   3.441   6.260   4.144 -0.5246  0.1323 -1.7857
 7401SOL    HW223017   3.562   6.349   4.155 -0.3524 -0.3615  0.3909
 7402SOL     OW23018   6.495   1.307   3.814  0.0265  0.0625  0.3700
 7402SOL    HW123019   6.558   1.373   3.785 -0.9484  0.4317 -0.9693
 7402SOL    HW223020   6.411   1.337   3.779 -1.0083 -0.1169  2.5941
 7403SOL     OW23021   6.215   4.588   1.155  0.5826 -0.5147 -0.5398
 7403SOL    HW123022   6.163   4.521   1.110 -0.7235 -1.0033  1.6169
 7403SOL    HW223023   6.150   4.645   1.196  1.7448 -0.2346  0.9340
 7404SOL     OW23024   0.271   6.441   5.965 -0.0193 -0.1409  0.1509
 7404SOL    HW123025   0.185   6.430   5.924 -1.6043 -0.3514  3.4276
 7404SOL    HW223026   0.260   6.515   6.024  2.2969  0.3120  0.0633
 7405SOL     OW23027   5.874   4.311   7.812 -0.3152  0.2728  0.1412
 7405SOL    HW123028   5.912   4.395   7.787  1.0655 -0.7223 -1.2274
 7405SOL    HW223029   5.908   4.295   7.900  0.8752  0.3200 -0.2991
 7406SOL     OW23030   4.397   0.410   5.634  0.5947 -0.3514 -0.2631
 7406SOL    HW123031   4.432   0.322   5.626 -1.2523 -1.0976 -0.4740
 7406SOL    HW223032   4.311   0.398   5.676 -0.3577  1.1817 -1.7043
 7407SOL     OW23033   5.243   0.577   0.067 -0.0291 -0.2750 -0.2169
 7407SOL    HW123034   5.232   0.552   0.158  1.0713 -1.7543 -0.4689
 7407SOL    HW223035   5.206   0.504   0.017 -0.5351  0.4719 -0.9508
 7408SOL     OW23036   1.811   2.887   1.912 -0.2354  0.0135  0.6298
 7408SOL    HW123037   1.801   2.957   1.977 -1.2049 -0.6357  1.1800
 7408SOL    HW223038   1.804   2.933   1.828 -1.6871  0.4778  0.9892
 7409SOL     OW23039   2.286   7.873   7.436 -0.1016  0.0992 -0.1604
 7409SOL    HW123040   2.199   7.834   7.441 -0.3395  0.1504 -3.2359
 7409SOL    HW223041   2.278   7.955   7.486 -1.4467 -0.4768  0.6123
 7410SOL     OW23042   6.545   0.355   7.926 -0.1276 -0.2844 -0.3844
 7410SOL    HW123043   6.591   0.305   7.858  0.2100 -0.8136  0.2291
 7410SOL    HW223044   6.508   0.288   7.984 -0.5314  0.1617 -0.1277
 7411SOL     OW23045   1.205   2.528   4.476  0.0479 -0.0341  0.6125
 7411SOL    HW123046   1.272   2.584   4.438 -1.2380  1.8968  1.0788
 7411SOL    HW223047   1.148   2.505   4.402  0.2769 -0.2877  0.5152
 7412SOL     OW23048   2.890   0.526   4.391  0.6863  0.1214 -0.4181
 7412SOL    HW123049   2.890   0.433   4.416 -0.1742  0.3495  0.4588
 7412SOL    HW223050   2.957   0.566   4.446 -0.5422  0.4442  0.8577
 7413SOL     OW23051   0.952   5.849   7.838  0.0498  0.0328  0.6370
 7413SOL    HW123052   1.024   5.792   7.864  0.8920  1.2767  1.1076
 7413SOL    HW223053   0.945   5.838   7.743  3.4983  2.8224 -0.0488
 7414SOL     OW23054   7.163   5.496   2.517  0.3273  0.1313 -0.7730
 7414SOL    HW123055   7.224   5.508   2.444  0.7524 -2.1484 -0.8615
 7414SOL    HW223056   7.171   5.575   2.569  2.2299  0.5311 -1.6320
 7415SOL     OW23057   3.801   1.965   4.330 -0.4899  0.5914  0.1719
 7415SOL    HW123058   3.730   1.992   4.272  1.0034  1.4537 -1.3022
 7415SOL    HW223059   3.880   1.970   4.275  0.7777  0.1641  1.9160
 7416SOL     OW23060   2.873   1.492   7.141 -0.1843  0.4639  0.2036
 7416SOL    HW123061   2.925   1.431   7.088 -0.4241  0.3023  0.1531
 7416SOL    HW223062   2.833   1.550   7.077 -1.0217 -0.1574  0.1547
 7417SOL     OW23063   0.082   0.326   4.357  0.3595  0.6404  0.1064
 7417SOL    HW123064   0.057   0.236   4.336  1.8784  0.3554 -0.5239
 7417SOL    HW223065   0.040   0.344   4.441  0.6005 -0.8902  0.5579
 7418SOL     OW23066   6.951   5.766   0.854  0.2755  0.2945 -0.4330
 7418SOL    HW123067   6.891   5.694   0.872 -0.6416  1.4318  1.2218
 7418SOL    HW223068   6.895   5.844   0.855  0.8381  0.8565 -4.5221
 7419SOL     OW23069   0.914   7.001   4.388 -0.3231 -0.3064  0.3255
 7419SOL    HW123070   0.967   6.922   4.388  0.7151  0.3749  0.2770
 7419SOL    HW223071   0.885   7.010   4.479 -1.5475 -1.4559  0.0596
 7420SOL     OW23072   1.801   4.141   7.687 -0.2026 -0.1272 -0.3183
 7420SOL    HW123073   1.818   4.232   7.713 -1.8048  0.4276 -1.1743
 7420SOL    HW223074   1.753   4.104   7.761  1.3226 -0.5907  0.4649
 7421SOL     OW23075   3.588   7.007   6.758 -0.2227  0.4538  0.6054
 7421SOL    HW123076   3.547   7.053   6.685  1.4440  1.0466  0.0038
 7421SOL    HW223077   3.631   7.076   6.809  2.4561 -0.4171 -0.3996
 7422SOL     OW23078   1.707   7.739   1.469 -0.0850 -0.4251 -0.0593
 7422SOL    HW123079   1.769   7.691   1.414  0.6362  0.1833  0.2114
 7422SOL    HW223080   1.691   7.680   1.543  2.3651  0.5555  1.2901
 7423SOL     OW23081   4.720   3.825   7.394 -0.1319  0.5503 -0.0074
 7423SOL    HW123082   4.703   3.918   7.410 -0.8397  0.5691 -0.8176
 7423SOL    HW223083   4.812   3.822   7.368  0.8374  0.6019  3.2473
 7424SOL     OW23084   5.998   0.574   2.972  0.0479 -0.0353  0.3054
 7424SOL    HW123085   5.975   0.482   2.963  0.2022 -0.0256 -0.2346
 7424SOL    HW223086   6.001   0.590   3.066 -0.7201 -0.3938  0.3931
 7425SOL     OW23087   3.575   4.682   4.581 -0.0935  0.3152 -0.5338
 7425SOL    HW123088   3.614   4.647   4.661 -2.1471 -1.3625 -0.2077
 7425SOL    HW223089   3.532   4.763   4.609  0.6387  0.6137 -0.2832
 7426SOL     OW23090   7.549   6.671   7.788  0.5415  0.1356 -0.3049
 7426SOL    HW123091   7.558   6.649   7.695  0.7454  1.1932 -0.5426
 7426SOL    HW223092   7.639   6.684   7.817  0.5373 -1.0184  0.2559
 7427SOL     OW23093   5.489   2.207   3.418 -0.7087 -0.1186  0.3307
 7427SOL    HW123094   5.463   2.115   3.416  0.9386 -0.5772 -2.3458
 7427SOL    HW223095   5.478   2.237   3.328 -0.2477  2.0311  0.9653
 7428SOL     OW23096   6.102   0.430   4.537  0.2437  0.1023  0.2997
 7428SOL    HW123097   6.181   0.464   4.579  0.5779 -1.3196  0.8291
 7428SOL    HW223098   6.056   0.508   4.507  1.9319  0.9456 -0.1630
 7429SOL     OW23099   0.536   0.937   3.987 -0.1364 -0.4622 -0.2799
 7429SOL    HW123100   0.498   1.017   3.951  2.0157 -0.1632 -1.9326
 7429SOL    HW223101   0.570   0.963   4.073  0.0902  0.2799 -0.5943
 7430SOL     OW23102   4.833   2.148   5.583 -0.2430  0.2710  0.6409
 7430SOL    HW123103   4.779   2.110   5.652 -3.1603  2.6443 -0.2411
 7430SOL    HW223104   4.819   2.242   5.590  1.6057  0.7570 -1.4388
 7431SOL     OW23105   3.113   3.737   4.133 -0.1626  0.0144  0.3707
 7431SOL    HW123106   3.180   3.804   4.120 -0.7590  0.4382 -0.5093
 7431SOL    HW223107   3.152   3.677   4.198  1.0756  0.2368 -0.1509
 7432SOL     OW23108   0.652   2.544   3.768  0.3263  0.3313  0.2053
 7432SOL    HW123109   0.651   2.532   3.673  0.9971  1.9603 -0.0313
 7432SOL    HW223110   0.589   2.480   3.801  0.6881 -0.8170 -1.2628
 7433SOL     OW23111   1.744   2.059   6.618  0.8542 -0.4084 -0.2576
 7433SOL    HW123112   1.722   1.995   6.550  0.2534 -1.0863  0.5617
 7433SOL    HW223113   1.763   2.006   6.696 -0.2164  0.4219  0.5877
 7434SOL     OW23114   4.578   5.566   1.054  0.0267 -0.0108 -0.5594
 7434SOL    HW123115   4.557   5.494   1.113 -0.1174 -0.5205 -1.2256
 7434SOL    HW223116   4.503   5.625   1.061  1.1239  1.1574  1.6187
 7435SOL     OW23117   4.393   3.745   3.751  0.6691 -0.1562  0.1253
 7435SOL    HW123118   4.334   3.670   3.742 -0.5594  0.7601  0.3701
 7435SOL    HW223119   4.398   3.782   3.663 -0.6199  0.8617  0.4648
 7436SOL     OW23120   6.027   1.786   4.796  0.3606 -0.9772 -0.1954
 7436SOL    HW123121   6.001   1.876   4.777  1.1128 -0.8816 -0.7996
 7436SOL    HW223122   6.122   1.788   4.797  0.3961 -1.0805  3.2011
 7437SOL     OW23123   4.291   5.793   4.376 -0.0052  0.1674 -0.1962
 7437SOL    HW123124   4.265   5.848   4.450 -0.5815  0.3850 -0.5547
 7437SOL    HW223125   4.380   5.821   4.355 -0.6999  1.7797 -1.1032
 7438SOL     OW23126   4.349   5.054   2.066 -0.6943  0.4549  0.3226
 7438SOL    HW123127   4.291   5.109   2.119 -0.9230 -1.5583  2.2555
 7438SOL    HW223128   4.348   4.969   2.110  2.3529 -0.1364 -0.6065
 7439SOL     OW23129   1.957   2.994   0.535  0.2035 -0.0553  0.2565
 7439SOL    HW123130   2.047   3.019   0.514 -0.2962  0.2275 -1.5964
 7439SOL    HW223131   1.903   3.042   0.472 -1.2942  0.2061  1.7038
 7440SOL     OW23132   0.281   1.632   5.227 -0.1562 -0.6019 -0.0666
 7440SOL    HW123133   0.266   1.650   5.134 -1.3251  0.5033  0.3059
 7440SOL    HW223134   0.374   1.615   5.234  0.1256  0.3493 -1.2876
 7441SOL     OW23135   0.576   0.747   1.798 -0.1128  0.1422 -0.1015
 7441SOL    HW123136   0.537   0.833   1.812  0.7650  0.4219  0.6423
 7441SOL    HW223137   0.517   0.686   1.844 -0.4635  0.3913 -0.2157
 7442SOL     OW23138   6.815   3.334   7.750 -0.1662  0.6611 -0.2066
 7442SOL    HW123139   6.790   3.255   7.797  0.1104  0.3611 -0.5567
 7442SOL    HW223140   6.871   3.302   7.679  0.0816  1.1847 -0.2483
 7443SOL     OW23141   4.022   7.009   6.098 -0.2923 -0.7780 -0.1827
 7443SOL    HW123142   4.011   6.923   6.057 -1.4053 -0.4629 -0.5641
 7443SOL    HW223143   3.969   7.068   6.044  0.3105  0.1115  0.1913
 7444SOL     OW23144   0.886   2.586   0.023  0.1802  0.4963 -0.2582
 7444SOL    HW123145   0.866   2.648  -0.047  1.9532  1.2752 -0.1055
 7444SOL    HW223146   0.970   2.548  -0.002  0.2777 -0.0602  0.8746
 7445SOL     OW23147   6.186   0.252   7.809  0.2814 -0.1442 -0.3284
 7445SOL    HW123148   6.263   0.204   7.778 -0.3071  0.6062 -2.9999
 7445SOL    HW223149   6.116   0.186   7.810  0.6748 -0.5753  1.1258
 7446SOL     OW23150   0.936   5.068   1.884 -0.1704 -0.2910 -0.2696
 7446SOL    HW123151   0.880   5.135   1.845  0.9747 -0.3176 -1.9887
 7446SOL    HW223152   0.961   5.103   1.969 -1.9876  0.1529  0.0991
 7447SOL     OW23153   6.656   6.263   7.270  0.0551 -0.3938 -0.2868
 7447SOL    HW123154   6.644   6.334   7.333 -2.1603  0.1615 -1.2853
 7447SOL    HW223155   6.745   6.232   7.286 -0.1295  0.3588  2.4548
 7448SOL     OW23156   6.124   1.951   6.986 -0.1800  0.0376  0.0152
 7448SOL    HW123157   6.104   1.861   7.010 -0.5720 -0.6790 -2.8406
 7448SOL    HW223158   6.189   1.979   7.051  0.7179 -2.6192  0.3307
 7449SOL     OW23159   4.169   0.133   5.750  0.4119  0.1246  0.0365
 7449SOL    HW123160   4.120   0.211   5.777  1.7660  1.1886 -0.4858
 7449SOL    HW223161   4.129   0.107   5.667 -0.6840 -0.3471  0.6917
 7450SOL     OW23162   7.069   4.669   4.606  0.1794 -0.1442 -0.5382
 7450SOL    HW123163   7.071   4.714   4.521 -0.8797 -0.9595 -1.0074
 7450SOL    HW223164   7.138   4.711   4.657 -1.4636  2.7766 -0.5898
 7451SOL     OW23165   6.204   3.483   3.962  0.7120  0.7172 -0.2993
 7451SOL    HW123166   6.226   3.413   3.900  1.4669  1.3006 -0.7003
 7451SOL    HW223167   6.188   3.560   3.908 -1.3704  0.5591  0.0622
 7452SOL     OW23168   3.023   4.280   6.930 -0.9389 -0.3175  0.5613
 7452SOL    HW123169   3.043   4.194   6.969 -0.7712 -0.1569  0.8319
 7452SOL    HW223170   2.993   4.333   7.004 -0.1181  0.1474  0.5676
 7453SOL     OW23171   6.784   5.760   5.328 -0.4706  0.1453  0.0410
 7453SOL    HW123172   6.838   5.721   5.397 -0.0851 -1.8278 -1.3298
 7453SOL    HW223173   6.705   5.788   5.373  0.4913  0.4728  1.5821
 7454SOL     OW23174   0.553   3.275   7.351 -0.7446  0.5101  0.0670
 7454SOL    HW123175   0.464   3.294   7.322 -0.7053  1.8066  0.7553
 7454SOL    HW223176   0.564   3.181   7.336 -1.8712  0.5399 -0.9635
 7455SOL     OW23177   6.246   7.996   3.746 -0.1615 -0.0770  0.0172
 7455SOL    HW123178   6.240   8.052   3.823  0.0838 -0.0569  0.0204
 7455SOL    HW223179   6.155   7.974   3.726 -0.3044  0.8860 -0.4044
 7456SOL     OW23180   0.974   5.710   2.097  0.1810  0.5747 -0.6772
 7456SOL    HW123181   1.056   5.728   2.144  0.1720  0.1548 -0.4936
 7456SOL    HW223182   0.936   5.796   2.080  0.7879  0.7859 -0.9856
 7457SOL     OW23183   5.374   7.335   2.114  0.0138  0.5242  0.0405
 7457SOL    HW123184   5.427   7.359   2.189  0.7170 -0.2674 -0.1951
 7457SOL    HW223185   5.284   7.347   2.143  0.2727 -0.3186  1.1862
 7458SOL     OW23186   5.384   6.572   5.022 -0.0202 -0.4015  0.4490
 7458SOL    HW123187   5.291   6.592   5.017 -0.0244 -0.7891 -1.3297
 7458SOL    HW223188   5.422   6.644   5.073 -0.9437  0.9580 -0.7582
 7459SOL     OW23189   4.384   2.285   0.935  0.0243 -0.2231  0.4396
 7459SOL    HW123190   4.378   2.301   0.841  0.7567 -0.3146  0.3759
 7459SOL    HW223191   4.343   2.199   0.947 -2.2343  0.8282  0.5372
 7460SOL     OW23192   5.183   1.698   2.813 -0.0245 -0.2314  0.1574
 7460SOL    HW123193   5.202   1.712   2.721  0.3480 -0.6099  0.1762
 7460SOL    HW223194   5.087   1.698   2.818 -0.0445 -0.1492 -0.2166
 7461SOL     OW23195   1.883   3.443   6.367  0.2503 -0.1320  0.2040
 7461SOL    HW123196   1.835   3.417   6.289  0.3852 -0.2999  0.1769
 7461SOL    HW223197   1.884   3.364   6.422  0.2135 -0.0342  0.3455
 7462SOL     OW23198   1.890   4.252   1.930 -0.1301  0.4658  0.0793
 7462SOL    HW123199   1.849   4.338   1.919  0.8227  1.3044  2.8187
 7462SOL    HW223200   1.852   4.217   2.011  1.2864 -0.6584  0.2813
 7463SOL     OW23201   4.782   3.664   5.572  0.2546  0.3179  0.8761
 7463SOL    HW123202   4.735   3.603   5.515  0.8819  0.0922  0.6026
 7463SOL    HW223203   4.713   3.717   5.612 -0.1282  1.0386 -0.7233
 7464SOL     OW23204   7.016   1.303   0.861 -0.1769 -0.4199 -0.1368
 7464SOL    HW123205   6.937   1.356   0.874  0.1451  0.1056 -0.2996
 7464SOL    HW223206   6.990   1.215   0.885 -0.0777  0.2076  2.3791
 7465SOL     OW23207   2.689   2.456   5.642  0.3577 -0.3475  0.6903
 7465SOL    HW123208   2.600   2.436   5.612  0.6395  0.6962 -0.9116
 7465SOL    HW223209   2.677   2.501   5.725 -0.5687 -0.9704  0.9068
 7466SOL     OW23210   3.501   4.498   0.998 -0.0400  0.4892 -0.4437
 7466SOL    HW123211   3.554   4.564   1.044  0.7192 -1.2088  1.1772
 7466SOL    HW223212   3.430   4.479   1.060 -0.5254  0.1381 -1.1147
 7467SOL     OW23213   4.457   6.983   5.548 -0.0538 -0.4887  0.7115
 7467SOL    HW123214   4.493   7.055   5.600 -0.5095  1.0107 -0.9774
 7467SOL    HW223215   4.517   6.975   5.473 -0.7123 -1.0235  0.2331
 7468SOL     OW23216   6.583   7.262   4.090  0.1360 -0.7642 -0.3748
 7468SOL    HW123217   6.491   7.236   4.085  0.0166 -0.3249 -0.5990
 7468SOL    HW223218   6.627   7.208   4.024 -0.1879 -0.0818 -1.1698
 7469SOL     OW23219   2.085   5.615   1.434  0.0732 -0.0029  0.0716
 7469SOL    HW123220   2.139   5.570   1.370  0.7756 -0.0886  0.7136
 7469SOL    HW223221   2.124   5.592   1.519  0.6869  2.1312  0.3982
 7470SOL     OW23222   0.737   0.691   4.047 -0.1469  0.3216 -0.4618
 7470SOL    HW123223   0.753   0.683   4.141 -1.9738 -0.2639 -0.1822
 7470SOL    HW223224   0.684   0.770   4.038 -0.5458  0.0005 -0.9461
 7471SOL     OW23225   1.539   7.060   4.165  0.1156 -0.4999  0.1388
 7471SOL    HW123226   1.496   7.115   4.229 -0.4203 -0.9335  0.1511
 7471SOL    HW223227   1.595   7.002   4.216 -0.8008 -1.2784  0.2547
 7472SOL     OW23228   6.023   1.599   1.659 -0.2437 -0.1089 -0.1714
 7472SOL    HW123229   5.965   1.529   1.628  0.4320 -0.6541 -0.2318
 7472SOL    HW223230   6.077   1.621   1.583 -0.1170  0.1349 -0.0117
 7473SOL     OW23231   7.497   4.642   7.852 -0.3637  0.1122  0.1791
 7473SOL    HW123232   7.522   4.725   7.894  2.0599 -0.2368 -0.5176
 7473SOL    HW223233   7.564   4.580   7.879  0.0141 -0.6612 -2.4488
 7474SOL     OW23234   4.614   2.279   3.688 -0.1639  0.0190 -0.1260
 7474SOL    HW123235   4.560   2.358   3.694 -0.0838  0.1108 -0.6003
 7474SOL    HW223236   4.582   2.222   3.758 -0.9666  0.0179 -0.4921
 7475SOL     OW23237   0.561   6.692   1.962 -0.0332  0.5403 -0.1059
 7475SOL    HW123238   0.597   6.610   1.994  0.5366  0.3902 -1.0969
 7475SOL    HW223239   0.505   6.667   1.888 -0.9955  0.9146  0.4787
 7476SOL     OW23240   2.920   2.101   6.446  0.0565  0.8985 -0.4120
 7476SOL    HW123241   2.880   2.078   6.362 -0.7856 -1.5647  0.6068
 7476SOL    HW223242   3.005   2.138   6.423  1.1188 -2.5008 -2.2952
 7477SOL     OW23243   7.115   6.539   1.517  0.2076 -0.3209 -0.0821
 7477SOL    HW123244   7.134   6.618   1.567  1.3936 -0.6936  0.0688
 7477SOL    HW223245   7.055   6.489   1.572 -1.7094  1.1214 -0.7976
 7478SOL     OW23246   6.654   4.087   1.037  0.0036  0.2621  0.1656
 7478SOL    HW123247   6.650   4.037   1.119  0.2705  1.1845  0.7541
 7478SOL    HW223248   6.713   4.160   1.057 -0.4946  0.8918 -0.6385
 7479SOL     OW23249   7.028   5.017   1.598  0.0265 -0.3057 -0.2328
 7479SOL    HW123250   6.970   4.960   1.649 -0.6356  0.0608 -0.5583
 7479SOL    HW223251   6.968   5.073   1.549  0.6551  1.2268  0.7028
 7480SOL     OW23252   1.769   4.078   0.471 -0.0650  0.8224  0.3288
 7480SOL    HW123253   1.723   4.147   0.422  1.4716 -1.1330 -4.1232
 7480SOL    HW223254   1.703   4.011   0.487 -0.2943  0.9259 -0.1775
 7481SOL     OW23255   5.938   2.839   3.238 -0.0012  0.3182  0.0042
 7481SOL    HW123256   5.906   2.764   3.288  0.5570 -0.4315 -0.7439
 7481SOL    HW223257   5.938   2.911   3.300  2.6102 -1.0588  1.6676
 7482SOL     OW23258   5.844   0.890   5.567 -0.3490 -0.3498  0.4510
 7482SOL    HW123259   5.821   0.798   5.559 -1.4995 -0.1331  1.1122
 7482SOL    HW223260   5.809   0.930   5.487 -0.9872 -0.2786  0.7592
 7483SOL     OW23261   2.962   5.450   7.195  0.1204 -0.2577 -0.2613
 7483SOL    HW123262   2.993   5.510   7.263 -1.6370 -1.0723  1.3126
 7483SOL    HW223263   2.877   5.486   7.168  0.3262 -0.5216 -1.3050
 7484SOL     OW23264   3.372   7.429   0.616 -0.7959 -0.6361  0.2209
 7484SOL    HW123265   3.338   7.489   0.683  1.0985 -0.8259  1.4002
 7484SOL    HW223266   3.336   7.463   0.534 -3.1497 -0.3745  1.2981
 7485SOL     OW23267   7.481   2.459   2.606  0.7280  0.3111 -0.1771
 7485SOL    HW123268   7.479   2.366   2.625 -0.3167  0.3921  0.1094
 7485SOL    HW223269   7.536   2.496   2.675  1.0160 -0.0656 -0.2027
 7486SOL     OW23270   2.028   2.131   3.816 -0.0208  0.2012 -0.1861
 7486SOL    HW123271   1.979   2.056   3.784  0.8835 -1.1976  1.6092
 7486SOL    HW223272   2.120   2.109   3.801  0.2615  0.9024  0.4374
 7487SOL     OW23273   0.386   2.299   4.132 -0.7802 -0.1154  0.0310
 7487SOL    HW123274   0.390   2.390   4.161  0.4760 -0.1425 -0.0402
 7487SOL    HW223275   0.357   2.250   4.209 -3.7587  0.6087 -0.5431
 7488SOL     OW23276   1.199   0.248   5.386  0.2383 -0.1161  0.1061
 7488SOL    HW123277   1.142   0.233   5.311  0.5134 -0.9174  0.0527
 7488SOL    HW223278   1.206   0.163   5.428 -0.4130  0.4612  1.3997
 7489SOL     OW23279   5.020   7.804   6.954  0.4812 -0.2272  0.6640
 7489SOL    HW123280   5.063   7.722   6.929 -0.5622 -0.7009  0.3550
 7489SOL    HW223281   5.082   7.872   6.929  0.9030 -0.8749 -0.1002
 7490SOL     OW23282   6.336   0.482   6.523  0.1347  0.0639  0.0482
 7490SOL    HW123283   6.324   0.509   6.432 -0.6346 -2.8419 -0.7555
 7490SOL    HW223284   6.413   0.426   6.522 -0.4245 -0.7483  1.0288
 7491SOL     OW23285   4.169   1.130   7.541  0.5004  0.0007  0.2592
 7491SOL    HW123286   4.265   1.121   7.547  0.5221 -0.0197 -0.1605
 7491SOL    HW223287   4.153   1.157   7.451  0.2314  1.5168  0.7464
 7492SOL     OW23288   2.588   3.908   2.315 -0.5340 -0.9358  0.1386
 7492SOL    HW123289   2.566   3.818   2.338 -0.0038 -1.0404  0.2363
 7492SOL    HW223290   2.503   3.951   2.301 -0.7537 -1.7815 -1.2079
 7493SOL     OW23291   0.988   2.317   7.471 -0.1962  0.4340 -0.0042
 7493SOL    HW123292   0.896   2.344   7.462 -0.1966  0.6950  0.7172
 7493SOL    HW223293   0.985   2.241   7.529  0.0408  0.4867  0.0789
 7494SOL     OW23294   1.667   0.945   5.111 -0.2341 -0.2780  0.1598
 7494SOL    HW123295   1.607   0.908   5.046  0.5144  0.6973 -1.0954
 7494SOL    HW223296   1.609   0.988   5.174 -0.9704 -1.3297  0.2325
 7495SOL     OW23297   4.802   7.928   5.381  0.1079  0.3012  0.2598
 7495SOL    HW123298   4.737   7.867   5.415 -0.0826  0.5879  0.4070
 7495SOL    HW223299   4.884   7.902   5.422  0.0818 -0.0426  0.0967
 7496SOL     OW23300   7.482   7.371   2.999  0.0956 -0.3095  0.1456
 7496SOL    HW123301   7.557   7.377   3.058 -0.1218 -2.4846  0.6987
 7496SOL    HW223302   7.421   7.313   3.044  0.1682 -2.5252 -2.4410
 7497SOL     OW23303   2.425   5.472   7.758 -0.5261  0.4689  0.4583
 7497SOL    HW123304   2.454   5.400   7.813  0.2696  0.8812  0.5821
 7497SOL    HW223305   2.400   5.430   7.675 -1.7992 -0.1540  1.1532
 7498SOL     OW23306   0.641   7.745   7.398  0.4116  0.1669 -0.0427
 7498SOL    HW123307   0.564   7.694   7.425  2.0191 -2.6708 -0.5408
 7498SOL    HW223308   0.644   7.818   7.459 -2.7049  0.3812 -0.0692
 7499SOL     OW23309   0.429   7.515   0.315 -0.0117  1.2055 -0.9696
 7499SOL    HW123310   0.496   7.522   0.384 -0.3294  2.3247 -0.7707
 7499SOL    HW223311   0.370   7.447   0.347  0.3809  1.0314 -0.5999
 7500SOL     OW23312   0.857   5.520   3.676 -0.4660  0.1068 -0.0379
 7500SOL    HW123313   0.809   5.464   3.737 -0.3434  0.4242  0.3514
 7500SOL    HW223314   0.905   5.459   3.620 -0.7002 -0.1894  0.0829
 7501SOL     OW23315   0.163   0.790   1.290  0.0707 -0.1732 -0.0092
 7501SOL    HW123316   0.242   0.787   1.344 -0.0509 -1.4158  0.1162
 7501SOL    HW223317   0.145   0.883   1.279  0.3076  0.1014  1.7986
 7502SOL     OW23318   6.282   3.232   1.988  0.3500  0.1255 -0.1857
 7502SOL    HW123319   6.217   3.169   2.017  0.2139  1.0652  1.6172
 7502SOL    HW223320   6.247   3.317   2.014  1.8222  0.7248 -0.1121
 7503SOL     OW23321   2.435   5.572   1.581 -0.0939 -0.2331 -0.0552
 7503SOL    HW123322   2.487   5.502   1.621 -0.0339 -1.1848 -1.7498
 7503SOL    HW223323   2.354   5.574   1.633 -0.8214 -2.7373 -1.0108
 7504SOL     OW23324   0.376   6.009   7.230 -0.1799  0.0728 -0.0427
 7504SOL    HW123325   0.342   6.073   7.293 -1.6507 -0.6956 -0.0440
 7504SOL    HW223326   0.300   5.983   7.179  0.5086 -1.3264 -0.3718
 7505SOL     OW23327   7.689   7.881   3.576 -0.1702  0.4537  0.1011
 7505SOL    HW123328   7.727   7.873   3.488  0.5430  0.0694  0.4376
 7505SOL    HW223329   7.595   7.868   3.563 -0.1358  0.9854 -0.6873
 7506SOL     OW23330   2.561   6.056   2.808  0.4894 -0.0702  0.1912
 7506SOL    HW123331   2.510   6.133   2.835 -0.6316 -0.3992 -0.9219
 7506SOL    HW223332   2.598   6.081   2.723  2.0253  0.0834  0.8930
 7507SOL     OW23333   4.073   4.652   4.958 -0.4526 -0.2616 -0.6193
 7507SOL    HW123334   4.136   4.665   5.029 -0.0938  2.9352 -1.4176
 7507SOL    HW223335   3.992   4.691   4.991 -0.2188  1.4595 -1.9869
 7508SOL     OW23336   1.678   6.434   0.777  0.3855  0.4473  0.3745
 7508SOL    HW123337   1.751   6.496   0.779  0.2745  0.6894 -1.8361
 7508SOL    HW223338   1.719   6.349   0.798  1.1422  0.7183  0.0200
 7509SOL     OW23339   3.181   1.044   4.782 -0.0089  0.5009  0.2083
 7509SOL    HW123340   3.167   1.025   4.689 -1.5816 -2.4029  0.9940
 7509SOL    HW223341   3.243   0.978   4.812  0.3659  1.3114  1.2855
 7510SOL     OW23342   1.673   3.927   6.731 -0.1268  0.1248  0.3825
 7510SOL    HW123343   1.611   3.999   6.737  0.6611  0.8170  0.3232
 7510SOL    HW223344   1.709   3.934   6.643 -1.0813 -1.2033 -0.1201
 7511SOL     OW23345   1.131   4.774   7.367  0.2601  0.2426  0.2054
 7511SOL    HW123346   1.164   4.854   7.408  0.0170  0.6297 -0.3400
 7511SOL    HW223347   1.036   4.784   7.367  0.2297 -0.0365  0.1151
 7512SOL     OW23348   5.081   2.817   0.441  0.0441  0.2875 -0.0461
 7512SOL    HW123349   4.995   2.778   0.425  0.2538  0.1385 -0.8175
 7512SOL    HW223350   5.133   2.745   0.478  0.6553 -0.4162 -2.1691
 7513SOL     OW23351   7.203   6.312   2.011 -0.2881 -0.4126  0.2696
 7513SOL    HW123352   7.200   6.218   1.991 -0.1202 -0.4276  0.3177
 7513SOL    HW223353   7.292   6.338   1.987 -0.3852 -0.2319  0.1038
 7514SOL     OW23354   0.511   1.189   2.693  0.2206 -0.2827  0.2234
 7514SOL    HW123355   0.511   1.239   2.775 -2.5870  1.0149 -0.5129
 7514SOL    HW223356   0.576   1.233   2.639 -1.2573  1.8100  0.0796
 7515SOL     OW23357   1.984   6.853   3.608  0.3858  0.0848  0.2316
 7515SOL    HW123358   1.995   6.948   3.598 -0.8478  0.3195  0.9535
 7515SOL    HW223359   1.894   6.837   3.580  1.3890 -1.2684 -2.3949
 7516SOL     OW23360   2.044   5.770   2.194 -0.5241 -0.3632 -0.2359
 7516SOL    HW123361   2.114   5.832   2.215  0.2113 -1.2989  0.0773
 7516SOL    HW223362   2.019   5.792   2.104 -0.2177  0.3452 -0.1514
 7517SOL     OW23363   5.028   0.303   3.821 -0.4137 -0.0728 -0.3148
 7517SOL    HW123364   4.934   0.295   3.834 -0.4344 -1.5942 -1.3178
 7517SOL    HW223365   5.038   0.380   3.766 -1.1974 -0.8335 -1.5418
 7518SOL     OW23366   5.356   2.826   1.729 -0.6960  0.0000 -0.2559
 7518SOL    HW123367   5.353   2.873   1.812  2.3812  0.3832 -0.3142
 7518SOL    HW223368   5.335   2.892   1.663 -0.7270  0.2539  0.0048
 7519SOL     OW23369   2.844   6.912   3.449  0.3392 -0.3184  0.0229
 7519SOL    HW123370   2.796   6.842   3.406  1.1956 -0.3567 -0.9059
 7519SOL    HW223371   2.936   6.893   3.430  0.6110  0.7645  0.1861
 7520SOL     OW23372   5.636   7.530   2.158 -0.0194 -0.4240  0.0141
 7520SOL    HW123373   5.663   7.598   2.096  2.2466 -1.1457  0.1734
 7520SOL    HW223374   5.628   7.575   2.242 -1.2085  0.1725 -0.4104
 7521SOL     OW23375   1.293   6.853   4.205  0.1015 -0.0220 -0.6660
 7521SOL    HW123376   1.252   6.919   4.262 -0.2263 -0.2796 -0.6059
 7521SOL    HW223377   1.369   6.823   4.254 -0.6956 -0.9022  0.0196
 7522SOL     OW23378   5.888   5.809   2.392  0.3662 -0.2450  0.2050
 7522SOL    HW123379   5.855   5.849   2.472  0.8633  1.7247 -0.5533
 7522SOL    HW223380   5.811   5.795   2.338  0.2560  0.1795  0.2550
 7523SOL     OW23381   3.418   3.888   3.092 -1.0384  0.6417  0.2476
 7523SOL    HW123382   3.489   3.842   3.048 -2.0251  0.3998 -1.1205
 7523SOL    HW223383   3.387   3.826   3.158  0.2467  0.8882  1.0824
 7524SOL     OW23384   5.081   2.753   3.007 -0.0385  0.2291  0.0888
 7524SOL    HW123385   5.090   2.847   2.992  0.9660  0.3764  1.5001
 7524SOL    HW223386   5.168   2.718   2.992 -0.5034 -0.5655 -0.8579
 7525SOL     OW23387   1.815   1.941   5.149 -0.9263 -0.0066 -0.3371
 7525SOL    HW123388   1.894   1.974   5.106 -0.4082  0.1549  0.7394
 7525SOL    HW223389   1.770   1.890   5.080  0.9767 -1.5695 -0.4751
 7526SOL     OW23390   1.805   6.556   0.470  0.3935  0.1803  0.5324
 7526SOL    HW123391   1.800   6.610   0.549  0.0268  1.1590 -0.1612
 7526SOL    HW223392   1.740   6.488   0.484  0.2025  0.4570  0.9942
 7527SOL     OW23393   2.731   2.627   3.764  0.1088  0.1120  0.2503
 7527SOL    HW123394   2.686   2.586   3.690 -0.1021  0.4027  0.2179
 7527SOL    HW223395   2.702   2.718   3.763  0.7389  0.3157  0.1997
 7528SOL     OW23396   1.124   4.681   1.509  0.0707 -0.2395  0.3150
 7528SOL    HW123397   1.085   4.739   1.573  3.1839  1.0114  1.1881
 7528SOL    HW223398   1.059   4.612   1.495 -2.0202  1.2908  2.2594
 7529SOL     OW23399   6.532   3.538   2.014 -0.3835 -0.3990  0.0296
 7529SOL    HW123400   6.545   3.622   1.971  1.5682  0.1651  1.6176
 7529SOL    HW223401   6.445   3.510   1.987 -0.0735  0.9324 -2.5019
 7530SOL     OW23402   0.421   5.006   1.114 -0.0580  0.0846  0.0102
 7530SOL    HW123403   0.328   5.029   1.119 -0.5076 -1.4695 -0.8156
 7530SOL    HW223404   0.431   4.968   1.027  1.1345 -0.7087  0.4937
 7531SOL     OW23405   7.421   3.994   1.916  0.5331  0.0057  0.2531
 7531SOL    HW123406   7.415   4.022   1.825  1.2620  0.7471  0.4252
 7531SOL    HW223407   7.449   4.072   1.963  2.5830 -1.0012  0.7506
 7532SOL     OW23408   3.280   4.607   2.458  0.4840  0.0291  0.7815
 7532SOL    HW123409   3.213   4.674   2.472 -0.1050 -0.0363 -1.5943
 7532SOL    HW223410   3.352   4.653   2.417  1.1605 -0.2878  1.5860
 7533SOL     OW23411   1.549   3.864   1.514  0.0585 -0.6441  0.0724
 7533SOL    HW123412   1.540   3.772   1.489 -1.8662 -0.1087 -1.2971
 7533SOL    HW223413   1.623   3.896   1.462 -0.6135 -0.8827 -1.0411
 7534SOL     OW23414   2.820   1.025   3.782 -0.2794 -0.2259  0.2737
 7534SOL    HW123415   2.841   1.066   3.698 -1.3873 -1.1668 -0.4883
 7534SOL    HW223416   2.727   1.046   3.796 -0.7588 -2.0961  0.0628
 7535SOL     OW23417   4.483   7.037   3.168  0.0576 -0.0600 -0.2792
 7535SOL    HW123418   4.515   7.107   3.111 -0.4349  0.6633  0.3272
 7535SOL    HW223419   4.394   7.063   3.191  0.8987  0.6669  2.3814
 7536SOL     OW23420   6.805   6.801   5.934 -0.2536 -0.1524  0.0502
 7536SOL    HW123421   6.885   6.840   5.971 -0.3553 -0.4364  0.5699
 7536SOL    HW223422   6.755   6.772   6.010 -1.2108  0.7158 -0.2506
 7537SOL     OW23423   2.587   1.173   7.710 -0.1438  0.1677 -0.0623
 7537SOL    HW123424   2.588   1.128   7.795 -3.3176 -1.3784 -0.7780
 7537SOL    HW223425   2.658   1.132   7.661 -0.2663 -1.0935  0.7747
 7538SOL     OW23426   3.507   6.174   1.030 -0.1037  0.0788 -0.6061
 7538SOL    HW123427   3.457   6.255   1.038 -1.0484 -0.4394 -1.2119
 7538SOL    HW223428   3.567   6.176   1.104 -1.5086  0.3515  0.5490
 7539SOL     OW23429   5.810   6.813   2.061 -0.0017 -0.0270 -0.2038
 7539SOL    HW123430   5.875   6.777   2.001 -0.7729  0.0339 -1.0845
 7539SOL    HW223431   5.822   6.908   2.056  0.5727 -0.0600  0.4680
 7540SOL     OW23432   4.118   7.115   0.533  0.0946  0.8769  0.1572
 7540SOL    HW123433   4.179   7.086   0.601  0.5396  0.0193 -0.6006
 7540SOL    HW223434   4.077   7.194   0.570  0.7699  0.7678  1.1651
 7541SOL     OW23435   2.739   2.186   2.055  0.4439  0.7647 -0.2101
 7541SOL    HW123436   2.667   2.222   2.003  2.2433  1.4039 -2.3723
 7541SOL    HW223437   2.711   2.098   2.078 -1.3719  1.3054 -0.2651
 7542SOL     OW23438   1.834   3.566   0.074  0.4389  0.3625 -0.2720
 7542SOL    HW123439   1.828   3.526  -0.013  4.2732  0.7664 -0.7920
 7542SOL    HW223440   1.928   3.568   0.094 -0.1849  2.3836  2.9089
 7543SOL     OW23441   2.010   3.195   0.177 -0.0433 -0.0053 -0.0835
 7543SOL    HW123442   2.099   3.167   0.153 -0.6265  0.1818 -2.6327
 7543SOL    HW223443   2.024   3.263   0.243  1.6008 -1.9511  1.6167
 7544SOL     OW23444   7.710   6.284   4.995 -0.0514  0.7652 -0.6323
 7544SOL    HW123445   7.637   6.345   5.003 -0.4589  0.3133 -0.8642
 7544SOL    HW223446   7.745   6.276   5.084  0.5706  2.0184 -0.7489
 7545SOL     OW23447   3.184   2.907   4.113  0.2290 -0.1466  0.6388
 7545SOL    HW123448   3.227   2.896   4.028 -0.4903  0.2362  0.2235
 7545SOL    HW223449   3.146   2.822   4.132 -0.1796 -0.0488  0.2629
 7546SOL     OW23450   7.348   7.599   3.957 -0.4564  0.0668 -0.1718
 7546SOL    HW123451   7.375   7.596   4.049 -1.6458 -0.2886  0.1793
 7546SOL    HW223452   7.323   7.509   3.937 -1.0611  0.3236 -0.5777
 7547SOL     OW23453   5.253   2.624   6.697 -0.3085 -0.3796 -0.1192
 7547SOL    HW123454   5.246   2.644   6.604  1.0599 -0.4556 -0.2462
 7547SOL    HW223455   5.307   2.694   6.733 -1.1794 -0.1163  0.7026
 7548SOL     OW23456   3.496   2.441   7.890 -0.3191  0.3560  0.1941
 7548SOL    HW123457   3.569   2.501   7.905  1.0388 -1.3125  0.4353
 7548SOL    HW223458   3.522   2.390   7.814 -1.4178 -0.0017  0.0505
 7549SOL     OW23459   4.339   7.021   2.280  0.2803 -0.3002  0.2155
 7549SOL    HW123460   4.395   7.045   2.207  0.3981  1.4614  0.8684
 7549SOL    HW223461   4.395   7.029   2.358 -0.1867 -0.9284  0.6251
 7550SOL     OW23462   0.505   3.234   4.367  0.0072  0.2535 -0.3340
 7550SOL    HW123463   0.415   3.251   4.394 -0.0296 -0.0539 -0.2617
 7550SOL    HW223464   0.519   3.142   4.388 -0.0766 -0.0391 -1.5421
 7551SOL     OW23465   5.500   2.718   7.433  0.1314  0.1688  0.0402
 7551SOL    HW123466   5.449   2.682   7.506 -2.4483  0.4760 -1.5336
 7551SOL    HW223467   5.451   2.795   7.405  0.0212 -0.9893 -3.1987
 7552SOL     OW23468   1.812   4.356   2.658 -0.2488  0.5720  0.1611
 7552SOL    HW123469   1.718   4.372   2.649 -0.6119 -0.9297  0.9912
 7552SOL    HW223470   1.838   4.317   2.575 -0.2846  1.3295 -0.2058
 7553SOL     OW23471   5.792   1.250   5.127 -0.1150  0.0917 -0.1787
 7553SOL    HW123472   5.719   1.310   5.113 -0.1773 -0.5580 -3.0089
 7553SOL    HW223473   5.782   1.184   5.059  3.2111  0.0706 -0.7297
 7554SOL     OW23474   1.239   7.939   2.801  0.2411  0.3932 -0.1270
 7554SOL    HW123475   1.235   7.911   2.892  0.3300 -0.4386 -0.3814
 7554SOL    HW223476   1.273   7.863   2.754 -2.9672 -0.3314 -1.3489
 7555SOL     OW23477   2.473   2.008   2.747 -0.4357 -1.0866 -0.2908
 7555SOL    HW123478   2.563   1.992   2.774 -0.2401  2.1337  1.1637
 7555SOL    HW223479   2.425   2.023   2.829 -2.1887 -2.2248 -1.0730
 7556SOL     OW23480   1.951   6.851   6.000 -0.3209  0.6432  0.6037
 7556SOL    HW123481   1.956   6.946   5.994  1.2199  0.5299 -0.4264
 7556SOL    HW223482   2.004   6.820   5.927 -1.2067 -1.0125  0.6414
 7557SOL     OW23483   0.425   3.880   1.578  0.3593 -0.5222  0.0494
 7557SOL    HW123484   0.427   3.955   1.518  2.1272  0.2705  1.0791
 7557SOL    HW223485   0.492   3.820   1.544 -0.4412 -1.2568 -0.2616
 7558SOL     OW23486   1.712   6.280   1.074 -0.4172 -1.1827 -0.0814
 7558SOL    HW123487   1.772   6.224   1.124 -1.3518 -2.1607 -0.0459
 7558SOL    HW223488   1.660   6.218   1.023 -0.7470 -0.2777 -0.8362
 7559SOL     OW23489   5.572   7.439   6.697 -0.9504  0.0459 -0.1389
 7559SOL    HW123490   5.478   7.425   6.690 -1.2181  1.0363  1.2611
 7559SOL    HW223491   5.581   7.521   6.746  0.6338  0.2651 -0.7567
 7560SOL     OW23492   3.536   0.665   7.348  0.2561 -0.0630  0.5965
 7560SOL    HW123493   3.620   0.709   7.341  0.2793 -0.3600 -1.2647
 7560SOL    HW223494   3.474   0.725   7.306 -0.1395 -0.6391  0.3428
 7561SOL     OW23495   1.015   0.090   2.698 -0.0956 -0.4924  0.2683
 7561SOL    HW123496   1.069   0.012   2.715 -0.3855 -0.5688  0.8484
 7561SOL    HW223497   1.005   0.091   2.602 -1.0505 -1.8229  0.3333
 7562SOL     OW23498   1.424   4.605   6.142  0.0569  0.0978  0.0673
 7562SOL    HW123499   1.332   4.577   6.143 -0.4356  1.5747 -1.4688
 7562SOL    HW223500   1.443   4.627   6.234 -1.9461  2.3381 -0.0157
 7563SOL     OW23501   1.900   0.107   6.952 -0.2710 -0.6363  0.8498
 7563SOL    HW123502   1.953   0.028   6.946  0.1949 -0.3173  0.6963
 7563SOL    HW223503   1.925   0.158   6.875 -0.3202 -0.1916  1.1245
 7564SOL     OW23504   0.006   0.924   6.551 -0.2773 -0.0257  0.7107
 7564SOL    HW123505   0.015   0.848   6.494 -1.1335  0.0729  0.4244
 7564SOL    HW223506  -0.004   0.888   6.639 -2.0030 -0.3082  0.4122
 7565SOL     OW23507   0.331   2.930   4.500  0.4239 -0.3901 -0.5759
 7565SOL    HW123508   0.403   2.870   4.479  1.0553  0.8091 -1.9350
 7565SOL    HW223509   0.252   2.880   4.481  0.9439 -0.7417 -1.8858
 7566SOL     OW23510   2.759   6.680   3.987 -0.3189 -0.3514  0.1575
 7566SOL    HW123511   2.835   6.708   4.037 -0.5860  1.3042 -0.3293
 7566SOL    HW223512   2.775   6.588   3.969  1.2569 -0.1851  0.6117
 7567SOL     OW23513   3.658   4.124   3.152 -0.2936  0.6539  0.4354
 7567SOL    HW123514   3.583   4.139   3.210 -0.4281  2.2142 -0.1387
 7567SOL    HW223515   3.729   4.099   3.211 -1.0167  0.0392  1.0647
 7568SOL     OW23516   7.714   6.827   0.757  0.2682  0.0196  0.6658
 7568SOL    HW123517   7.796   6.807   0.712  0.5718 -0.9421  1.6308
 7568SOL    HW223518   7.728   6.913   0.796  0.5304  0.2001  0.1757
 7569SOL     OW23519   5.641   1.575   2.241 -0.1376 -0.0827 -0.2358
 7569SOL    HW123520   5.726   1.601   2.207  1.0620 -2.0651  1.1655
 7569SOL    HW223521   5.629   1.485   2.211 -0.6343 -0.6573  1.6001
 7570SOL     OW23522   7.826   4.627   1.105  0.1548 -0.1469 -0.2513
 7570SOL    HW123523   7.735   4.604   1.125  0.1656 -0.6425 -0.7583
 7570SOL    HW223524   7.877   4.591   1.177 -0.1837  1.2741  0.7108
 7571SOL     OW23525   0.233   7.011   5.724 -0.1662 -0.1502 -0.4981
 7571SOL    HW123526   0.170   6.953   5.682 -1.0072  0.4682 -0.1112
 7571SOL    HW223527   0.197   7.099   5.711 -0.8298  0.0085  2.1119
 7572SOL     OW23528   1.420   1.225   5.673  0.0790  0.4280 -0.2268
 7572SOL    HW123529   1.457   1.306   5.710 -0.8745  0.5348  0.4907
 7572SOL    HW223530   1.378   1.253   5.592  0.0624  0.5939 -0.1612
 7573SOL     OW23531   3.841   7.406   5.758  0.1067  0.3122  0.2000
 7573SOL    HW123532   3.916   7.393   5.700 -0.0146  0.6984 -0.0418
 7573SOL    HW223533   3.879   7.441   5.838  0.3677 -0.9477  0.6376
 7574SOL     OW23534   0.575   4.969   1.672  0.2782  0.2090 -0.0848
 7574SOL    HW123535   0.515   5.016   1.615 -1.2252 -0.1972  1.1165
 7574SOL    HW223536   0.570   5.016   1.756  2.1409  0.5582 -0.1451
 7575SOL     OW23537   5.810   4.879   1.450  0.3335  0.3665 -0.1781
 7575SOL    HW123538   5.723   4.841   1.460 -0.0911  1.2150 -0.5676
 7575SOL    HW223539   5.861   4.842   1.523 -0.6872  0.8069  0.7736
 7576SOL     OW23540   7.108   5.344   3.319  0.1530  0.0690  0.0603
 7576SOL    HW123541   7.078   5.309   3.235 -0.7840 -0.3663  0.5691
 7576SOL    HW223542   7.030   5.342   3.375  0.8800 -0.0924  1.0785
 7577SOL     OW23543   5.649   7.493   1.433  0.1655  0.0453  0.0783
 7577SOL    HW123544   5.639   7.459   1.344 -0.1795 -0.0515  0.1510
 7577SOL    HW223545   5.565   7.475   1.475 -0.8154  3.0012 -0.5403
 7578SOL     OW23546   2.186   6.923   4.109  0.1501  0.0305 -0.5873
 7578SOL    HW123547   2.217   7.013   4.111 -1.0172  0.4510 -1.0057
 7578SOL    HW223548   2.166   6.907   4.017 -2.6311  0.3986 -0.0963
 7579SOL     OW23549   2.035   4.877   6.591 -0.1955 -0.5052 -0.0335
 7579SOL    HW123550   2.014   4.970   6.590  0.0858 -0.4387 -1.3326
 7579SOL    HW223551   1.960   4.834   6.549  0.1625 -0.7378 -0.4518
 7580SOL     OW23552   4.355   7.698   0.675 -0.3268  0.0454  0.0250
 7580SOL    HW123553   4.418   7.769   0.685 -0.9399  0.6367 -0.2403
 7580SOL    HW223554   4.367   7.644   0.753  0.7629 -0.0583 -0.2034
 7581SOL     OW23555   7.828   4.023   0.395  0.5225  0.5183  0.0367
 7581SOL    HW123556   7.775   4.101   0.410 -1.5645 -0.9675  0.6697
 7581SOL    HW223557   7.816   3.970   0.474  2.4527 -0.1548 -0.0870
 7582SOL     OW23558   1.100   0.697   1.368 -0.0937 -0.3021  0.2375
 7582SOL    HW123559   1.186   0.659   1.351  0.5745  1.0704  0.4834
 7582SOL    HW223560   1.118   0.786   1.399 -1.5089 -0.7351  2.4242
 7583SOL     OW23561   2.807   2.929   2.613 -0.0193 -0.0395  0.1513
 7583SOL    HW123562   2.835   2.887   2.532  1.8594  2.4835 -0.5638
 7583SOL    HW223563   2.877   2.912   2.675  0.5398  1.5614 -0.0094
 7584SOL     OW23564   3.434   6.784   5.749 -0.1756 -0.0417  0.1160
 7584SOL    HW123565   3.364   6.835   5.790 -0.5379 -0.1173 -0.4053
 7584SOL    HW223566   3.491   6.759   5.821 -0.8876 -0.2923  0.5939
 7585SOL     OW23567   2.727   3.109   0.493  0.2482 -0.0646 -0.4731
 7585SOL    HW123568   2.727   3.147   0.405 -1.6720 -2.2409 -1.4643
 7585SOL    HW223569   2.657   3.155   0.539 -0.6383 -0.8820 -0.9913
 7586SOL     OW23570   1.122   7.021   5.758 -0.1691 -0.0248  0.3242
 7586SOL    HW123571   1.031   6.995   5.742  0.3420 -1.3296 -0.6267
 7586SOL    HW223572   1.157   6.951   5.814  0.2248  0.5119  0.7503
 7587SOL     OW23573   1.968   2.179   5.861  0.6962  0.2630 -0.1395
 7587SOL    HW123574   1.939   2.179   5.952 -0.1073  1.7851 -0.3650
 7587SOL    HW223575   2.027   2.254   5.855 -0.0581  0.8024 -1.0939
 7588SOL     OW23576   3.405   3.529   4.671 -0.2822 -0.0760  0.6608
 7588SOL    HW123577   3.414   3.616   4.711 -2.7950 -0.2504  1.6629
 7588SOL    HW223578   3.441   3.540   4.583  0.4480  1.6994  1.1585
 7589SOL     OW23579   4.202   3.535   7.375 -0.5666 -0.0938  0.2143
 7589SOL    HW123580   4.162   3.617   7.403  0.4137  0.0828  1.1554
 7589SOL    HW223581   4.253   3.506   7.451  2.0918  0.3624 -1.3360
 7590SOL     OW23582   4.758   0.098   3.386 -0.4850 -0.6577 -0.3482
 7590SOL    HW123583   4.719   0.036   3.449  1.0953 -0.9174  0.3951
 7590SOL    HW223584   4.743   0.184   3.425  0.1094 -0.7910  0.1968
 7591SOL     OW23585   4.569   0.783   0.186 -0.4919 -0.3877  0.2498
 7591SOL    HW123586   4.660   0.797   0.213 -0.7237 -0.8744  1.3016
 7591SOL    HW223587   4.540   0.869   0.154  0.3483 -0.2463 -0.1629
 7592SOL     OW23588   4.572   5.129   0.979 -0.5405 -0.0834 -0.2597
 7592SOL    HW123589   4.663   5.113   0.958 -0.4059  0.4752 -0.1063
 7592SOL    HW223590   4.572   5.144   1.074 -0.8311 -0.3495 -0.2144
 7593SOL     OW23591   4.264   5.888   1.069 -0.5040 -0.0733 -1.0227
 7593SOL    HW123592   4.200   5.935   1.014  0.0644  0.8976 -0.8784
 7593SOL    HW223593   4.259   5.932   1.154  2.5364  2.0857 -1.8754
 7594SOL     OW23594   6.558   3.853   2.993  0.2075 -0.0056  0.4471
 7594SOL    HW123595   6.547   3.800   3.072 -1.5104 -0.8997 -0.3635
 7594SOL    HW223596   6.502   3.930   3.007 -1.1857 -0.8418 -0.4747
 7595SOL     OW23597   5.823   0.555   7.870  0.2161  0.6718  0.6448
 7595SOL    HW123598   5.890   0.489   7.852 -0.4089  0.3884 -0.7164
 7595SOL    HW223599   5.828   0.615   7.795  0.6652  2.0870  1.7895
 7596SOL     OW23600   4.279   4.929   3.507 -0.2274  0.3333  0.4536
 7596SOL    HW123601   4.336   4.962   3.577  0.5272 -0.3350  0.1628
 7596SOL    HW223602   4.339   4.900   3.439 -0.9655  1.0790 -0.5295
 7597SOL     OW23603   0.740   4.033   1.998 -0.1712 -0.4749 -0.1036
 7597SOL    HW123604   0.741   3.948   1.954  0.9348 -0.6172  0.1833
 7597SOL    HW223605   0.742   4.097   1.927  0.3148 -0.6950 -0.2861
 7598SOL     OW23606   6.174   1.287   2.613  0.0014 -0.4116  0.1442
 7598SOL    HW123607   6.237   1.223   2.581 -0.5082 -1.6953  1.6848
 7598SOL    HW223608   6.154   1.260   2.703 -2.2660  0.3358 -0.0902
 7599SOL     OW23609   7.104   5.564   4.549 -0.0328  0.6307  0.3888
 7599SOL    HW123610   7.134   5.482   4.589  0.9669  1.0170  0.4448
 7599SOL    HW223611   7.178   5.624   4.559  0.5460  0.5088 -2.7304
 7600SOL     OW23612   3.069   0.654   1.313  0.2915  0.1967 -0.2231
 7600SOL    HW123613   3.102   0.623   1.229  0.7841  1.8710 -0.6768
 7600SOL    HW223614   3.147   0.669   1.366  0.0295 -0.0582  0.2403
 7601SOL     OW23615   4.841   3.966   7.931 -0.3176  0.3731  0.0102
 7601SOL    HW123616   4.831   3.907   8.005 -0.1883 -1.3009 -1.2656
 7601SOL    HW223617   4.919   4.018   7.951  1.0532 -1.6349  0.0218
 7602SOL     OW23618   4.189   1.516   0.889 -0.1613  0.0282  0.3048
 7602SOL    HW123619   4.123   1.584   0.896  0.3896  0.4438  1.4915
 7602SOL    HW223620   4.231   1.531   0.804 -2.6171 -1.1909 -1.1901
 7603SOL     OW23621   3.342   0.373   6.277  0.9208 -0.2210  0.1178
 7603SOL    HW123622   3.422   0.320   6.268  0.9602 -0.3747  1.2592
 7603SOL    HW223623   3.330   0.382   6.372 -1.9006 -2.4862  0.0642
 7604SOL     OW23624   7.671   5.916   7.392 -0.2402  0.1130  0.6384
 7604SOL    HW123625   7.616   5.840   7.409 -1.4159  0.8702  0.3357
 7604SOL    HW223626   7.669   5.927   7.297 -0.3643  0.7160  0.7044
 7605SOL     OW23627   5.769   1.034   1.122 -0.0445  0.5857  0.2273
 7605SOL    HW123628   5.756   0.940   1.126  0.0529  0.6348  2.1339
 7605SOL    HW223629   5.684   1.069   1.095 -0.6682  0.0904  1.5236
 7606SOL     OW23630   6.619   7.880   5.605 -0.1271  0.0506  0.3363
 7606SOL    HW123631   6.703   7.898   5.647  0.3711 -0.0907 -0.6111
 7606SOL    HW223632   6.590   7.965   5.571 -0.0205 -0.0422  0.0161
 7607SOL     OW23633   3.422   6.291   7.428 -0.4270  0.3966 -0.4682
 7607SOL    HW123634   3.504   6.338   7.415  1.1465 -2.0876  0.1630
 7607SOL    HW223635   3.406   6.247   7.345 -1.1997  0.9734 -0.6315
 7608SOL     OW23636   2.810   5.554   0.995 -0.4213  0.2620 -0.1513
 7608SOL    HW123637   2.800   5.623   1.060 -0.3539  0.1808 -0.0547
 7608SOL    HW223638   2.904   5.555   0.974 -0.5773  0.8258 -0.8376
 7609SOL     OW23639   4.846   4.464   5.854  0.2107 -0.3580 -0.2342
 7609SOL    HW123640   4.837   4.546   5.904 -0.1834 -0.8287  0.4793
 7609SOL    HW223641   4.924   4.477   5.801 -1.5248  1.6951 -2.4484
 7610SOL     OW23642   2.802   1.967   3.349 -0.2345  0.6438 -0.4310
 7610SOL    HW123643   2.861   1.928   3.284 -0.2216  0.8890 -0.5677
 7610SOL    HW223644   2.841   1.946   3.433 -1.7799 -2.2179 -0.3656
 7611SOL     OW23645   7.428   0.537   6.169  0.5744 -0.1212 -0.0933
 7611SOL    HW123646   7.383   0.455   6.192  1.3916 -0.3378  0.7795
 7611SOL    HW223647   7.516   0.526   6.204  0.2991  1.6982  1.2375
 7612SOL     OW23648   5.184   6.449   0.378 -0.0338 -0.1271 -0.0267
 7612SOL    HW123649   5.089   6.446   0.374 -0.0021 -0.5793 -0.4126
 7612SOL    HW223650   5.207   6.390   0.450 -0.0363 -0.1332 -0.0309
 7613SOL     OW23651   4.591   1.840   7.837  0.1928  0.2770 -0.1927
 7613SOL    HW123652   4.593   1.891   7.756  0.4321  0.9777  0.2517
 7613SOL    HW223653   4.674   1.793   7.838 -0.6702 -1.3331 -1.3666
 7614SOL     OW23654   2.434   5.422   3.616 -0.1625  0.3591 -0.2666
 7614SOL    HW123655   2.394   5.398   3.532 -0.9051  0.3038  0.0958
 7614SOL    HW223656   2.432   5.518   3.616 -1.2264  0.3433  0.1848
 7615SOL     OW23657   2.460   1.811   7.774  0.3193 -1.1357  0.2001
 7615SOL    HW123658   2.423   1.848   7.855 -0.8565 -0.5248 -0.5907
 7615SOL    HW223659   2.507   1.733   7.802 -3.4958 -3.2607  1.0471
 7616SOL     OW23660   2.353   7.183   0.922 -0.2552 -0.1214  0.2117
 7616SOL    HW123661   2.404   7.106   0.895  1.1846 -0.1755  2.9039
 7616SOL    HW223662   2.263   7.161   0.899  0.4497 -1.5542 -1.3474
 7617SOL     OW23663   4.308   3.455   1.965 -0.7185  0.2947 -0.8497
 7617SOL    HW123664   4.320   3.382   1.905  1.0430 -1.1482  1.1922
 7617SOL    HW223665   4.384   3.451   2.023 -0.8855  3.4073 -0.3280
 7618SOL     OW23666   4.076   3.786   4.328  0.2667  0.5319 -0.8613
 7618SOL    HW123667   4.063   3.706   4.379 -1.5866  1.6792  0.5289
 7618SOL    HW223668   4.056   3.761   4.238 -0.3272 -0.5627 -0.4333
 7619SOL     OW23669   7.947   0.857   2.077 -0.2465  0.2280  0.2010
 7619SOL    HW123670   7.908   0.819   2.156 -1.9834  1.9167  0.1913
 7619SOL    HW223671   7.876   0.857   2.013  0.7103  0.3293 -0.8666
 7620SOL     OW23672   4.833   7.718   5.888 -0.3384  0.2031 -0.4442
 7620SOL    HW123673   4.836   7.771   5.808  1.2294 -0.2562 -0.7097
 7620SOL    HW223674   4.898   7.759   5.946 -0.9002  0.0584  0.2904
 7621SOL     OW23675   5.019   6.245   6.494  0.0830  0.7674  0.0072
 7621SOL    HW123676   4.977   6.331   6.495  0.4723  0.9500  1.3617
 7621SOL    HW223677   4.977   6.197   6.566  0.9322  0.3502  0.2299
 7622SOL     OW23678   5.800   1.791   6.565 -0.6432 -0.2159  0.0446
 7622SOL    HW123679   5.740   1.831   6.502  0.0741 -1.1673 -1.2804
 7622SOL    HW223680   5.887   1.818   6.535 -0.3541  0.3922  1.3998
 7623SOL     OW23681   3.474   5.656   6.874  0.1161  0.2332  1.0370
 7623SOL    HW123682   3.388   5.695   6.862  0.6947  2.4300  3.5027
 7623SOL    HW223683   3.524   5.684   6.797 -0.6352  1.0216  0.8308
 7624SOL     OW23684   2.736   3.070   2.889  0.1763  0.0226 -0.1548
 7624SOL    HW123685   2.751   2.976   2.895  0.1005  0.1474  2.3786
 7624SOL    HW223686   2.642   3.078   2.872 -0.1234 -0.3293  1.2783
 7625SOL     OW23687   7.547   1.222   4.810 -0.0453  0.2496 -0.2852
 7625SOL    HW123688   7.565   1.247   4.719 -0.1512 -0.9548 -0.6503
 7625SOL    HW223689   7.524   1.304   4.853 -0.8146  0.7276 -1.5498
 7626SOL     OW23690   7.944   4.896   2.619 -0.0120  0.3140 -0.1997
 7626SOL    HW123691   7.928   4.962   2.552 -0.2858  0.7727  0.3117
 7626SOL    HW223692   8.039   4.896   2.632  0.3324 -1.5775 -2.4029
 7627SOL     OW23693   1.702   7.276   2.015  0.3611  0.4142 -0.4505
 7627SOL    HW123694   1.676   7.338   1.947  0.2845 -0.4297 -1.2027
 7627SOL    HW223695   1.682   7.321   2.098  0.8406  1.6102 -0.9679
 7628SOL     OW23696   5.484   0.345   1.088 -0.0087 -0.6881  0.0348
 7628SOL    HW123697   5.492   0.259   1.046  0.8078 -2.2797  3.2788
 7628SOL    HW223698   5.397   0.375   1.065  0.0514 -1.9084 -1.9713
 7629SOL     OW23699   0.041   4.964   0.864 -0.1295 -0.8749  0.1838
 7629SOL    HW123700   0.068   4.898   0.800 -0.2606  0.2740 -1.1001
 7629SOL    HW223701  -0.031   5.011   0.821 -1.0673 -0.9109  1.7026
 7630SOL     OW23702   3.797   4.422   1.591 -0.0785 -0.3176 -0.1010
 7630SOL    HW123703   3.832   4.339   1.623  0.2038  0.2930  1.2257
 7630SOL    HW223704   3.714   4.399   1.548 -0.8127 -1.0895  1.6830
 7631SOL     OW23705   1.030   4.052   4.002  0.1744  0.4709 -0.0099
 7631SOL    HW123706   1.005   4.137   4.037 -1.5143 -1.0427  2.6502
 7631SOL    HW223707   1.111   4.030   4.048  0.0092  0.1542  0.1296
 7632SOL     OW23708   7.189   6.683   4.284 -0.5111 -0.9030  0.3300
 7632SOL    HW123709   7.130   6.744   4.328 -0.9333 -0.2258 -1.1682
 7632SOL    HW223710   7.221   6.730   4.208  1.3433 -1.5589  0.6765
 7633SOL     OW23711   4.794   4.630   0.316  0.1098 -0.7788 -0.0004
 7633SOL    HW123712   4.763   4.712   0.354 -0.7469 -1.0282 -0.1702
 7633SOL    HW223713   4.835   4.656   0.233  0.2014 -0.4831  0.1363
 7634SOL     OW23714   2.785   6.450   5.956  0.2394 -0.0367  0.3194
 7634SOL    HW123715   2.737   6.402   5.888 -3.0672  1.6883  1.3294
 7634SOL    HW223716   2.806   6.534   5.916 -2.1388  1.1642  1.5531
 7635SOL     OW23717   1.601   3.823   2.704 -0.2613  0.1462  0.2823
 7635SOL    HW123718   1.660   3.748   2.715 -1.2410 -0.3454  2.2601
 7635SOL    HW223719   1.659   3.897   2.685  0.7440 -1.0031 -1.1931
 7636SOL     OW23720   5.674   1.131   2.270  0.2313  0.5686 -0.2616
 7636SOL    HW123721   5.676   1.043   2.231 -1.1658  0.2581  0.3576
 7636SOL    HW223722   5.582   1.147   2.290  0.7124  1.4233  1.3594
 7637SOL     OW23723   6.492   2.783   6.024 -0.1518  0.5335 -0.4140
 7637SOL    HW123724   6.557   2.813   6.088 -1.8173  0.3978  1.4292
 7637SOL    HW223725   6.526   2.811   5.939  2.7110 -0.3117  0.3965
 7638SOL     OW23726   1.739   3.609   1.676  0.1682 -0.3697  0.0977
 7638SOL    HW123727   1.826   3.640   1.652 -0.6039  0.5302 -1.6639
 7638SOL    HW223728   1.682   3.685   1.665 -0.5687 -0.4121  3.1116
 7639SOL     OW23729   2.274   2.915   7.967 -0.4443 -0.2498  0.6678
 7639SOL    HW123730   2.204   2.856   7.996 -1.4011  0.8315  0.5833
 7639SOL    HW223731   2.353   2.878   8.007 -1.3099 -0.4953  2.2164
 7640SOL     OW23732   4.665   0.177   5.369 -0.0817 -0.3979  0.4820
 7640SOL    HW123733   4.689   0.087   5.346 -1.4122 -0.7971  0.6267
 7640SOL    HW223734   4.735   0.230   5.332  1.2654 -1.5747  1.2846
 7641SOL     OW23735   3.063   5.993   6.152  0.0962  0.1832  0.4894
 7641SOL    HW123736   3.141   5.961   6.197  1.0221 -0.2255 -1.3539
 7641SOL    HW223737   3.089   5.999   6.060 -2.0914 -0.1329 -0.1894
 7642SOL     OW23738   0.340   6.076   1.524 -0.4508 -0.4655 -0.1165
 7642SOL    HW123739   0.429   6.065   1.492 -0.7991  0.5382 -1.4554
 7642SOL    HW223740   0.289   6.099   1.447 -1.3805  1.6674  1.0906
 7643SOL     OW23741   2.133   6.325   2.513 -0.1528 -0.2723  0.3970
 7643SOL    HW123742   2.123   6.419   2.501  1.2499 -0.3073 -1.2110
 7643SOL    HW223743   2.075   6.285   2.449  0.7471 -0.4808 -0.3090
 7644SOL     OW23744   7.826   7.027   5.532 -0.0012 -0.1530  0.1202
 7644SOL    HW123745   7.801   7.118   5.517 -0.8083 -0.6638 -1.9114
 7644SOL    HW223746   7.792   6.980   5.455  1.3846 -1.9752  0.5729
 7645SOL     OW23747   5.667   2.795   5.611  0.1633 -0.5269 -0.0346
 7645SOL    HW123748   5.654   2.818   5.519 -2.4827 -3.2947 -0.4008
 7645SOL    HW223749   5.599   2.845   5.658  0.1410 -0.7635  0.1856
 7646SOL     OW23750   6.858   3.879   1.667  0.0466  0.5498  0.2801
 7646SOL    HW123751   6.938   3.924   1.694  0.8571 -0.9269  0.3858
 7646SOL    HW223752   6.875   3.851   1.577 -1.1812  2.0846 -0.4637
 7647SOL     OW23753   0.602   5.756   6.071  0.7102  0.1450 -0.5446
 7647SOL    HW123754   0.536   5.691   6.097 -0.4132  1.0129 -1.1824
 7647SOL    HW223755   0.552   5.826   6.029  1.9502  1.2414 -0.2458
 7648SOL     OW23756   2.401   7.768   2.430  0.3640  0.5903  0.0318
 7648SOL    HW123757   2.311   7.735   2.430 -0.0102  1.6146 -0.2489
 7648SOL    HW223758   2.404   7.829   2.356  1.6496 -0.4187 -0.7739
 7649SOL     OW23759   1.741   5.885   2.907  0.4640  0.5314  0.3334
 7649SOL    HW123760   1.721   5.798   2.944 -0.4950  0.6074  0.0020
 7649SOL    HW223761   1.836   5.884   2.896  0.4756 -0.4533  0.4103
 7650SOL     OW23762   7.197   3.647   5.992  0.2786  0.3975 -0.4693
 7650SOL    HW123763   7.129   3.714   5.994 -0.7338 -0.6720  1.4028
 7650SOL    HW223764   7.244   3.664   5.910 -1.9154  1.4336 -1.5427
 7651SOL     OW23765   0.258   7.348   2.737 -0.4676 -0.6293 -0.2345
 7651SOL    HW123766   0.253   7.284   2.666  0.9537 -0.4395 -0.5114
 7651SOL    HW223767   0.264   7.295   2.816  1.6292 -0.8482 -0.5313
 7652SOL     OW23768   1.456   6.977   2.313  0.5975  0.4868 -0.4937
 7652SOL    HW123769   1.485   6.891   2.342 -0.2434  0.2333 -0.3920
 7652SOL    HW223770   1.390   6.959   2.246  0.6202  1.0574 -0.6753
 7653SOL     OW23771   6.768   3.735   1.930 -0.3529 -0.1082  0.1700
 7653SOL    HW123772   6.833   3.666   1.946 -1.4887 -2.0901 -3.2455
 7653SOL    HW223773   6.807   3.789   1.861 -1.5478 -0.2706 -0.6531
 7654SOL     OW23774   2.665   3.318   4.974  0.1869 -0.2157  0.0306
 7654SOL    HW123775   2.599   3.291   4.910 -1.5022 -1.4323  2.2209
 7654SOL    HW223776   2.638   3.406   5.001  0.2412 -0.1570 -0.1098
 7655SOL     OW23777   4.270   6.346   7.556  0.3907 -0.1413 -0.7996
 7655SOL    HW123778   4.246   6.401   7.631 -0.3408 -1.4804 -0.0268
 7655SOL    HW223779   4.242   6.396   7.480 -1.0441  0.2043 -0.0776
 7656SOL     OW23780   1.345   4.256   0.741 -0.1869  0.4286 -0.1672
 7656SOL    HW123781   1.274   4.252   0.805  0.8386  1.1439  1.0519
 7656SOL    HW223782   1.338   4.344   0.704  0.0782  0.5128 -0.0191
 7657SOL     OW23783   0.746   2.214   7.199  0.1935 -0.1454  0.0378
 7657SOL    HW123784   0.666   2.266   7.193  0.4829  0.2387 -0.5195
 7657SOL    HW223785   0.720   2.135   7.247 -1.0344 -1.0870 -2.1262
 7658SOL     OW23786   0.724   3.352   4.428 -0.0224  0.1204  0.1314
 7658SOL    HW123787   0.641   3.321   4.394 -0.6931  0.8053  1.0872
 7658SOL    HW223788   0.790   3.292   4.393 -0.9420 -0.5224 -0.4929
 7659SOL     OW23789   0.051   6.745   5.173  0.3975  0.3016  0.1397
 7659SOL    HW123790   0.047   6.832   5.134  1.5243 -0.5028 -1.8543
 7659SOL    HW223791   0.126   6.749   5.234  0.5329  0.6835 -0.0526
 7660SOL     OW23792   0.786   7.343   1.553 -0.8262 -0.4208  1.0708
 7660SOL    HW123793   0.701   7.382   1.575 -1.0218  0.5512 -1.3063
 7660SOL    HW223794   0.818   7.395   1.479  0.5882 -2.5111  0.1675
 7661SOL     OW23795   1.143   3.508   3.947  0.3639 -0.4970 -0.2215
 7661SOL    HW123796   1.061   3.494   3.900  0.6546  2.0151 -1.5634
 7661SOL    HW223797   1.187   3.423   3.944 -1.0469 -1.2013 -1.7342
 7662SOL     OW23798   2.005   2.517   4.443 -0.1164 -0.1734 -0.0821
 7662SOL    HW123799   2.084   2.530   4.391 -0.2178 -1.3079 -0.5325
 7662SOL    HW223800   1.994   2.599   4.491  0.6857  0.4142 -0.8867
 7663SOL     OW23801   1.683   5.985   7.270  0.0517 -0.2214 -0.1446
 7663SOL    HW123802   1.682   6.037   7.190  1.1279 -0.0828 -0.0743
 7663SOL    HW223803   1.749   6.027   7.326 -0.3120 -0.6279  0.6001
 7664SOL     OW23804   1.459   7.239   5.705  0.0273  0.1501 -0.5542
 7664SOL    HW123805   1.481   7.185   5.781 -2.2532  0.1579  0.1426
 7664SOL    HW223806   1.422   7.319   5.743 -1.6390 -0.0806 -1.6918
 7665SOL     OW23807   0.893   1.491   7.227 -0.2043 -0.5796 -0.1771
 7665SOL    HW123808   0.905   1.406   7.184 -0.0183  0.8242 -3.0306
 7665SOL    HW223809   0.803   1.516   7.206  0.2338  0.6193 -0.7124
 7666SOL     OW23810   4.600   1.488   7.397 -0.4645 -0.3816  0.5502
 7666SOL    HW123811   4.532   1.521   7.338 -0.0689  1.9606  1.3525
 7666SOL    HW223812   4.560   1.490   7.483 -0.2811 -1.6444  0.6756
 7667SOL     OW23813   2.998   2.861   5.426 -0.7783 -0.0590 -0.4309
 7667SOL    HW123814   3.077   2.818   5.461 -0.8854  1.5787  1.9228
 7667SOL    HW223815   2.967   2.802   5.358  2.5445 -0.7059 -1.4696
 7668SOL     OW23816   5.768   1.001   7.367 -0.3716 -0.5831 -0.5711
 7668SOL    HW123817   5.778   1.082   7.418  0.4466 -0.7461 -0.4670
 7668SOL    HW223818   5.805   1.021   7.282 -1.2392 -0.4876 -0.9363
 7669SOL     OW23819   4.572   5.553   7.899  0.4833 -0.2079 -0.1349
 7669SOL    HW123820   4.657   5.597   7.897  0.6348 -0.4740  0.3771
 7669SOL    HW223821   4.590   5.463   7.873  0.2177 -0.0474 -0.8979
 7670SOL     OW23822   1.158   4.550   6.186 -0.2460 -0.1467  0.0971
 7670SOL    HW123823   1.140   4.456   6.190  0.5023 -0.3342 -0.6473
 7670SOL    HW223824   1.133   4.575   6.097 -2.3341  0.7804  0.9184
 7671SOL     OW23825   6.523   4.003   7.189 -0.1287  0.7768  0.3503
 7671SOL    HW123826   6.561   4.075   7.139 -0.5870  0.8410  0.0873
 7671SOL    HW223827   6.587   3.932   7.182  0.8297  1.5146  1.5299
 7672SOL     OW23828   4.279   1.754   7.106 -0.2837 -0.0812 -0.2084
 7672SOL    HW123829   4.304   1.788   7.020  0.8518  1.8003  0.8211
 7672SOL    HW223830   4.184   1.765   7.110  0.0259  2.9186  0.0271
 7673SOL     OW23831   7.495   6.411   4.442 -0.1268 -0.0132  0.0412
 7673SOL    HW123832   7.468   6.362   4.520  0.5977  0.3636  0.5358
 7673SOL    HW223833   7.413   6.430   4.396 -0.4945 -0.8868  0.3247
 7674SOL     OW23834   6.446   7.635   3.119 -0.1878 -0.2562 -0.0217
 7674SOL    HW123835   6.491   7.720   3.119 -1.7429  0.6025  1.8402
 7674SOL    HW223836   6.514   7.573   3.093  1.3585  1.3671 -0.0193
 7675SOL     OW23837   6.404   3.582   3.646 -0.2428  0.6858  0.3643
 7675SOL    HW123838   6.334   3.633   3.687 -2.5383 -2.5225  0.7130
 7675SOL    HW223839   6.451   3.542   3.719  0.2740  0.7018  0.0428
 7676SOL     OW23840   4.220   2.766   5.341  0.0335 -0.0854 -0.3005
 7676SOL    HW123841   4.214   2.828   5.268 -0.8606  3.3969  2.5608
 7676SOL    HW223842   4.129   2.743   5.361  0.1647  0.3305  0.7916
 7677SOL     OW23843   2.944   6.856   0.816  0.5788  0.2033 -0.2258
 7677SOL    HW123844   2.898   6.781   0.779  1.7373 -0.5235 -0.2169
 7677SOL    HW223845   2.925   6.852   0.910  1.2321 -0.5144 -0.1163
 7678SOL     OW23846   3.290   2.052   1.122 -0.1588 -0.6056 -0.1396
 7678SOL    HW123847   3.263   2.139   1.092 -2.5160 -1.5247 -0.7077
 7678SOL    HW223848   3.286   2.058   1.218  0.9986  0.2961 -0.1256
 7679SOL     OW23849   7.253   5.304   4.621  0.1048  0.2702 -0.1752
 7679SOL    HW123850   7.293   5.362   4.686 -1.8877  2.4654 -0.8135
 7679SOL    HW223851   7.169   5.280   4.660 -0.6683  0.8068 -1.4848
 7680SOL     OW23852   7.244   6.271   5.441 -0.5799 -0.2627 -0.6946
 7680SOL    HW123853   7.220   6.309   5.526 -1.0231  0.5555 -1.1828
 7680SOL    HW223854   7.324   6.316   5.416 -0.5079 -0.4261 -0.7552
 7681SOL     OW23855   2.372   3.626   6.095  0.7637 -0.2535 -0.3522
 7681SOL    HW123856   2.424   3.570   6.037  0.6955  0.4546 -1.1065
 7681SOL    HW223857   2.296   3.572   6.118  1.0697 -0.7429 -0.4710
 7682SOL     OW23858   7.685   2.926   2.487  0.3503 -0.0622 -0.4597
 7682SOL    HW123859   7.761   2.934   2.545  0.7186 -1.7178 -0.6919
 7682SOL    HW223860   7.619   2.882   2.540  0.6334 -1.4369 -1.2399
 7683SOL     OW23861   2.846   5.928   6.320  0.9922  0.6464  0.6002
 7683SOL    HW123862   2.936   5.956   6.302  1.5402  0.0153  2.2749
 7683SOL    HW223863   2.839   5.929   6.415  0.1534 -2.1578  0.6025
 7684SOL     OW23864   1.427   5.138   0.022  0.1596  0.1784 -0.3648
 7684SOL    HW123865   1.449   5.210  -0.036  1.2424  0.2836  0.1517
 7684SOL    HW223866   1.508   5.087   0.029 -0.2222 -0.3581  0.2897
 7685SOL     OW23867   1.837   2.742   6.678  0.2011 -0.3849 -0.0515
 7685SOL    HW123868   1.757   2.713   6.633  1.0732  1.3222 -2.8387
 7685SOL    HW223869   1.842   2.836   6.659  3.4237 -0.6701 -0.8582
 7686SOL     OW23870   0.926   4.465   3.445  0.1882 -0.3025  0.1100
 7686SOL    HW123871   0.939   4.373   3.422  0.7213 -0.0731 -0.4976
 7686SOL    HW223872   0.838   4.486   3.412  0.1672 -0.5208  0.0247
 7687SOL     OW23873   5.747   6.030   3.772  0.1230  0.0668 -0.0332
 7687SOL    HW123874   5.680   6.065   3.831 -1.3797 -0.4793 -1.3841
 7687SOL    HW223875   5.830   6.050   3.815 -0.9047  0.8497  1.6155
 7688SOL     OW23876   5.514   7.378   6.390 -0.2581 -0.1919 -0.0802
 7688SOL    HW123877   5.437   7.323   6.406  1.3765 -2.7769 -0.7965
 7688SOL    HW223878   5.548   7.397   6.477 -0.9180 -0.1624  0.1782
 7689SOL     OW23879   1.505   6.595   0.570  0.0603 -0.3482  0.1058
 7689SOL    HW123880   1.559   6.634   0.639  0.0354 -1.3402  0.7011
 7689SOL    HW223881   1.520   6.501   0.579 -0.8475 -0.5504 -0.4892
 7690SOL     OW23882   2.696   2.216   3.710 -0.3745  0.3602 -0.4054
 7690SOL    HW123883   2.659   2.224   3.622 -1.1610 -0.0175 -0.1138
 7690SOL    HW223884   2.790   2.228   3.698 -0.4787  0.2979 -1.2996
 7691SOL     OW23885   7.077   6.241   2.752 -0.1537  0.2631 -0.0948
 7691SOL    HW123886   7.043   6.263   2.665  0.0095  0.5707 -0.0813
 7691SOL    HW223887   7.172   6.232   2.739  0.1319  2.2778  0.4431
 7692SOL     OW23888   4.270   0.544   0.002  0.0074  0.0541 -0.0857
 7692SOL    HW123889   4.189   0.584   0.035  0.5391  0.2098  1.0492
 7692SOL    HW223890   4.329   0.618  -0.013  0.1491 -0.1081 -0.3222
 7693SOL     OW23891   0.433   7.268   2.449  0.6933 -0.4867  0.0205
 7693SOL    HW123892   0.392   7.332   2.391 -0.4936 -0.9620  0.3415
 7693SOL    HW223893   0.478   7.208   2.390 -0.4462 -0.9267 -0.4049
 7694SOL     OW23894   0.428   0.520   2.645  0.0774 -0.1469 -0.1877
 7694SOL    HW123895   0.396   0.546   2.559  0.9641 -0.1473 -0.5165
 7694SOL    HW223896   0.520   0.500   2.632 -0.4798 -3.1864  0.1142
 7695SOL     OW23897   5.339   3.599   7.759 -0.6225  0.0802 -0.2970
 7695SOL    HW123898   5.270   3.648   7.804 -0.7025  0.7575 -1.1430
 7695SOL    HW223899   5.376   3.661   7.697  0.3238 -0.4758 -0.2970
 7696SOL     OW23900   4.717   7.572   7.006 -0.5580 -0.3789 -0.2028
 7696SOL    HW123901   4.648   7.638   6.991 -2.1593 -1.9997 -0.1809
 7696SOL    HW223902   4.766   7.606   7.080 -1.0393  1.0564 -0.5201
 7697SOL     OW23903   5.770   0.255   0.840  0.3787  0.2317  0.0059
 7697SOL    HW123904   5.841   0.195   0.816  1.3401  1.9774 -1.6123
 7697SOL    HW223905   5.794   0.286   0.928  1.4012  0.5071 -0.3681
 7698SOL     OW23906   2.658   1.079   5.419  0.5396  0.4159  0.0604
 7698SOL    HW123907   2.617   1.148   5.369  0.5797 -0.9828 -1.9788
 7698SOL    HW223908   2.632   1.095   5.510 -2.8640  0.6845 -0.9154
 7699SOL     OW23909   7.155   4.082   2.207 -0.0770 -0.1941 -0.1881
 7699SOL    HW123910   7.131   4.065   2.298  0.8953  1.4743  0.4055
 7699SOL    HW223911   7.222   4.150   2.212  0.9919 -1.0534 -2.0792
 7700SOL     OW23912   5.355   6.522   0.987 -0.2543  0.0631  0.0232
 7700SOL    HW123913   5.413   6.445   0.983  1.7116  1.5793 -2.1642
 7700SOL    HW223914   5.400   6.582   1.046 -0.7699  0.3310  0.1399
 7701SOL     OW23915   6.256   3.575   4.350 -0.0833  0.4789  0.2538
 7701SOL    HW123916   6.202   3.508   4.307 -0.9804  0.9252  0.6771
 7701SOL    HW223917   6.209   3.657   4.336  0.1674  0.7880  1.1703
 7702SOL     OW23918   3.711   3.168   6.904 -0.2136  0.1355 -0.2232
 7702SOL    HW123919   3.645   3.201   6.965 -1.2674 -0.8507 -0.7987
 7702SOL    HW223920   3.729   3.079   6.934  0.6795  0.3216 -0.2102
 7703SOL     OW23921   3.910   1.057   1.038  0.0108 -0.0455 -0.1933
 7703SOL    HW123922   3.998   1.076   1.071 -0.2078  0.0863  0.3060
 7703SOL    HW223923   3.854   1.061   1.115 -0.2789 -1.1431 -0.3494
 7704SOL     OW23924   3.588   4.079   1.694 -0.1591  0.2450  0.0835
 7704SOL    HW123925   3.638   4.145   1.742 -2.4394  1.5168  0.7422
 7704SOL    HW223926   3.594   4.106   1.603  0.0190  0.6187  0.2049
 7705SOL     OW23927   1.173   5.021   2.396 -0.4940 -0.8276  0.2097
 7705SOL    HW123928   1.086   5.035   2.434  0.2797 -0.7922  2.0296
 7705SOL    HW223929   1.206   4.943   2.441  0.3981 -0.8631 -0.5052
 7706SOL     OW23930   0.463   2.356   3.850 -0.6869 -0.1096  0.7433
 7706SOL    HW123931   0.434   2.366   3.941 -0.2270 -0.6380  0.9517
 7706SOL    HW223932   0.399   2.296   3.811  0.3632 -1.6431  1.3285
 7707SOL     OW23933   1.402   1.738   5.504 -0.4248 -0.1902 -0.2509
 7707SOL    HW123934   1.475   1.676   5.495 -0.4615 -0.2813  0.0762
 7707SOL    HW223935   1.388   1.771   5.415  0.2547  0.0958 -0.2570
 7708SOL     OW23936   0.152   7.514   3.065 -0.0437  0.8418 -0.4067
 7708SOL    HW123937   0.145   7.554   2.979  0.5886  0.8053 -0.4780
 7708SOL    HW223938   0.246   7.518   3.086 -0.0251 -0.2510 -0.2524
 7709SOL     OW23939   5.559   2.148   0.487 -0.4931  0.2189 -0.0641
 7709SOL    HW123940   5.598   2.192   0.563 -0.3924  0.8677 -0.4856
 7709SOL    HW223941   5.557   2.056   0.511 -0.4212  0.4152  0.7128
 7710SOL     OW23942   0.084   3.749   6.007 -0.4677  0.5818 -0.6653
 7710SOL    HW123943   0.072   3.840   6.032  0.8637  0.7392 -0.5686
 7710SOL    HW223944   0.011   3.703   6.049 -0.5297  1.4442  0.1936
 7711SOL     OW23945   2.190   4.308   1.540 -0.4789 -0.5191  0.1634
 7711SOL    HW123946   2.227   4.307   1.628 -0.8870 -1.2582  0.3366
 7711SOL    HW223947   2.266   4.313   1.482 -0.2681  1.5198  0.5752
 7712SOL     OW23948   6.423   3.571   7.225 -0.0248 -0.3246  0.6106
 7712SOL    HW123949   6.372   3.544   7.148  1.0592 -0.7463  0.0186
 7712SOL    HW223950   6.379   3.649   7.257  0.2328  0.5913 -1.1949
 7713SOL     OW23951   4.065   6.158   2.094  0.1077 -0.6787  0.4441
 7713SOL    HW123952   4.122   6.085   2.070 -0.7914 -0.8851 -1.1289
 7713SOL    HW223953   4.010   6.172   2.017  0.7931  2.2001  0.4138
 7714SOL     OW23954   7.736   0.982   3.399  0.7030  0.0401 -0.0858
 7714SOL    HW123955   7.729   1.045   3.470 -0.8042 -0.3468  0.1331
 7714SOL    HW223956   7.725   0.897   3.441  0.2198 -0.2150 -0.7064
 7715SOL     OW23957   3.597   7.301   6.799 -0.1100 -0.3287 -0.5267
 7715SOL    HW123958   3.609   7.392   6.771  0.9780 -0.4428 -0.4765
 7715SOL    HW223959   3.506   7.296   6.829 -0.0929  0.8205 -0.2717
 7716SOL     OW23960   0.145   7.769   0.953  0.3019  0.2719 -0.3269
 7716SOL    HW123961   0.118   7.849   0.998  0.6826  0.9234 -1.2592
 7716SOL    HW223962   0.064   7.733   0.917 -0.0944 -0.5487  1.3383
 7717SOL     OW23963   1.942   0.376   3.071  0.2934  0.4336  1.1145
 7717SOL    HW123964   1.902   0.299   3.033 -0.9626  1.5363  0.1589
 7717SOL    HW223965   1.988   0.418   2.999  1.8055  0.0601  1.8415
 7718SOL     OW23966   5.340   7.498   6.180 -0.0494  0.5023 -0.3519
 7718SOL    HW123967   5.335   7.459   6.093 -1.5354 -1.1488  0.4418
 7718SOL    HW223968   5.402   7.442   6.228  3.8350  3.6156 -1.3844
 7719SOL     OW23969   3.255   0.195   3.004 -0.0751 -0.1809 -0.3070
 7719SOL    HW123970   3.161   0.198   3.024 -0.3878 -1.8157 -1.4791
 7719SOL    HW223971   3.277   0.102   3.008  1.7120  0.2713  0.8654
 7720SOL     OW23972   2.695   7.369   6.856  0.3540  0.5891 -0.1020
 7720SOL    HW123973   2.701   7.465   6.850 -2.8764  0.9416  1.0617
 7720SOL    HW223974   2.601   7.352   6.855  0.8966 -2.8580 -3.7293
 7721SOL     OW23975   0.910   0.880   2.910  0.2112 -0.2308  0.4411
 7721SOL    HW123976   0.826   0.862   2.869 -0.2160 -0.2959  1.3232
 7721SOL    HW223977   0.910   0.826   2.989  0.1465  1.4103  1.6008
 7722SOL     OW23978   5.780   5.930   5.235  0.8599 -0.0468  0.3942
 7722SOL    HW123979   5.799   5.898   5.147  1.3777 -0.7293  0.7520
 7722SOL    HW223980   5.691   5.967   5.228  1.1197  0.4369 -0.5453
 7723SOL     OW23981   2.604   0.109   1.465 -0.6937  0.1361  0.2298
 7723SOL    HW123982   2.603   0.171   1.392 -1.0645 -1.7301 -1.3894
 7723SOL    HW223983   2.539   0.143   1.526 -1.6516  0.7960 -1.1211
 7724SOL     OW23984   3.473   2.775   2.282  0.1858  0.5224 -0.1858
 7724SOL    HW123985   3.542   2.830   2.244  0.5304 -0.8100 -1.5394
 7724SOL    HW223986   3.515   2.731   2.356  0.1621  1.3750  0.3429
 7725SOL     OW23987   3.135   7.861   7.621 -0.3934 -0.0142  0.1167
 7725SOL    HW123988   3.197   7.850   7.693  0.7563 -0.6959 -0.9687
 7725SOL    HW223989   3.055   7.819   7.652 -0.3795  0.9917  1.5825
 7726SOL     OW23990   3.068   4.092   4.690  0.4144 -0.6780 -0.5426
 7726SOL    HW123991   3.154   4.132   4.675  0.8933 -1.5159 -0.0449
 7726SOL    HW223992   3.038   4.066   4.603 -0.2382  1.4068 -0.9801
 7727SOL     OW23993   5.121   0.397   0.345  0.2457  0.0250 -0.5378
 7727SOL    HW123994   5.151   0.313   0.310 -1.2363  0.1872 -2.2724
 7727SOL    HW223995   5.201   0.444   0.367  1.1509 -0.9033 -1.8146
 7728SOL     OW23996   6.780   5.786   3.321  0.1969 -0.6528  0.7663
 7728SOL    HW123997   6.811   5.726   3.253  2.6518  0.1731  1.1016
 7728SOL    HW223998   6.785   5.736   3.402 -0.5950 -0.9234  0.6532
 7729SOL     OW23999   6.053   4.012   0.165  0.6686  0.0971  0.4821
 7729SOL    HW124000   6.094   3.968   0.090 -1.8801 -0.2242 -0.7940
 7729SOL    HW224001   6.017   4.093   0.128  0.4115  0.5042  1.6229
 7730SOL     OW24002   4.342   3.769   0.948  0.0323  0.3819 -0.1898
 7730SOL    HW124003   4.275   3.732   0.890 -0.3478  0.3374  0.2701
 7730SOL    HW224004   4.405   3.810   0.889  0.2492 -0.6451 -0.6821
 7731SOL     OW24005   6.249   6.650   7.596  0.2563 -0.1269  0.0011
 7731SOL    HW124006   6.230   6.581   7.533  1.3447 -0.4710  0.0427
 7731SOL    HW224007   6.163   6.689   7.616 -0.5352 -2.3128  0.9639
 7732SOL     OW24008   2.233   1.283   4.238 -0.5106 -0.1685 -0.0449
 7732SOL    HW124009   2.264   1.257   4.151  2.7102 -1.8690  1.5568
 7732SOL    HW224010   2.169   1.215   4.261  1.1321 -1.6510  0.2833
 7733SOL     OW24011   2.651   6.706   7.002 -0.1643 -0.1396 -0.5612
 7733SOL    HW124012   2.609   6.698   6.916  0.5446 -1.2248 -0.8266
 7733SOL    HW224013   2.582   6.736   7.060 -1.1374 -1.2467 -1.1251
 7734SOL     OW24014   5.764   6.034   2.109  0.2147 -0.5037  0.3154
 7734SOL    HW124015   5.738   5.944   2.089 -2.4345  0.8304 -2.6938
 7734SOL    HW224016   5.719   6.055   2.190 -1.4819 -0.9511 -0.4960
 7735SOL     OW24017   6.315   2.010   4.935  0.0073 -0.6693  0.6987
 7735SOL    HW124018   6.410   2.014   4.921  0.0520 -1.6177  0.6991
 7735SOL    HW224019   6.289   1.926   4.900 -0.6737 -0.8642  1.6388
 7736SOL     OW24020   4.558   2.229   7.937  0.3001 -0.0149  0.0147
 7736SOL    HW124021   4.482   2.263   7.984 -0.2909 -0.6827 -0.4512
 7736SOL    HW224022   4.522   2.161   7.880  1.3501 -0.8235  0.3137
 7737SOL     OW24023   2.514   5.917   1.018  0.0391 -0.3889  0.2289
 7737SOL    HW124024   2.474   6.003   1.005 -0.6899 -0.8738 -0.8042
 7737SOL    HW224025   2.476   5.884   1.099  1.4352  0.8793  1.4363
 7738SOL     OW24026   2.916   1.320   7.943 -0.3788  0.0375 -0.0382
 7738SOL    HW124027   2.935   1.306   7.851  0.5503 -0.6871  0.2475
 7738SOL    HW224028   2.894   1.232   7.976 -2.6957  0.6142 -0.0144
 7739SOL     OW24029   3.176   0.252   7.484 -0.0577  1.0657  0.0829
 7739SOL    HW124030   3.186   0.216   7.396 -1.5778  0.0812  0.2912
 7739SOL    HW224031   3.212   0.340   7.479  0.9999  0.5642 -1.2065
 7740SOL     OW24032   1.282   1.857   3.981 -0.0573 -0.0554 -0.0149
 7740SOL    HW124033   1.252   1.912   4.052 -1.6856 -2.3835  1.1649
 7740SOL    HW224034   1.210   1.796   3.965  1.5245 -1.6020 -1.5038
 7741SOL     OW24035   5.023   1.961   0.089 -0.9434 -0.4338 -0.4915
 7741SOL    HW124036   4.997   1.878   0.130 -2.0867  1.6154  3.2064
 7741SOL    HW224037   4.942   1.994   0.050 -0.7802 -0.5034 -0.8810
 7742SOL     OW24038   6.567   6.915   0.897  1.0910  0.3436 -0.7089
 7742SOL    HW124039   6.605   6.995   0.861 -1.9622  1.5610 -1.3373
 7742SOL    HW224040   6.591   6.917   0.990  2.4116  1.1252 -1.0476
 7743SOL     OW24041   3.475   0.896   2.186 -0.0529 -0.7634  0.4917
 7743SOL    HW124042   3.438   0.825   2.239 -1.4378 -0.4923 -0.0773
 7743SOL    HW224043   3.464   0.866   2.095  1.2590 -0.7291  0.3169
 7744SOL     OW24044   6.688   1.203   4.534  0.3671 -0.5026 -0.0431
 7744SOL    HW124045   6.746   1.150   4.479  0.9555 -0.4274  0.4935
 7744SOL    HW224046   6.737   1.213   4.616  0.3985  1.1286 -0.2517
 7745SOL     OW24047   3.154   2.746   7.840  0.2807  0.5308  0.3251
 7745SOL    HW124048   3.060   2.735   7.858  0.1975  1.4522  0.4584
 7745SOL    HW224049   3.157   2.803   7.763  0.6879 -1.4912 -1.2121
 7746SOL     OW24050   7.960   7.692   2.116 -0.0718 -0.6749 -0.0968
 7746SOL    HW124051   7.988   7.602   2.100  1.4239 -0.8536  3.1782
 7746SOL    HW224052   7.907   7.687   2.196  1.3073  1.5476  0.9935
 7747SOL     OW24053   3.071   5.157   4.188  0.3915 -0.4955 -0.2656
 7747SOL    HW124054   3.140   5.214   4.155  0.4552 -1.6899 -2.2295
 7747SOL    HW224055   3.093   5.145   4.281  1.0185  1.7050 -0.0994
 7748SOL     OW24056   6.645   3.948   0.753 -0.3300 -0.3148  0.0575
 7748SOL    HW124057   6.659   4.002   0.830 -0.3079  0.1395 -0.2649
 7748SOL    HW224058   6.659   4.007   0.679 -0.6074 -0.6843 -0.2915
 7749SOL     OW24059   4.672   7.531   2.178  0.0050 -0.1960 -0.3762
 7749SOL    HW124060   4.652   7.519   2.085 -0.5220  0.6358 -0.3753
 7749SOL    HW224061   4.624   7.462   2.223 -1.4758  0.7166 -0.5331
 7750SOL     OW24062   1.579   2.327   2.749  0.0799  0.6188 -0.6015
 7750SOL    HW124063   1.534   2.386   2.688 -0.3785  1.2364  0.3344
 7750SOL    HW224064   1.634   2.384   2.802 -2.3260  0.5368  2.0554
 7751SOL     OW24065   5.093   2.264   7.903  0.1118  0.2519 -0.1353
 7751SOL    HW124066   5.170   2.232   7.950  2.8162  1.9629 -3.1829
 7751SOL    HW224067   5.063   2.187   7.853  0.6572 -0.0882  0.0504
 7752SOL     OW24068   4.268   0.678   5.817 -0.2143  0.3116  0.2475
 7752SOL    HW124069   4.187   0.719   5.787  0.0177  0.4895 -0.1346
 7752SOL    HW224070   4.272   0.594   5.771  0.3691  0.7837 -0.5621
 7753SOL     OW24071   5.089   0.977   1.554  0.1677  0.2480  0.6034
 7753SOL    HW124072   5.159   1.024   1.509 -0.1285  0.3583  0.2570
 7753SOL    HW224073   5.076   0.898   1.502  0.2100  0.1024  0.8125
 7754SOL     OW24074   0.747   6.294   5.892  0.1132  0.3675 -0.2754
 7754SOL    HW124075   0.662   6.332   5.915 -0.2913 -0.0119 -1.1234
 7754SOL    HW224076   0.753   6.215   5.946 -1.1250 -0.8781 -1.9204
 7755SOL     OW24077   3.635   7.849   5.068 -0.3736  0.4310  0.3366
 7755SOL    HW124078   3.557   7.836   5.013  0.7681 -0.7394 -1.0499
 7755SOL    HW224079   3.686   7.769   5.056  1.4753  1.5644  0.5068
 7756SOL     OW24080   6.120   5.251   0.959  0.5405 -0.0169  0.3888
 7756SOL    HW124081   6.034   5.208   0.958  0.2983  0.4797 -0.3911
 7756SOL    HW224082   6.140   5.261   1.052 -0.1696 -0.3074  0.5759
 7757SOL     OW24083   5.897   5.910   1.408  0.6273 -0.3524  0.0132
 7757SOL    HW124084   5.935   5.956   1.482  0.8573 -0.2751 -0.1515
 7757SOL    HW224085   5.825   5.858   1.445 -0.8701  1.5928 -0.0640
 7758SOL     OW24086   0.351   6.674   4.082 -0.3870 -0.5517 -0.6215
 7758SOL    HW124087   0.299   6.618   4.138 -1.7314  0.7367 -0.5683
 7758SOL    HW224088   0.308   6.759   4.086  2.1156  0.7283 -0.0120
 7759SOL     OW24089   2.915   6.452   0.552 -0.0546  0.2557  1.1576
 7759SOL    HW124090   2.903   6.540   0.518 -0.3735 -0.4382 -0.5548
 7759SOL    HW224091   2.961   6.404   0.483  0.7931 -0.7196  2.3698
 7760SOL     OW24092   6.365   6.180   2.481 -0.5708 -1.1686 -0.2621
 7760SOL    HW124093   6.305   6.136   2.542 -0.3145 -0.1817  0.7314
 7760SOL    HW224094   6.317   6.258   2.453 -0.0738 -0.8079 -0.1099
 7761SOL     OW24095   4.994   2.363   2.298 -0.1535 -0.0514  0.8425
 7761SOL    HW124096   4.955   2.326   2.219 -0.5298 -0.7221  1.3457
 7761SOL    HW224097   4.925   2.416   2.336 -0.9417 -2.0827  2.3036
 7762SOL     OW24098   3.461   4.769   2.030  0.0522  0.0207 -0.1736
 7762SOL    HW124099   3.476   4.735   2.118 -0.4694 -0.8206 -0.4054
 7762SOL    HW224100   3.547   4.799   2.001 -0.0563  1.8371  1.2531
 7763SOL     OW24101   0.120   1.541   0.552 -0.1166  0.3396  0.0442
 7763SOL    HW124102   0.179   1.582   0.489  1.4243 -1.0084  0.5776
 7763SOL    HW224103   0.073   1.475   0.501 -0.7048  0.9774 -0.2416
 7764SOL     OW24104   7.244   6.192   6.141 -0.0545  0.1050  0.3328
 7764SOL    HW124105   7.149   6.188   6.146 -0.0484  1.2756  1.9581
 7764SOL    HW224106   7.274   6.136   6.212  0.4870 -1.0585 -0.8073
 7765SOL     OW24107   1.454   0.038   1.190 -0.3823  0.0133 -0.3187
 7765SOL    HW124108   1.375   0.089   1.202  0.4648  1.2566  0.1049
 7765SOL    HW224109   1.454   0.013   1.097 -1.3539 -0.1609 -0.2711
 7766SOL     OW24110   3.605   1.591   1.650 -0.4771 -0.3028  0.3298
 7766SOL    HW124111   3.687   1.544   1.667 -0.2773 -1.1201 -2.6956
 7766SOL    HW224112   3.554   1.531   1.596 -1.5275  1.7172 -0.9619
 7767SOL     OW24113   2.634   5.869   6.155  0.1735 -0.0395 -0.0129
 7767SOL    HW124114   2.713   5.873   6.210  1.7517  1.3856 -2.2545
 7767SOL    HW224115   2.626   5.957   6.119 -2.5726 -0.1340  0.2755
 7768SOL     OW24116   3.244   6.491   4.116  0.6157 -0.1222 -0.7436
 7768SOL    HW124117   3.210   6.515   4.203  1.1988  0.1476 -0.5895
 7768SOL    HW224118   3.322   6.439   4.134  1.0764  0.4385 -1.1102
 7769SOL     OW24119   5.662   3.971   6.721  0.2136  0.0593 -0.1815
 7769SOL    HW124120   5.738   3.966   6.663  0.3040 -0.7283  0.0122
 7769SOL    HW224121   5.686   3.917   6.796 -0.0944  0.7011  0.3774
 7770SOL     OW24122   5.685   1.414   0.767 -0.1383  0.0615 -0.5854
 7770SOL    HW124123   5.763   1.402   0.821 -0.0635 -0.2629 -0.7627
 7770SOL    HW224124   5.617   1.443   0.829 -0.1923 -0.8138 -0.2274
 7771SOL     OW24125   6.626   4.366   7.499 -0.0093  0.3673 -0.0477
 7771SOL    HW124126   6.678   4.298   7.541 -0.1958  0.8818  1.0314
 7771SOL    HW224127   6.632   4.441   7.558  1.2990  1.7498 -1.8799
 7772SOL     OW24128   4.619   0.535   0.928 -0.5512 -0.5667  0.0428
 7772SOL    HW124129   4.666   0.460   0.965  0.3843  0.2127  0.4548
 7772SOL    HW224130   4.536   0.537   0.976 -0.8722 -1.7568 -0.4625
 7773SOL     OW24131   7.330   1.025   5.166  0.2408  0.0482 -0.1388
 7773SOL    HW124132   7.403   0.997   5.112  0.2075 -0.6209  0.1637
 7773SOL    HW224133   7.264   1.056   5.104  1.1175  1.4710 -0.3742
 7774SOL     OW24134   7.576   5.058   2.524 -0.0643 -0.5982 -0.0305
 7774SOL    HW124135   7.534   5.007   2.593  0.9109 -0.8958  0.3478
 7774SOL    HW224136   7.504   5.107   2.483 -0.7900 -1.1899  0.5288
 7775SOL     OW24137   5.144   0.820   2.207 -0.0703 -0.1178  0.9729
 7775SOL    HW124138   5.090   0.761   2.155  1.0516  1.7056 -2.4065
 7775SOL    HW224139   5.221   0.769   2.231  1.7676  0.3413 -3.4641
 7776SOL     OW24140   7.194   4.208   7.366  0.3204  0.6135  0.3661
 7776SOL    HW124141   7.210   4.152   7.290  0.2008  1.3151 -0.1816
 7776SOL    HW224142   7.124   4.266   7.339 -1.2921 -0.5998  1.7946
 7777SOL     OW24143   3.030   3.157   0.336  0.3853 -0.3922  0.6782
 7777SOL    HW124144   3.092   3.230   0.339 -3.0873  2.7731 -0.1833
 7777SOL    HW224145   3.007   3.142   0.428  0.0135  0.6492  0.7671
 7778SOL     OW24146   6.688   0.598   7.903  0.4165 -0.3996 -0.4048
 7778SOL    HW124147   6.773   0.560   7.929  1.3010 -0.2709 -3.0253
 7778SOL    HW224148   6.629   0.523   7.902  0.3875 -0.4436  1.7482
 7779SOL     OW24149   7.387   2.777   0.683  0.2514  0.1296  0.3204
 7779SOL    HW124150   7.473   2.808   0.713 -0.2121  1.2135  0.5570
 7779SOL    HW224151   7.358   2.717   0.752  1.0789 -0.7364 -0.0594
 7780SOL     OW24152   6.984   5.392   4.332 -0.4295 -0.3903 -0.3811
 7780SOL    HW124153   7.051   5.456   4.359 -2.0318  1.2404 -0.1276
 7780SOL    HW224154   6.919   5.445   4.286 -1.3972 -2.0005 -0.8644
 7781SOL     OW24155   3.410   4.100   4.964  0.3166  0.1872 -0.0751
 7781SOL    HW124156   3.472   4.070   5.032 -0.1141  2.5492  1.4326
 7781SOL    HW224157   3.329   4.052   4.983 -0.0789  1.4841  1.7172
 7782SOL     OW24158   0.488   5.980   0.611  0.3177 -0.1426  0.0377
 7782SOL    HW124159   0.533   6.000   0.693  2.7347 -0.7947 -1.0858
 7782SOL    HW224160   0.558   5.973   0.546 -1.5080 -0.1754 -1.9839
 7783SOL     OW24161   5.581   1.794   1.913 -0.7718 -0.2509  0.2858
 7783SOL    HW124162   5.654   1.853   1.892 -0.5201 -0.7312 -0.2091
 7783SOL    HW224163   5.621   1.708   1.920 -0.9633 -0.2104  2.1295
 7784SOL     OW24164   1.861   0.986   6.822  0.1011  0.3675  0.0815
 7784SOL    HW124165   1.885   0.894   6.820 -2.7055 -0.3997 -0.7409
 7784SOL    HW224166   1.807   0.995   6.901  0.4054  1.3062  0.1851
 7785SOL     OW24167   7.694   0.163   5.252  0.3126 -0.4842 -0.2955
 7785SOL    HW124168   7.681   0.113   5.172 -0.2803 -2.0383  0.7300
 7785SOL    HW224169   7.700   0.254   5.224  0.4600 -1.0462 -2.1184
 7786SOL     OW24170   7.294   7.362   5.762  0.3302 -0.2463  0.2176
 7786SOL    HW124171   7.367   7.420   5.741  0.6734 -0.1852  1.5599
 7786SOL    HW224172   7.247   7.407   5.832 -2.5314  0.9854 -2.3786
 7787SOL     OW24173   4.165   0.250   2.321  0.4530  0.4330  0.3946
 7787SOL    HW124174   4.182   0.342   2.303 -0.2067  0.3199 -0.8549
 7787SOL    HW224175   4.156   0.210   2.235 -1.1907 -0.4329  0.9559
 7788SOL     OW24176   7.951   7.146   1.674 -0.1208  0.2270 -0.4697
 7788SOL    HW124177   7.936   7.240   1.686  1.1415  0.3967 -0.0828
 7788SOL    HW224178   7.956   7.111   1.763 -0.1544 -0.1320 -0.6088
 7789SOL     OW24179   7.162   3.757   3.238 -0.2097  0.5918 -0.1034
 7789SOL    HW124180   7.121   3.762   3.325  1.9882 -0.0011  1.0021
 7789SOL    HW224181   7.094   3.721   3.182 -1.6296  0.8526  1.3938
 7790SOL     OW24182   2.017   5.135   7.003 -0.8563 -0.2136 -0.4776
 7790SOL    HW124183   1.999   5.229   7.010 -1.1114 -0.0429 -3.0005
 7790SOL    HW224184   1.930   5.094   7.000 -0.7498 -0.4714 -0.0599
 7791SOL     OW24185   1.678   1.709   2.793  0.2781 -0.0261  0.1366
 7791SOL    HW124186   1.630   1.723   2.875 -0.0828 -3.3211  0.5782
 7791SOL    HW224187   1.764   1.747   2.809 -0.2098  0.5224  1.5822
 7792SOL     OW24188   6.631   6.804   3.238 -0.7695  0.8713  0.4975
 7792SOL    HW124189   6.700   6.867   3.215 -0.3202  0.8313  1.6939
 7792SOL    HW224190   6.679   6.724   3.260 -1.2215  0.7444  1.0275
 7793SOL     OW24191   3.264   2.961   0.944  0.2843 -0.4188 -1.3087
 7793SOL    HW124192   3.209   3.024   0.897  0.3509 -1.5255 -2.9338
 7793SOL    HW224193   3.325   2.928   0.878 -0.1222 -2.6056 -0.6508
 7794SOL     OW24194   6.576   4.953   5.994  0.4095  0.2096  0.6451
 7794SOL    HW124195   6.618   4.868   5.986 -0.9228 -0.3702 -0.2790
 7794SOL    HW224196   6.515   4.943   6.067 -1.2584 -0.2840 -0.7848
 7795SOL     OW24197   1.432   3.444   3.619 -0.5924  0.1522  0.2876
 7795SOL    HW124198   1.490   3.467   3.690  0.8827 -0.4202 -0.7111
 7795SOL    HW224199   1.346   3.433   3.660  0.5911 -1.9412  2.2372
 7796SOL     OW24200   1.495   4.620   3.208 -0.2832  0.1418  0.1389
 7796SOL    HW124201   1.587   4.642   3.193  0.0649 -0.4927  1.2402
 7796SOL    HW224202   1.458   4.698   3.250 -0.1503  0.2481  0.0604
 7797SOL     OW24203   2.418   6.545   4.735  0.2652  0.1738 -0.4305
 7797SOL    HW124204   2.456   6.457   4.736  0.3328  0.1968 -1.0386
 7797SOL    HW224205   2.486   6.601   4.698  0.6697  0.7009  1.0419
 7798SOL     OW24206   6.650   6.081   2.102 -0.4138 -0.0821  0.1249
 7798SOL    HW124207   6.622   6.066   2.192  0.9351  1.9972  0.9259
 7798SOL    HW224208   6.744   6.064   2.102 -0.4857 -0.5185 -0.9889
 7799SOL     OW24209   6.671   1.768   3.608 -0.2492 -0.0589  0.1276
 7799SOL    HW124210   6.634   1.802   3.527 -0.7843  0.3528  0.5426
 7799SOL    HW224211   6.669   1.843   3.669  3.3570  0.6696 -0.5096
 7800SOL     OW24212   3.571   7.318   7.962  0.2045  0.0606 -1.0944
 7800SOL    HW124213   3.623   7.393   7.991 -0.1938  0.0032 -0.2325
 7800SOL    HW224214   3.528   7.348   7.881 -1.4193  1.4084  0.2349
 7801SOL     OW24215   4.321   0.817   6.044 -0.1247 -0.0127 -0.0819
 7801SOL    HW124216   4.306   0.757   5.971  3.6627 -0.1677 -0.8672
 7801SOL    HW224217   4.328   0.760   6.121  1.7579 -0.4928 -0.5694
 7802SOL     OW24218   1.735   6.768   5.708  0.0822 -0.1411 -0.5275
 7802SOL    HW124219   1.673   6.785   5.638  0.1619  1.3821 -0.2426
 7802SOL    HW224220   1.811   6.824   5.687 -0.6948  1.8822  1.8113
 7803SOL     OW24221   5.522   7.241   0.581 -0.6757 -0.2590  0.1261
 7803SOL    HW124222   5.439   7.203   0.551 -0.5270 -0.2688 -0.2746
 7803SOL    HW224223   5.585   7.169   0.575 -0.9209 -0.6266  1.7141
 7804SOL     OW24224   0.732   4.165   0.052 -0.0288  0.3492 -0.1442
 7804SOL    HW124225   0.655   4.114   0.028 -1.9057  2.9220  0.2340
 7804SOL    HW224226   0.729   4.168   0.148 -0.5354  2.0583 -0.2099
 7805SOL     OW24227   0.881   2.556   7.647  0.2289  0.6885  0.3208
 7805SOL    HW124228   0.804   2.610   7.628 -0.6072 -0.6113 -0.0457
 7805SOL    HW224229   0.847   2.467   7.651  2.1438 -0.2402 -2.5644
 7806SOL     OW24230   5.413   6.556   0.310 -0.1215 -0.4649  0.1535
 7806SOL    HW124231   5.331   6.509   0.323  0.1226 -0.5175  1.5784
 7806SOL    HW224232   5.430   6.599   0.394 -0.0162  1.6738 -0.9313
 7807SOL     OW24233   4.259   4.479   5.591  0.2705 -0.5017  0.1708
 7807SOL    HW124234   4.344   4.523   5.590 -0.0265  0.1033 -1.8538
 7807SOL    HW224235   4.215   4.513   5.668  1.0008  0.8892 -0.0091
 7808SOL     OW24236   7.802   1.048   7.211  0.3853  0.9225  0.3107
 7808SOL    HW124237   7.780   0.963   7.247  0.6564  0.7466  0.0659
 7808SOL    HW224238   7.860   1.029   7.137 -0.2607  1.2645 -0.2903
 7809SOL     OW24239   5.484   1.318   6.767  0.2582 -0.1736 -0.9719
 7809SOL    HW124240   5.452   1.407   6.783  0.0893 -0.4913  0.4705
 7809SOL    HW224241   5.490   1.312   6.671  1.4272  1.7876 -1.0453
 7810SOL     OW24242   2.699   1.503   5.586  0.2933 -0.0297  0.5680
 7810SOL    HW124243   2.635   1.486   5.655  0.7181 -1.6043  0.5901
 7810SOL    HW224244   2.771   1.547   5.631 -0.4629  1.1499  0.6632
 7811SOL     OW24245   5.385   7.357   4.293  0.1256 -0.3764  0.4402
 7811SOL    HW124246   5.461   7.338   4.348  0.7311  0.4017 -0.1092
 7811SOL    HW224247   5.375   7.452   4.297 -0.1241 -0.3610 -0.4008
 7812SOL     OW24248   0.205   3.210   6.709  0.4074 -0.1152 -0.0454
 7812SOL    HW124249   0.158   3.250   6.636  0.4033 -1.1640 -0.6302
 7812SOL    HW224250   0.138   3.160   6.755  0.3644  0.7230  0.8176
 7813SOL     OW24251   5.145   1.310   1.064 -0.1061 -0.2724  0.1817
 7813SOL    HW124252   5.085   1.276   0.997  1.3475 -0.3026 -1.1500
 7813SOL    HW224253   5.178   1.392   1.026  0.5754 -0.1853  0.9634
 7814SOL     OW24254   7.228   1.481   1.424  0.4117 -0.6329 -0.1781
 7814SOL    HW124255   7.215   1.558   1.478  0.1049 -1.9924  1.7487
 7814SOL    HW224256   7.249   1.515   1.337 -1.2755  1.6106  0.2598
 7815SOL     OW24257   1.332   1.535   7.469  0.3583 -0.3847  0.1900
 7815SOL    HW124258   1.359   1.466   7.530 -1.2231 -1.0166  0.1921
 7815SOL    HW224259   1.381   1.517   7.389  1.0275 -0.6571  0.6565
 7816SOL     OW24260   3.652   3.655   6.631  1.3418 -0.0813  0.6290
 7816SOL    HW124261   3.583   3.647   6.565 -0.7954 -0.2262  2.7977
 7816SOL    HW224262   3.696   3.737   6.609  1.5744 -0.8022 -1.7708
 7817SOL     OW24263   3.143   5.588   3.610  0.4768 -0.1622  0.3727
 7817SOL    HW124264   3.220   5.564   3.660  0.8202 -0.1306 -0.1323
 7817SOL    HW224265   3.134   5.682   3.624  1.3283  0.0913 -0.6353
 7818SOL     OW24266   3.271   6.748   7.334 -0.5888  0.4175 -0.2340
 7818SOL    HW124267   3.181   6.760   7.302 -0.3733  3.4104  0.1339
 7818SOL    HW224268   3.265   6.764   7.429 -0.0903 -1.9072  0.2125
 7819SOL     OW24269   6.702   6.644   1.573  0.7319  0.6375  0.3090
 7819SOL    HW124270   6.704   6.594   1.491  0.0668  1.4072 -0.1830
 7819SOL    HW224271   6.779   6.700   1.569  0.6590  0.7291  0.1699
 7820SOL     OW24272   6.004   5.709   5.589 -0.5692 -0.1042  0.5575
 7820SOL    HW124273   5.922   5.748   5.618 -2.2098 -2.6679 -0.5271
 7820SOL    HW224274   6.019   5.748   5.502 -0.2583  0.8616  1.0320
 7821SOL     OW24275   0.467   1.612   2.972 -0.1474  0.6255 -0.2333
 7821SOL    HW124276   0.487   1.706   2.966  1.1658  0.2783 -1.5839
 7821SOL    HW224277   0.548   1.569   2.946 -0.7508 -0.8941  0.3813
 7822SOL     OW24278   7.239   0.361   0.296 -0.1680  0.1031 -0.1083
 7822SOL    HW124279   7.291   0.370   0.376  0.6357  0.3444 -0.6458
 7822SOL    HW224280   7.248   0.446   0.252  0.5123 -0.4779 -1.1078
 7823SOL     OW24281   7.776   6.571   4.875 -0.2380  0.0543 -0.3787
 7823SOL    HW124282   7.703   6.608   4.926 -0.7138  0.6472 -1.4680
 7823SOL    HW224283   7.753   6.591   4.784  0.9821 -0.3173 -0.7648
 7824SOL     OW24284   2.723   1.055   5.124 -0.0057 -0.0334 -0.4192
 7824SOL    HW124285   2.715   1.078   5.217 -2.1396 -1.5325 -0.2028
 7824SOL    HW224286   2.734   1.139   5.079 -1.6716  0.9280  0.9234
 7825SOL     OW24287   5.885   3.014   2.700  0.0449 -0.6810 -0.1646
 7825SOL    HW124288   5.824   3.085   2.676  0.5206  0.2893  1.3869
 7825SOL    HW224289   5.829   2.945   2.734 -0.1929  0.3704  1.6365
 7826SOL     OW24290   1.416   6.329   5.571  0.0689  0.0377 -0.3536
 7826SOL    HW124291   1.367   6.320   5.489 -0.1681  1.6211 -0.4111
 7826SOL    HW224292   1.507   6.338   5.544  0.4390 -2.8295 -0.2505
 7827SOL     OW24293   6.553   6.598   1.840 -0.3366  0.0370  0.2622
 7827SOL    HW124294   6.599   6.613   1.758 -2.8620 -1.3566 -1.4563
 7827SOL    HW224295   6.608   6.535   1.887  1.1547  0.8889 -0.2774
 7828SOL     OW24296   0.800   5.911   4.385 -0.2946  0.2536 -0.2637
 7828SOL    HW124297   0.743   5.983   4.357  0.4370  0.5391 -1.0198
 7828SOL    HW224298   0.765   5.834   4.341 -1.0633  0.1393  0.5247
 7829SOL     OW24299   4.169   2.336   3.841 -0.2175  0.0373  0.1583
 7829SOL    HW124300   4.202   2.300   3.759 -3.3001  1.6493 -1.8947
 7829SOL    HW224301   4.245   2.376   3.882  1.3682 -0.7561 -1.9422
 7830SOL     OW24302   4.892   3.334   1.597  0.4332  0.9643  0.3327
 7830SOL    HW124303   4.977   3.291   1.586  0.1683  0.4502  0.3138
 7830SOL    HW224304   4.838   3.298   1.528 -0.2607  0.1533  1.2836
 7831SOL     OW24305   4.691   3.341   2.094 -0.2289 -0.1178 -0.5976
 7831SOL    HW124306   4.616   3.398   2.111  0.5057  0.7803 -0.3272
 7831SOL    HW224307   4.663   3.254   2.123 -1.1807  0.2057 -0.5473
 7832SOL     OW24308   6.556   1.258   4.957  0.3693 -0.3133 -0.3970
 7832SOL    HW124309   6.504   1.179   4.969  0.3914 -0.2345  0.2276
 7832SOL    HW224310   6.495   1.321   4.919 -0.1973  0.0049  1.0001
 7833SOL     OW24311   2.359   6.644   2.534  0.3974  0.1280  0.2163
 7833SOL    HW124312   2.385   6.690   2.454 -0.3685  0.0095 -0.1088
 7833SOL    HW224313   2.434   6.590   2.556  0.6391  0.2154 -0.3897
 7834SOL     OW24314   1.402   7.310   7.368  0.4188  0.2084  0.0353
 7834SOL    HW124315   1.487   7.305   7.325  0.2702  0.4743 -0.2889
 7834SOL    HW224316   1.362   7.390   7.335 -0.5918 -0.6915 -0.9676
 7835SOL     OW24317   4.575   4.007   6.271  0.3238  0.1079 -0.2641
 7835SOL    HW124318   4.596   4.085   6.322  0.2452 -0.3798  0.5291
 7835SOL    HW224319   4.659   3.979   6.234  0.7612 -0.7162  1.2983
 7836SOL     OW24320   6.785   2.759   4.544  0.1473 -0.1261 -0.0181
 7836SOL    HW124321   6.721   2.716   4.601 -1.1351  0.6986 -0.8080
 7836SOL    HW224322   6.733   2.796   4.472  1.6382 -0.4433 -1.2992
 7837SOL     OW24323   5.311   3.225   4.627 -0.1416 -0.0901  0.5429
 7837SOL    HW124324   5.293   3.318   4.646  1.5612  0.3166  0.2179
 7837SOL    HW224325   5.396   3.208   4.669 -0.8483 -1.7463  1.3533
 7838SOL     OW24326   5.693   7.935   4.407 -0.2102  0.0347 -0.0568
 7838SOL    HW124327   5.777   7.922   4.451  0.4031  0.8953 -0.9759
 7838SOL    HW224328   5.695   7.876   4.332 -0.1480  0.5589 -0.4681
 7839SOL     OW24329   2.982   2.218   3.146  0.0700 -0.1351  0.2499
 7839SOL    HW124330   2.995   2.293   3.088  0.7897  0.2967  0.9701
 7839SOL    HW224331   3.060   2.164   3.134 -0.2253 -0.5361  0.0984
 7840SOL     OW24332   1.045   1.953   7.349 -1.0635 -0.0194  0.2873
 7840SOL    HW124333   0.969   1.942   7.293 -1.2497 -0.6793  0.6634
 7840SOL    HW224334   1.019   1.914   7.433  0.0693 -1.2698  0.0837
 7841SOL     OW24335   7.940   5.146   1.967 -0.2722 -0.3252 -0.1873
 7841SOL    HW124336   8.007   5.211   1.947 -2.7356  1.8834 -1.7423
 7841SOL    HW224337   7.966   5.109   2.052  2.6483  0.7110 -0.5789
 7842SOL     OW24338   5.277   4.125   4.885 -0.4720  0.1944 -0.5271
 7842SOL    HW124339   5.298   4.163   4.971 -0.7060 -0.0497 -0.3610
 7842SOL    HW224340   5.199   4.171   4.857  0.7579  1.7060 -1.5358
 7843SOL     OW24341   0.782   2.006   1.908  0.0552 -0.0541 -0.0293
 7843SOL    HW124342   0.850   2.025   1.972 -1.0250 -0.3347  1.2106
 7843SOL    HW224343   0.802   1.917   1.878 -0.3630 -0.5341  1.0990
 7844SOL     OW24344   7.684   3.861   4.733 -0.3789  0.3065  0.0606
 7844SOL    HW124345   7.676   3.880   4.640  0.8090 -0.5723 -0.2275
 7844SOL    HW224346   7.601   3.821   4.757 -0.7251  0.6275 -0.5951
 7845SOL     OW24347   2.024   2.879   0.076 -0.5188  0.3923 -0.2301
 7845SOL    HW124348   1.932   2.855   0.085 -0.2878 -0.3361  0.2355
 7845SOL    HW224349   2.047   2.921   0.159 -0.5196  0.8801 -0.4739
 7846SOL     OW24350   4.555   1.674   3.410 -0.6698 -0.4502 -0.4606
 7846SOL    HW124351   4.507   1.730   3.472 -1.5335 -2.0809  0.3952
 7846SOL    HW224352   4.640   1.716   3.400 -0.8993  0.4056  1.0422
 7847SOL     OW24353   3.600   0.282   0.276  0.0915 -0.9285 -0.1861
 7847SOL    HW124354   3.628   0.291   0.185  2.0775 -0.2590  0.4637
 7847SOL    HW224355   3.659   0.339   0.325 -2.8108  0.9790  1.2297
 7848SOL     OW24356   6.192   4.580   4.626 -0.0038  0.3065 -0.7474
 7848SOL    HW124357   6.199   4.674   4.609  0.6598  0.2830 -0.6411
 7848SOL    HW224358   6.109   4.570   4.672  0.5007  1.0124  0.3415
 7849SOL     OW24359   1.133   0.918   3.658  0.2279  0.3477  0.0376
 7849SOL    HW124360   1.133   0.823   3.650 -0.0846  0.3822 -0.3898
 7849SOL    HW224361   1.226   0.942   3.660  0.3317 -0.1859  2.9382
 7850SOL     OW24362   6.117   1.869   3.550  0.0022 -0.4606 -0.0586
 7850SOL    HW124363   6.192   1.809   3.546  2.4490  2.3448  1.4137
 7850SOL    HW224364   6.098   1.877   3.643 -1.3851 -0.2044 -0.3579
 7851SOL     OW24365   3.722   5.646   7.374 -0.1216  0.0756 -0.5333
 7851SOL    HW124366   3.799   5.601   7.409 -1.9947 -1.9609  1.1199
 7851SOL    HW224367   3.663   5.575   7.346 -1.4148  1.5819 -1.7437
 7852SOL     OW24368   4.721   1.764   0.389  0.6621 -0.0663  0.5142
 7852SOL    HW124369   4.714   1.835   0.452  0.5051 -0.3359  0.8037
 7852SOL    HW224370   4.814   1.743   0.386  0.6954  0.0907  0.4996
 7853SOL     OW24371   3.752   5.578   3.839 -0.4886  0.6810 -0.1122
 7853SOL    HW124372   3.769   5.569   3.746 -2.9667 -0.2777 -0.5032
 7853SOL    HW224373   3.762   5.490   3.875 -2.2805  0.4920  0.0027
 7854SOL     OW24374   5.822   7.974   5.366 -0.1315 -0.0451  0.7647
 7854SOL    HW124375   5.754   8.012   5.422 -0.8760 -0.9105  0.4535
 7854SOL    HW224376   5.805   7.880   5.369  0.5665 -0.1917  0.0419
 7855SOL     OW24377   0.306   1.932   3.964 -0.4479  0.0926 -0.3600
 7855SOL    HW124378   0.262   1.939   4.049  1.4795 -0.2648  0.6850
 7855SOL    HW224379   0.392   1.895   3.984  0.8068  1.8916 -2.2163
 7856SOL     OW24380   6.961   1.875   5.403 -0.3625 -0.1708 -0.0479
 7856SOL    HW124381   7.042   1.830   5.425 -1.2709 -2.0449 -0.3855
 7856SOL    HW224382   6.894   1.833   5.458 -1.2788  0.5907 -0.5613
 7857SOL     OW24383   6.448   1.975   6.131  0.3513 -0.1754 -0.1752
 7857SOL    HW124384   6.389   2.022   6.071 -2.0527 -1.4799  1.0937
 7857SOL    HW224385   6.497   2.045   6.175 -2.9298  1.2307  1.4313
 7858SOL     OW24386   6.479   6.820   7.274 -0.1723 -0.3160  0.8403
 7858SOL    HW124387   6.500   6.729   7.253 -0.3263  0.0248 -0.8905
 7858SOL    HW224388   6.520   6.835   7.359  0.3646 -1.8243  0.8694
 7859SOL     OW24389   5.187   3.375   6.250  0.1336 -0.1090 -0.1451
 7859SOL    HW124390   5.117   3.418   6.201 -0.9283 -0.8895  0.6513
 7859SOL    HW224391   5.179   3.282   6.229 -0.5090 -0.4954  1.6763
 7860SOL     OW24392   3.822   2.705   2.828 -0.3505 -0.2837  0.6461
 7860SOL    HW124393   3.855   2.636   2.886  1.5118 -1.0263 -1.2266
 7860SOL    HW224394   3.732   2.680   2.810 -0.4317 -0.9369  1.8773
 7861SOL     OW24395   1.625   4.630   4.645  0.4171  0.0195 -0.1186
 7861SOL    HW124396   1.644   4.614   4.738 -0.7223 -1.4269 -0.1212
 7861SOL    HW224397   1.673   4.710   4.625  1.4117 -0.1426  1.4863
 7862SOL     OW24398   2.992   5.399   4.416 -0.1152 -0.0064 -0.1642
 7862SOL    HW124399   2.908   5.355   4.401  0.9368 -1.8548 -0.7688
 7862SOL    HW224400   2.986   5.481   4.367 -1.8451  0.2203  0.4090
 7863SOL     OW24401   5.681   5.828   0.775 -0.5840  0.3678 -0.5198
 7863SOL    HW124402   5.619   5.776   0.827  0.4998  0.3106  0.7235
 7863SOL    HW224403   5.681   5.914   0.816  2.1118 -0.3543  1.1676
 7864SOL     OW24404   4.532   0.364   2.575  0.4058  0.4465  0.1540
 7864SOL    HW124405   4.514   0.308   2.500 -0.1193 -0.2070  0.7591
 7864SOL    HW224406   4.520   0.453   2.542  0.7861  0.1864 -0.6949
 7865SOL     OW24407   2.197   3.027   3.057 -0.2557 -0.5390 -0.1586
 7865SOL    HW124408   2.149   2.954   3.095  1.1106 -1.2993  0.1739
 7865SOL    HW224409   2.203   3.007   2.964 -1.9656  0.3714 -0.4777
 7866SOL     OW24410   5.546   3.711   4.864 -0.1870  0.0484 -0.7814
 7866SOL    HW124411   5.479   3.776   4.843  0.9186  1.4317 -0.1830
 7866SOL    HW224412   5.602   3.708   4.787 -0.2313 -0.1943 -0.8055
 7867SOL     OW24413   6.594   6.604   3.018 -0.7382  0.3587 -0.4705
 7867SOL    HW124414   6.611   6.603   3.112  0.1595  1.3028 -0.6090
 7867SOL    HW224415   6.605   6.513   2.990  1.0253  0.4076  0.0031
 7868SOL     OW24416   4.727   1.159   2.420 -0.2027 -0.1471 -0.4669
 7868SOL    HW124417   4.668   1.208   2.363  1.0246  2.3243  0.3455
 7868SOL    HW224418   4.788   1.116   2.360 -1.3880 -0.8912 -1.1795
 7869SOL     OW24419   3.743   7.602   2.522  0.0790  0.3182 -0.1886
 7869SOL    HW124420   3.782   7.685   2.550 -0.9734  0.8944 -0.4202
 7869SOL    HW224421   3.796   7.575   2.447 -0.6116  1.6289 -1.1660
 7870SOL     OW24422   5.782   5.476   6.543 -0.2596  0.3487 -0.5296
 7870SOL    HW124423   5.874   5.503   6.551 -0.2022  0.2366 -0.7887
 7870SOL    HW224424   5.732   5.545   6.586 -0.1180  0.8919 -1.2397
 7871SOL     OW24425   6.419   7.841   5.258 -0.1617 -0.0599  0.7224
 7871SOL    HW124426   6.487   7.773   5.251  0.4096  0.5912 -0.0953
 7871SOL    HW224427   6.355   7.817   5.192  0.7932  1.0367 -0.6290
 7872SOL     OW24428   6.762   3.880   3.752 -0.1964  0.0071 -0.2412
 7872SOL    HW124429   6.731   3.789   3.750  0.6566 -0.2748 -0.5826
 7872SOL    HW224430   6.823   3.882   3.826  1.7728 -0.3346 -1.8432
 7873SOL     OW24431   0.890   0.074   2.936  0.2582  0.0956 -0.2318
 7873SOL    HW124432   0.914   0.086   2.844 -0.8545  0.0911 -0.5339
 7873SOL    HW224433   0.830  -0.001   2.935 -1.7781  1.6956  0.1446
 7874SOL     OW24434   0.414   3.439   5.021 -0.9076  0.0943  0.0600
 7874SOL    HW124435   0.318   3.442   5.014 -0.8300  0.3525 -0.9712
 7874SOL    HW224436   0.434   3.346   5.032 -1.3193  0.1110  1.0258
 7875SOL     OW24437   0.761   6.025   4.073  0.2208  0.5611  0.1442
 7875SOL    HW124438   0.761   6.100   4.012 -0.3320 -0.0381 -0.6109
 7875SOL    HW224439   0.669   6.001   4.080  0.2520  0.8094  1.4708
 7876SOL     OW24440   5.868   4.299   0.355 -0.0944  0.1120  0.0317
 7876SOL    HW124441   5.870   4.240   0.431  0.2885 -1.2186 -0.9767
 7876SOL    HW224442   5.779   4.332   0.353  0.0689  0.6865  1.4445
 7877SOL     OW24443   1.564   2.116   3.130  0.5568 -0.0512  0.6523
 7877SOL    HW124444   1.481   2.137   3.086 -0.6315  0.5221  3.0563
 7877SOL    HW224445   1.604   2.201   3.148  0.5876 -0.2259  1.4434
 7878SOL     OW24446   6.946   7.063   1.479 -0.3748  0.3989 -0.2081
 7878SOL    HW124447   7.011   7.027   1.419  0.9203 -0.9099  1.9196
 7878SOL    HW224448   6.868   7.076   1.424  0.7585 -0.7235 -2.1631
 7879SOL     OW24449   3.440   7.760   0.692 -0.3353  0.2931  0.8494
 7879SOL    HW124450   3.380   7.720   0.754  0.5054 -2.2356  0.0803
 7879SOL    HW224451   3.481   7.831   0.741  0.5908 -1.8883  3.3465
 7880SOL     OW24452   0.473   7.455   3.540  0.0425  0.5397  0.9141
 7880SOL    HW124453   0.427   7.515   3.481  0.7451  2.0813  1.8897
 7880SOL    HW224454   0.566   7.474   3.524  0.3342 -1.5534 -0.0335
 7881SOL     OW24455   3.744   2.190   3.759  0.1910  0.0649 -0.1430
 7881SOL    HW124456   3.800   2.165   3.686  0.8171 -0.0472  0.3730
 7881SOL    HW224457   3.799   2.181   3.836  0.0859  1.9082  0.1826
 7882SOL     OW24458   5.121   2.974   0.693 -0.2717 -0.2732  0.1581
 7882SOL    HW124459   5.110   2.936   0.605 -2.1537 -0.5284  0.4870
 7882SOL    HW224460   5.031   2.986   0.725  0.4093 -0.2462  2.0773
 7883SOL     OW24461   1.007   4.001   0.441  0.8132  0.1002 -0.0109
 7883SOL    HW124462   1.039   4.079   0.397 -1.0264 -0.0618 -1.7096
 7883SOL    HW224463   0.984   3.941   0.370  0.0462 -1.1041  1.2173
 7884SOL     OW24464   5.428   4.711   0.804  0.0994 -0.2291 -0.5667
 7884SOL    HW124465   5.420   4.747   0.892 -1.2494  0.1174 -0.8062
 7884SOL    HW224466   5.501   4.651   0.808 -0.0293 -0.2949  0.8226
 7885SOL     OW24467   6.590   2.094   1.571  0.1936  0.1030  0.6565
 7885SOL    HW124468   6.567   2.113   1.481 -0.3905  0.9825  0.9828
 7885SOL    HW224469   6.507   2.097   1.619  0.7239  1.4804  1.5328
 7886SOL     OW24470   6.477   1.068   7.149  0.5357 -0.5873 -0.5638
 7886SOL    HW124471   6.546   1.099   7.091  0.0587  2.8538  0.5430
 7886SOL    HW224472   6.508   1.093   7.237  0.5675 -4.3284  0.5581
 7887SOL     OW24473   3.881   0.041   1.702  0.2053 -0.8542 -0.1348
 7887SOL    HW124474   3.889   0.112   1.639  1.3913 -1.0233 -0.1819
 7887SOL    HW224475   3.816  -0.018   1.664  1.2308 -1.1741 -1.4094
 7888SOL     OW24476   3.788   0.892   5.926  0.4124  0.1568 -0.3346
 7888SOL    HW124477   3.836   0.970   5.954  0.6132  0.0718 -0.4354
 7888SOL    HW224478   3.804   0.828   5.995 -1.6829  0.9481  0.9140
 7889SOL     OW24479   5.272   0.775   0.329  0.3483  0.2487  0.2975
 7889SOL    HW124480   5.275   0.829   0.250 -0.8569 -1.3976 -0.9337
 7889SOL    HW224481   5.363   0.753   0.347  0.6180  0.4359 -0.7945
 7890SOL     OW24482   2.097   4.188   6.640  0.0548 -0.2765 -0.2460
 7890SOL    HW124483   2.060   4.150   6.560  2.1372 -0.0182 -1.3744
 7890SOL    HW224484   2.177   4.137   6.656 -1.6012 -1.9799  3.1096
 7891SOL     OW24485   5.358   1.617   6.215  0.3627 -0.1723 -0.1905
 7891SOL    HW124486   5.347   1.706   6.180  0.8896 -0.3007 -0.6791
 7891SOL    HW224487   5.271   1.594   6.247  0.3507  0.7518  0.4848
 7892SOL     OW24488   4.789   1.730   5.203 -0.7773 -0.2103  0.0021
 7892SOL    HW124489   4.823   1.709   5.289 -1.5248  1.0123  0.6102
 7892SOL    HW224490   4.694   1.732   5.214 -0.9108 -0.6177 -0.9835
 7893SOL     OW24491   2.089   7.419   3.605  0.3191 -0.6135 -0.1110
 7893SOL    HW124492   2.116   7.331   3.632 -2.2721 -1.4473 -0.1160
 7893SOL    HW224493   2.079   7.414   3.510 -2.5751 -1.1466  0.1790
 7894SOL     OW24494   6.383   6.539   1.188  0.4185 -0.3379  0.0313
 7894SOL    HW124495   6.305   6.487   1.204  0.1342  0.1602  0.2916
 7894SOL    HW224496   6.390   6.596   1.265  1.7572 -1.2662  0.6196
 7895SOL     OW24497   1.896   3.971   4.734 -0.5052  0.5415  0.0218
 7895SOL    HW124498   1.906   3.877   4.719 -3.3831  0.1517  0.1956
 7895SOL    HW224499   1.960   4.012   4.676 -0.2618 -1.4869 -1.1839
 7896SOL     OW24500   4.145   6.178   1.268 -0.2219  0.0167 -0.0841
 7896SOL    HW124501   4.221   6.173   1.210  0.9008  1.2467  1.2382
 7896SOL    HW224502   4.070   6.176   1.208  0.7496 -3.0487 -1.2911
 7897SOL     OW24503   2.998   6.342   4.379  0.3796 -0.0345  0.3722
 7897SOL    HW124504   3.061   6.300   4.321 -1.3630  1.6464 -2.8834
 7897SOL    HW224505   3.051   6.397   4.437  2.0900 -0.7822 -0.4507
 7898SOL     OW24506   2.993   2.218   4.506 -0.3800  0.2039 -0.1301
 7898SOL    HW124507   3.049   2.210   4.429 -0.5639  1.3304 -0.3922
 7898SOL    HW224508   3.045   2.271   4.567 -0.8110  0.5164 -0.0337
 7899SOL     OW24509   3.612   3.659   0.556  0.0355 -0.3774  0.0551
 7899SOL    HW124510   3.700   3.628   0.578  1.0768  1.1216 -1.8440
 7899SOL    HW224511   3.575   3.590   0.500 -0.3275 -1.3541  1.4477
 7900SOL     OW24512   1.852   1.227   4.705 -0.4411  0.5964  0.3302
 7900SOL    HW124513   1.782   1.181   4.752 -0.6835  1.1924  0.5555
 7900SOL    HW224514   1.907   1.263   4.775  0.7606 -0.8700  0.1685
 7901SOL     OW24515   4.270   4.447   5.116  0.1179 -0.2741 -0.4741
 7901SOL    HW124516   4.227   4.385   5.057 -0.9108 -0.1876  0.1798
 7901SOL    HW224517   4.220   4.441   5.198 -0.1663  1.6050 -0.4907
 7902SOL     OW24518   6.361   7.056   5.584  0.1057  0.3562  0.0352
 7902SOL    HW124519   6.415   6.985   5.618  0.9778  1.3484  0.7551
 7902SOL    HW224520   6.296   7.072   5.652 -0.2841  0.0420 -0.2617
 7903SOL     OW24521   1.805   4.248   0.920 -0.2507 -0.2786  0.1210
 7903SOL    HW124522   1.784   4.163   0.881 -0.0423  0.4362 -1.5992
 7903SOL    HW224523   1.899   4.258   0.906 -0.3150  0.3259  0.0960
 7904SOL     OW24524   4.177   4.495   3.058  0.1205 -0.1814 -0.5439
 7904SOL    HW124525   4.119   4.557   3.012  0.4877 -0.2989 -1.1714
 7904SOL    HW224526   4.147   4.498   3.149 -1.8096 -1.3125 -1.1146
 7905SOL     OW24527   2.704   1.830   2.734 -0.2633  0.5747 -0.3909
 7905SOL    HW124528   2.750   1.828   2.650 -1.1728 -1.0262 -0.8718
 7905SOL    HW224529   2.745   1.761   2.785 -0.8613  0.3929 -0.1516
 7906SOL     OW24530   1.247   6.564   0.408  0.0135 -0.0398 -0.1575
 7906SOL    HW124531   1.183   6.506   0.449 -0.6950 -0.0600 -1.2738
 7906SOL    HW224532   1.314   6.578   0.475  0.0272 -1.8903  0.2261
 7907SOL     OW24533   7.468   6.825   1.357  0.0615 -0.4188 -0.0777
 7907SOL    HW124534   7.465   6.882   1.280 -0.6831 -0.5936 -0.1788
 7907SOL    HW224535   7.560   6.798   1.364  0.5843  1.4297  0.4412
 7908SOL     OW24536   2.996   6.047   2.839 -0.0508  0.4181  0.4837
 7908SOL    HW124537   2.996   6.139   2.815  0.1592 -0.1719 -1.8991
 7908SOL    HW224538   3.074   6.011   2.796 -0.6358 -1.0530  0.6324
 7909SOL     OW24539   2.958   7.266   3.137  0.1867  1.0643 -0.0575
 7909SOL    HW124540   3.021   7.199   3.162  1.0746  1.7161 -0.4931
 7909SOL    HW224541   2.890   7.219   3.089 -1.0029 -0.0410  2.6104
 7910SOL     OW24542   3.283   2.958   1.230 -0.1656  0.4872  0.5236
 7910SOL    HW124543   3.276   2.965   1.135 -1.7914  1.4121  0.6958
 7910SOL    HW224544   3.204   2.911   1.257  0.0752  0.5991  1.4584
 7911SOL     OW24545   0.379   6.247   0.523  0.3221  0.2946  0.1026
 7911SOL    HW124546   0.455   6.298   0.497 -0.0485  1.2849  0.9485
 7911SOL    HW224547   0.411   6.157   0.529  1.5832  0.8016  1.1268
 7912SOL     OW24548   2.958   3.704   6.251 -0.3257 -0.3526 -0.0014
 7912SOL    HW124549   2.917   3.626   6.211 -1.3728 -1.0256  2.3139
 7912SOL    HW224550   2.884   3.755   6.284  0.5252  0.2195  1.0251
 7913SOL     OW24551   0.640   4.347   5.815 -0.6972  0.1157  0.1294
 7913SOL    HW124552   0.623   4.316   5.726 -2.2079  1.4285 -0.0681
 7913SOL    HW224553   0.735   4.338   5.826 -0.3105  1.0446 -2.0531
 7914SOL     OW24554   2.456   6.368   1.469  0.2403 -0.3498  0.4721
 7914SOL    HW124555   2.540   6.410   1.483  0.2900 -0.6386  1.0634
 7914SOL    HW224556   2.473   6.299   1.405  0.0585  0.8376 -0.8861
 7915SOL     OW24557   2.386   5.668   2.399  0.7911 -0.2563  0.3094
 7915SOL    HW124558   2.383   5.581   2.438 -0.3316 -0.4879 -0.2736
 7915SOL    HW224559   2.315   5.716   2.442  0.6125 -0.0136 -0.2415
 7916SOL     OW24560   3.629   7.725   2.282  0.1244 -0.5112  0.4297
 7916SOL    HW124561   3.615   7.678   2.364  1.8464 -0.2824  0.8784
 7916SOL    HW224562   3.724   7.728   2.272  0.0054  1.8361 -0.1930
 7917SOL     OW24563   3.070   5.509   0.929  0.8094 -0.3982 -0.3892
 7917SOL    HW124564   3.129   5.513   1.005 -1.9682  0.3114  1.8248
 7917SOL    HW224565   3.110   5.567   0.865  2.7973 -0.3542  0.8398
 7918SOL     OW24566   3.283   4.433   3.228 -0.3530 -0.1934 -0.5655
 7918SOL    HW124567   3.365   4.402   3.190  0.3909 -0.0706  0.8885
 7918SOL    HW224568   3.245   4.490   3.162  0.7906 -0.1747 -1.2106
 7919SOL     OW24569   1.146   4.171   0.119 -0.4147 -0.0214 -0.0569
 7919SOL    HW124570   1.083   4.202   0.185  1.6100 -0.4960  2.1809
 7919SOL    HW224571   1.134   4.076   0.119 -0.7540  0.0216 -0.7477
 7920SOL     OW24572   7.018   0.331   3.867  0.3372  0.4269  0.0075
 7920SOL    HW124573   7.018   0.306   3.774  0.0738  2.7774 -0.6650
 7920SOL    HW224574   7.102   0.377   3.878  0.4596 -0.0305  1.0007
 7921SOL     OW24575   1.589   1.735   6.192  0.0403 -0.2586  0.0815
 7921SOL    HW124576   1.593   1.643   6.219  2.3068 -0.0895  0.3708
 7921SOL    HW224577   1.535   1.734   6.113  0.1868 -1.8623 -0.0133
 7922SOL     OW24578   1.934   4.225   5.749  0.1659 -0.2877 -0.0468
 7922SOL    HW124579   1.904   4.195   5.835  0.0734  0.0938  0.0525
 7922SOL    HW224580   2.029   4.211   5.751 -0.1797 -3.0517 -0.9697
 7923SOL     OW24581   2.259   6.324   1.674 -0.2919 -0.2876  0.1994
 7923SOL    HW124582   2.181   6.348   1.624  1.3743  1.9420 -1.3921
 7923SOL    HW224583   2.332   6.353   1.621  1.6536 -2.0514  1.8289
 7924SOL     OW24584   7.809   2.255   7.283 -0.1879 -0.1606  0.1546
 7924SOL    HW124585   7.753   2.271   7.208 -1.2505  3.3376  1.5907
 7924SOL    HW224586   7.748   2.238   7.355  0.5508  2.4432  1.4583
 7925SOL     OW24587   0.134   6.306   1.545 -0.0913  0.5838 -0.7823
 7925SOL    HW124588   0.154   6.273   1.458 -2.4256  0.3056 -1.2633
 7925SOL    HW224589   0.077   6.240   1.584  0.3839  1.0219  0.6980
 7926SOL     OW24590   4.495   4.226   0.026  0.4574  0.0108 -0.1946
 7926SOL    HW124591   4.448   4.142   0.027  1.0063 -0.3115 -1.1752
 7926SOL    HW224592   4.482   4.261   0.114  0.1050 -1.0373  0.1848
 7927SOL     OW24593   1.190   7.966   5.452 -0.6611 -0.1054  0.4705
 7927SOL    HW124594   1.256   7.896   5.451 -2.1120 -1.5140 -1.7559
 7927SOL    HW224595   1.120   7.931   5.507 -2.6517 -1.6887 -2.9586
 7928SOL     OW24596   2.807   4.593   0.104  0.9698  0.9209  0.1530
 7928SOL    HW124597   2.791   4.537   0.028 -0.1775  1.1677  0.2042
 7928SOL    HW224598   2.851   4.536   0.167 -1.0786 -0.2134  0.5935
 7929SOL     OW24599   2.275   2.736   3.593  0.2831 -0.3731  0.0975
 7929SOL    HW124600   2.206   2.758   3.655 -0.6199  0.2078 -1.0860
 7929SOL    HW224601   2.335   2.680   3.642 -0.4774 -0.0250  1.4424
 7930SOL     OW24602   2.111   2.778   3.160  0.0844 -0.3073  0.0454
 7930SOL    HW124603   2.150   2.722   3.228 -1.3539 -1.1585  0.1896
 7930SOL    HW224604   2.121   2.728   3.079  1.0731  0.3591 -0.2630
 7931SOL     OW24605   0.448   3.855   7.679  0.1943  0.1738  0.1857
 7931SOL    HW124606   0.396   3.873   7.601  1.2725  0.8039 -0.3973
 7931SOL    HW224607   0.391   3.877   7.752  0.0714  2.0649 -0.4616
 7932SOL     OW24608   1.116   0.018   5.191  0.6921 -0.7659  0.2268
 7932SOL    HW124609   1.150   0.003   5.279  2.2352 -1.2456 -0.4396
 7932SOL    HW224610   1.036  -0.035   5.187 -0.6046  0.9875  2.0659
 7933SOL     OW24611   3.289   0.748   3.831 -0.3272 -0.4634 -0.6927
 7933SOL    HW124612   3.378   0.756   3.867 -0.1733 -1.1375 -0.9154
 7933SOL    HW224613   3.302   0.718   3.741 -0.7589  0.0759 -0.9325
 7934SOL     OW24614   2.587   0.956   4.868 -0.1015 -0.0417 -0.0173
 7934SOL    HW124615   2.604   1.009   4.790  1.7094  1.6121  1.4297
 7934SOL    HW224616   2.636   0.875   4.853 -0.2866 -0.0026 -0.8676
 7935SOL     OW24617   5.538   7.788   3.885  0.4335  0.7897 -0.5618
 7935SOL    HW124618   5.586   7.772   3.804 -0.8247  2.7574 -1.7596
 7935SOL    HW224619   5.535   7.883   3.893 -2.4468  0.7225 -0.0895
 7936SOL     OW24620   7.785   1.664   2.366  0.4359  0.3164  0.5959
 7936SOL    HW124621   7.754   1.754   2.380  1.2827  0.5697  0.8962
 7936SOL    HW224622   7.872   1.674   2.328  0.0510 -0.3891 -0.4725
 7937SOL     OW24623   6.061   2.053   3.374 -1.1981 -0.2643  0.4976
 7937SOL    HW124624   6.069   2.144   3.401  2.9426 -0.0899 -0.8813
 7937SOL    HW224625   6.084   2.002   3.452 -0.1021 -0.0141  0.3485
 7938SOL     OW24626   6.185   6.163   3.061 -0.1967 -0.1116 -0.4562
 7938SOL    HW124627   6.199   6.081   3.014 -1.0268  0.1107 -1.1063
 7938SOL    HW224628   6.202   6.231   2.996 -1.8999  0.1903 -0.6088
 7939SOL     OW24629   3.866   6.926   1.786  0.2390 -0.4111 -0.3873
 7939SOL    HW124630   3.874   6.847   1.733  1.8881 -0.6089  0.0977
 7939SOL    HW224631   3.877   6.895   1.876  1.0119  0.3658 -0.2033
 7940SOL     OW24632   7.371   3.978   4.504  0.2202  0.3974 -0.5914
 7940SOL    HW124633   7.325   4.057   4.533  0.4360 -0.2047  1.4562
 7940SOL    HW224634   7.302   3.921   4.471  0.1912  1.9138 -3.3202
 7941SOL     OW24635   5.150   6.713   2.506  0.0854 -0.0334  0.1917
 7941SOL    HW124636   5.077   6.772   2.522  0.7296  1.0176 -0.7068
 7941SOL    HW224637   5.209   6.762   2.449  1.0531 -1.2115  0.1561
 7942SOL     OW24638   4.048   6.490   3.364 -0.1487  0.0579 -0.7345
 7942SOL    HW124639   4.080   6.404   3.392 -1.7461 -0.0598  0.8296
 7942SOL    HW224640   4.126   6.538   3.337  0.9036 -1.4274 -0.3562
 7943SOL     OW24641   3.724   5.421   6.571 -0.1925 -0.0146 -0.2874
 7943SOL    HW124642   3.699   5.414   6.663  0.2508  3.0197  0.0872
 7943SOL    HW224643   3.820   5.415   6.572 -0.2033 -0.2277 -0.5823
 7944SOL     OW24644   4.881   7.543   7.653 -0.1801  0.6269  0.2876
 7944SOL    HW124645   4.895   7.636   7.633  1.9423  0.2034 -0.2975
 7944SOL    HW224646   4.969   7.506   7.660 -0.9626 -0.9942  2.2540
 7945SOL     OW24647   6.651   4.074   2.098  0.1519  0.3001 -0.1074
 7945SOL    HW124648   6.698   3.998   2.132  0.5777 -0.1119 -1.5812
 7945SOL    HW224649   6.708   4.148   2.118 -0.5439  0.3144  1.8703
 7946SOL     OW24650   6.200   1.747   1.424  0.2051  0.0379  0.3357
 7946SOL    HW124651   6.128   1.799   1.388  0.3097 -0.2235 -0.2731
 7946SOL    HW224652   6.278   1.782   1.380  0.5796  0.9807  1.7188
 7947SOL     OW24653   0.549   3.529   4.071 -0.1865  0.3935 -0.0361
 7947SOL    HW124654   0.546   3.560   4.161 -0.8897 -0.7236  0.3353
 7947SOL    HW224655   0.541   3.608   4.018  2.1395  1.2843  0.8385
 7948SOL     OW24656   4.317   1.306   4.765 -0.2597 -0.8288 -0.9210
 7948SOL    HW124657   4.270   1.385   4.737 -1.5400 -1.3031 -0.1345
 7948SOL    HW224658   4.316   1.309   4.860 -1.3548 -2.4029 -0.8655
 7949SOL     OW24659   3.594   6.968   1.953  0.4211  0.5117  0.5638
 7949SOL    HW124660   3.663   7.008   1.900 -0.2187  0.4257 -0.3521
 7949SOL    HW224661   3.591   7.020   2.033  0.4949  1.4769 -0.0543
 7950SOL     OW24662   6.919   5.969   3.881 -0.3377  0.1560  0.5294
 7950SOL    HW124663   6.971   5.967   3.800  1.6695  0.0885  1.7922
 7950SOL    HW224664   6.881   5.881   3.887  1.1398 -0.4736  0.6938
 7951SOL     OW24665   7.796   3.913   7.341  0.2262  0.6263 -0.0493
 7951SOL    HW124666   7.772   3.854   7.412  1.7212  0.7559  0.5761
 7951SOL    HW224667   7.873   3.959   7.373  1.9765 -0.5821 -2.4362
 7952SOL     OW24668   6.432   2.397   7.285  0.1573 -0.0709  0.4285
 7952SOL    HW124669   6.402   2.306   7.277 -0.1115  0.0810 -0.3542
 7952SOL    HW224670   6.393   2.428   7.366 -1.4899  0.0018 -0.3691
 7953SOL     OW24671   7.386   7.229   2.257 -0.1756  0.4080 -0.5496
 7953SOL    HW124672   7.303   7.183   2.272 -0.1794  0.1439 -1.3502
 7953SOL    HW224673   7.417   7.196   2.172  0.4544  0.9394 -0.5315
 7954SOL     OW24674   6.262   6.533   7.286  0.0531 -0.4900 -0.0122
 7954SOL    HW124675   6.219   6.468   7.230 -0.3506 -0.2713  0.0388
 7954SOL    HW224676   6.352   6.503   7.293  0.2888 -0.1325 -1.3758
 7955SOL     OW24677   0.329   3.145   2.208  0.4002 -0.1235  0.0726
 7955SOL    HW124678   0.360   3.190   2.129  0.6454 -0.8800 -0.2704
 7955SOL    HW224679   0.391   3.073   2.219  0.8196  0.4328  1.3934
 7956SOL     OW24680   4.947   2.220   0.451 -0.7104 -0.2074  0.1544
 7956SOL    HW124681   4.974   2.277   0.523  0.6442 -2.1642  1.2747
 7956SOL    HW224682   5.018   2.227   0.387  0.7122 -2.4407  1.3990
 7957SOL     OW24683   4.679   4.592   7.942  0.1851 -0.0124  0.4640
 7957SOL    HW124684   4.666   4.674   7.895  1.3784 -0.2951 -0.3840
 7957SOL    HW224685   4.631   4.527   7.891 -1.4099  0.2711  1.5593
 7958SOL     OW24686   6.791   1.833   4.004  0.1854 -0.4071  0.5293
 7958SOL    HW124687   6.733   1.907   3.987 -0.3423 -0.7291  0.9106
 7958SOL    HW224688   6.748   1.785   4.076  1.7263  0.2385  1.9167
 7959SOL     OW24689   3.474   4.390   1.825 -0.0119  0.1626  0.3450
 7959SOL    HW124690   3.557   4.364   1.864  0.7072  0.8891 -0.6794
 7959SOL    HW224691   3.408   4.366   1.890  1.0289 -0.1212  1.3026
 7960SOL     OW24692   7.293   1.312   0.732 -0.0433 -0.5713 -0.0581
 7960SOL    HW124693   7.379   1.303   0.690 -0.1630  0.4822 -0.5637
 7960SOL    HW224694   7.288   1.240   0.794  0.2217 -2.0540 -1.7249
 7961SOL     OW24695   7.597   7.170   5.737  0.0601  0.4931  0.0232
 7961SOL    HW124696   7.590   7.074   5.737  0.7726  0.4411  0.1261
 7961SOL    HW224697   7.616   7.192   5.646 -2.2937  0.7079 -0.4586
 7962SOL     OW24698   1.457   7.839   1.399 -0.0254  0.4335  0.5878
 7962SOL    HW124699   1.544   7.800   1.387 -0.3264 -0.4936  1.3842
 7962SOL    HW224700   1.465   7.926   1.361  1.2606  0.3655  0.6749
 7963SOL     OW24701   5.904   7.790   3.238 -0.3256  0.0813  0.0413
 7963SOL    HW124702   5.933   7.699   3.227 -1.2417 -0.4581  1.9057
 7963SOL    HW224703   5.950   7.820   3.317  0.5731  1.5012 -1.0021
 7964SOL     OW24704   0.880   7.042   1.617  0.1939  1.0150 -0.1419
 7964SOL    HW124705   0.843   7.130   1.620  1.3126  1.4864  0.0753
 7964SOL    HW224706   0.856   7.003   1.701 -2.3544  0.2488 -1.1840
 7965SOL     OW24707   1.413   4.081   7.071 -0.0878 -0.4796  0.0802
 7965SOL    HW124708   1.458   4.127   7.143 -1.3066  1.9138 -0.6354
 7965SOL    HW224709   1.322   4.074   7.101 -0.9264  1.8266 -1.7746
 7966SOL     OW24710   1.439   0.282   7.956 -0.0289  0.0311  0.3632
 7966SOL    HW124711   1.355   0.259   7.917 -0.6189  1.5323  0.7364
 7966SOL    HW224712   1.496   0.301   7.881 -0.0356 -0.8668  0.1175
 7967SOL     OW24713   0.588   4.699   2.674  0.8041  0.3535  0.1156
 7967SOL    HW124714   0.574   4.793   2.683 -5.0549 -0.2831 -0.5740
 7967SOL    HW224715   0.550   4.660   2.753  1.5582 -1.5651 -0.4247
 7968SOL     OW24716   1.602   7.613   0.996 -0.0699 -0.5462 -0.0607
 7968SOL    HW124717   1.552   7.583   0.920 -1.7223  0.2023  0.7074
 7968SOL    HW224718   1.546   7.593   1.071  1.9119 -2.0928  1.0836
 7969SOL     OW24719   4.318   0.466   0.556  0.4252  0.3096 -0.4153
 7969SOL    HW124720   4.236   0.495   0.516  0.5867  1.1409 -0.1678
 7969SOL    HW224721   4.369   0.430   0.484  0.4116  1.1038 -0.8294
 7970SOL     OW24722   5.288   4.270   7.086 -0.4805 -0.4703 -0.5473
 7970SOL    HW124723   5.252   4.225   7.163 -0.7457  0.9680  0.1871
 7970SOL    HW224724   5.334   4.201   7.038  2.2796 -0.8481  2.4266
 7971SOL     OW24725   3.302   5.047   7.562 -0.6518  0.0678 -0.0059
 7971SOL    HW124726   3.253   4.966   7.546 -1.1084 -0.1613  2.4197
 7971SOL    HW224727   3.236   5.109   7.591  0.0167  0.7259  0.1043
 7972SOL     OW24728   1.950   4.709   1.632 -0.1731  0.4905  0.4947
 7972SOL    HW124729   2.027   4.668   1.594 -1.3411 -2.2362  0.9294
 7972SOL    HW224730   1.953   4.684   1.724 -1.4798  0.5358  0.5553
 7973SOL     OW24731   7.203   4.165   7.055 -0.5008 -0.0407  0.0344
 7973SOL    HW124732   7.232   4.121   6.976  0.1656  0.5004 -0.0309
 7973SOL    HW224733   7.191   4.257   7.028 -0.8451  0.0271  0.4155
 7974SOL     OW24734   2.351   0.326   2.520 -0.1055  0.3676  0.4315
 7974SOL    HW124735   2.326   0.287   2.437  3.3413 -1.0901  0.0020
 7974SOL    HW224736   2.398   0.406   2.497  2.2975 -0.8868  0.8720
 7975SOL     OW24737   1.570   4.022   0.898 -0.0459 -0.0684  0.0706
 7975SOL    HW124738   1.516   4.037   0.820 -0.7762  2.8673  1.0770
 7975SOL    HW224739   1.508   4.008   0.969  0.4929  1.3368  0.8561
 7976SOL     OW24740   7.868   1.295   3.809 -0.1757 -0.4842  0.0229
 7976SOL    HW124741   7.871   1.307   3.904 -1.2455 -0.2512  0.0370
 7976SOL    HW224742   7.844   1.381   3.775 -1.0357 -0.8739 -0.3690
 7977SOL     OW24743   3.395   6.218   7.149 -0.6248  0.1031  0.4748
 7977SOL    HW124744   3.490   6.220   7.140 -0.4958 -1.3298  1.3335
 7977SOL    HW224745   3.365   6.297   7.104  1.0378  1.1935  1.2125
 7978SOL     OW24746   7.394   5.613   0.451 -0.5212 -0.7311 -0.4186
 7978SOL    HW124747   7.453   5.538   0.445  1.4619  0.6581  1.0649
 7978SOL    HW224748   7.376   5.621   0.544 -4.4022 -2.0896 -0.9857
 7979SOL     OW24749   1.779   6.878   2.000  0.1294  0.2928 -0.3316
 7979SOL    HW124750   1.738   6.792   1.995 -0.3770  0.5122 -0.0363
 7979SOL    HW224751   1.857   6.871   1.946 -0.2174 -0.1797 -0.7688
 7980SOL     OW24752   0.109   7.375   1.160  0.3413 -0.2721 -0.8159
 7980SOL    HW124753   0.029   7.415   1.192  0.4225  0.2322 -1.2323
 7980SOL    HW224754   0.105   7.387   1.065  0.3876 -1.2129 -0.9409
 7981SOL     OW24755   7.853   0.094   5.640 -0.0858  0.6249  0.2889
 7981SOL    HW124756   7.803   0.046   5.706  1.5899  2.4951  3.0053
 7981SOL    HW224757   7.902   0.160   5.689  3.2521  0.4117 -2.5103
 7982SOL     OW24758   1.386   4.162   1.325  0.3591 -0.8693  0.8895
 7982SOL    HW124759   1.328   4.192   1.255  1.2760 -2.9308 -0.8179
 7982SOL    HW224760   1.474   4.181   1.293  0.7968 -2.2179  1.2714
 7983SOL     OW24761   4.853   3.011   6.019 -0.1633  0.0279  0.6219
 7983SOL    HW124762   4.933   3.000   5.967 -0.0075  0.5464  0.7514
 7983SOL    HW224763   4.806   2.927   6.009 -0.7970  0.5830 -1.4908
 7984SOL     OW24764   0.271   7.576   1.548  0.1298  0.5864  0.1132
 7984SOL    HW124765   0.181   7.589   1.518  0.5046  2.1605 -0.4159
 7984SOL    HW224766   0.262   7.555   1.641 -0.7918  0.6707  0.0549
 7985SOL     OW24767   2.094   0.304   7.118 -0.5355  0.8173  0.0970
 7985SOL    HW124768   2.008   0.294   7.077 -0.2639 -0.2770 -0.2366
 7985SOL    HW224769   2.153   0.252   7.063 -0.2022 -0.8614  1.9723
 7986SOL     OW24770   4.958   1.722   4.068  0.0713  0.0259 -0.7226
 7986SOL    HW124771   5.023   1.791   4.057  0.6283 -0.7085 -2.1107
 7986SOL    HW224772   5.000   1.643   4.034 -1.8147 -0.3120 -2.3801
 7987SOL     OW24773   5.013   4.521   1.489 -0.2502 -0.4536 -0.2809
 7987SOL    HW124774   5.021   4.515   1.394  0.0873 -1.7616 -0.1792
 7987SOL    HW224775   5.047   4.437   1.522 -0.9311 -0.2675  0.9519
 7988SOL     OW24776   4.429   7.286   7.523 -0.0676  0.2789  0.7449
 7988SOL    HW124777   4.415   7.377   7.499 -0.8446 -0.3406 -1.2241
 7988SOL    HW224778   4.355   7.265   7.580  0.0687  0.8395  1.1357
 7989SOL     OW24779   4.876   6.543   0.618 -0.7436 -0.3179  0.3246
 7989SOL    HW124780   4.936   6.616   0.632  0.0786 -1.2649  1.8692
 7989SOL    HW224781   4.914   6.496   0.544  0.1102 -0.5755  0.9135
 7990SOL     OW24782   5.511   4.885   4.137 -0.0933  0.1463  0.1897
 7990SOL    HW124783   5.457   4.819   4.093  0.0257  1.4440 -1.9653
 7990SOL    HW224784   5.464   4.903   4.218 -1.5876 -0.5588 -0.4940
 7991SOL     OW24785   4.729   2.420   5.136 -0.2034  0.3824 -0.0704
 7991SOL    HW124786   4.789   2.365   5.186 -0.4808 -0.3276 -0.5151
 7991SOL    HW224787   4.733   2.505   5.179  0.9017  0.2576  0.0816
 7992SOL     OW24788   4.140   2.817   2.393  0.3486  0.0321  0.7886
 7992SOL    HW124789   4.188   2.895   2.366  0.5978 -0.4119 -0.0753
 7992SOL    HW224790   4.118   2.832   2.485 -1.0236  1.8329  0.1962
 7993SOL     OW24791   1.904   1.210   6.475 -0.3562  0.2053 -0.3647
 7993SOL    HW124792   1.973   1.153   6.508 -1.3550 -0.8119  0.0118
 7993SOL    HW224793   1.943   1.253   6.399  0.9517  0.2672  0.3328
 7994SOL     OW24794   7.493   0.439   3.033  0.5270 -0.5246  0.1431
 7994SOL    HW124795   7.559   0.476   2.975 -0.2737  2.5169  1.0505
 7994SOL    HW224796   7.522   0.463   3.121 -1.6800  0.7759  0.5601
 7995SOL     OW24797   6.427   0.879   1.795  0.1563  0.1328  0.5921
 7995SOL    HW124798   6.442   0.785   1.789 -1.5618 -0.0364 -1.5134
 7995SOL    HW224799   6.435   0.899   1.889  0.5383 -2.0945  1.0489
 7996SOL     OW24800   1.218   5.311   3.400  0.4813 -0.0138 -0.0466
 7996SOL    HW124801   1.302   5.343   3.370  0.4172  0.6510  0.4719
 7996SOL    HW224802   1.222   5.318   3.495 -0.5687  1.0727 -0.0672
 7997SOL     OW24803   3.181   4.851   2.892 -0.7287  0.5623  0.3698
 7997SOL    HW124804   3.109   4.794   2.917 -2.2055  1.4568 -1.7252
 7997SOL    HW224805   3.210   4.890   2.974 -0.9154 -1.7458  1.5757
 7998SOL     OW24806   4.641   5.264   5.558  0.7759  0.2313 -0.5725
 7998SOL    HW124807   4.707   5.294   5.494  0.5438  2.1655  0.0624
 7998SOL    HW224808   4.684   5.276   5.643  0.5875 -1.0642 -0.2945
 7999SOL     OW24809   2.558   5.094   5.765 -0.3617 -0.5411  0.0145
 7999SOL    HW124810   2.623   5.161   5.784 -0.6463 -0.3697  0.3814
 7999SOL    HW224811   2.530   5.061   5.851  0.3087 -1.6441 -0.1764
 8000SOL     OW24812   4.015   0.755   5.747 -0.3351 -0.0022 -0.2072
 8000SOL    HW124813   3.982   0.688   5.687  0.2885  0.1697 -0.7484
 8000SOL    HW224814   3.938   0.784   5.795 -0.4715 -1.7925  0.7167
 8001SOL     OW24815   7.788   5.434   1.431  0.4137 -0.3561 -0.3051
 8001SOL    HW124816   7.861   5.437   1.370  0.0705  0.6718 -0.6594
 8001SOL    HW224817   7.768   5.525   1.451 -0.2107 -0.6498  0.4629
 8002SOL     OW24818   5.611   0.302   3.104 -0.0744  0.1277  0.0009
 8002SOL    HW124819   5.523   0.270   3.083 -0.3717 -0.2129  1.6515
 8002SOL    HW224820   5.596   0.387   3.147  0.4531  0.4470 -0.4368
 8003SOL     OW24821   7.897   5.912   3.458 -0.2496 -0.4225  0.5222
 8003SOL    HW124822   7.945   5.870   3.387 -1.3790  1.4397 -1.3852
 8003SOL    HW224823   7.964   5.961   3.507  0.0660  0.7235 -1.0485
 8004SOL     OW24824   5.013   4.233   3.658 -0.1869 -0.2203  0.7673
 8004SOL    HW124825   5.096   4.281   3.666 -0.1055 -0.4236  1.1761
 8004SOL    HW224826   4.951   4.282   3.712 -0.7032  0.7341 -0.6732
 8005SOL     OW24827   1.284   6.202   0.397  0.4485 -0.0755 -0.0286
 8005SOL    HW124828   1.299   6.159   0.482 -0.2904 -0.8548 -0.2927
 8005SOL    HW224829   1.342   6.156   0.337 -0.1057 -0.4856 -0.2467
 8006SOL     OW24830   5.291   6.767   3.991  0.1279 -0.0881  0.7953
 8006SOL    HW124831   5.286   6.827   3.917  0.1569 -1.1470 -0.0783
 8006SOL    HW224832   5.271   6.821   4.067 -1.4404  0.6950 -0.1411
 8007SOL     OW24833   3.402   5.546   3.771  0.7553  0.1942  0.5965
 8007SOL    HW124834   3.349   5.499   3.835  0.8125  1.2789  1.4601
 8007SOL    HW224835   3.407   5.635   3.806  0.7648  0.7962 -0.9411
 8008SOL     OW24836   7.802   3.078   7.320 -0.1058 -0.6934  0.2079
 8008SOL    HW124837   7.818   3.037   7.405 -1.0203 -1.9668 -0.2012
 8008SOL    HW224838   7.754   3.011   7.271 -1.4595  0.8219 -0.5715
 8009SOL     OW24839   2.831   1.483   7.555  0.3500  0.1846  0.1833
 8009SOL    HW124840   2.810   1.425   7.482  1.2676 -1.4007  1.1592
 8009SOL    HW224841   2.925   1.469   7.571  0.1785  0.5582  1.6151
 8010SOL     OW24842   1.047   1.695   7.092  0.5178 -0.3371 -0.7955
 8010SOL    HW124843   0.996   1.776   7.099 -0.3422 -0.6599 -3.1288
 8010SOL    HW224844   0.998   1.631   7.142  0.5935  0.2821  0.0840
 8011SOL     OW24845   5.213   6.210   0.991  0.3706  0.0258  0.2818
 8011SOL    HW124846   5.283   6.221   1.054 -0.8741 -0.8068  1.8348
 8011SOL    HW224847   5.192   6.298   0.961  1.1945  0.3839  0.7794
 8012SOL     OW24848   2.002   5.111   5.684 -0.1558  0.1669 -0.0832
 8012SOL    HW124849   2.072   5.047   5.672  0.6161  0.9555  0.1360
 8012SOL    HW224850   1.996   5.157   5.599 -0.0494  0.4522  0.0624
 8013SOL     OW24851   3.009   3.384   7.190  0.2106  0.1952 -0.0078
 8013SOL    HW124852   2.966   3.440   7.254  1.2160 -0.5926  1.3749
 8013SOL    HW224853   3.096   3.423   7.179 -0.0885  0.5503 -1.1969
 8014SOL     OW24854   1.517   1.763   5.203 -0.3757 -0.1822 -0.3428
 8014SOL    HW124855   1.609   1.766   5.230 -0.0903 -1.6139 -1.1253
 8014SOL    HW224856   1.488   1.854   5.206  0.2260 -0.0349  2.7891
 8015SOL     OW24857   3.943   6.127   0.703 -0.5805 -0.3439 -0.0206
 8015SOL    HW124858   3.982   6.206   0.667  0.3877  0.0175  1.7609
 8015SOL    HW224859   3.857   6.155   0.735 -0.8022 -0.3207 -0.6429
 8016SOL     OW24860   5.787   0.635   1.367  0.0261 -0.2744  0.4357
 8016SOL    HW124861   5.795   0.672   1.455 -2.1085  1.7289 -0.1615
 8016SOL    HW224862   5.792   0.541   1.380  0.7052  0.0376  2.5873
 8017SOL     OW24863   3.281   5.356   4.169  0.0113  0.5320  0.3570
 8017SOL    HW124864   3.256   5.432   4.221 -0.4749  0.9918 -0.5466
 8017SOL    HW224865   3.363   5.382   4.127 -0.3720  0.7119 -0.2801
 8018SOL     OW24866   6.126   3.430   7.844 -0.2103  0.2188  0.4314
 8018SOL    HW124867   6.120   3.502   7.781  0.1974  0.1341  0.2948
 8018SOL    HW224868   6.120   3.473   7.929 -0.0926  0.4028  0.3478
 8019SOL     OW24869   7.067   1.077   3.523  0.6627 -0.0037 -0.1823
 8019SOL    HW124870   7.056   1.095   3.429 -0.9822  2.0274  0.3679
 8019SOL    HW224871   6.987   1.033   3.549  0.3713  0.9866  0.6256
 8020SOL     OW24872   4.533   0.805   7.849 -0.1665 -0.1966 -0.1018
 8020SOL    HW124873   4.627   0.784   7.852 -0.5507 -1.8275  1.2006
 8020SOL    HW224874   4.514   0.843   7.935 -0.7975 -0.3202 -0.1857
 8021SOL     OW24875   6.953   4.100   7.095 -0.1899  0.1626  0.1680
 8021SOL    HW124876   6.916   4.174   7.145 -0.6709  0.0036  0.0487
 8021SOL    HW224877   7.047   4.117   7.095 -0.3011  0.8058  0.0971
 8022SOL     OW24878   6.342   7.604   4.185  0.1684  0.4688 -0.3372
 8022SOL    HW124879   6.428   7.630   4.153  0.4799  0.9893  0.8891
 8022SOL    HW224880   6.355   7.587   4.278 -0.5947 -1.5681 -0.5670
 8023SOL     OW24881   4.328   7.140   0.281  0.2982  0.0214 -0.1207
 8023SOL    HW124882   4.323   7.224   0.236  1.2371 -0.4948 -1.2057
 8023SOL    HW224883   4.280   7.154   0.363 -0.2541  1.3641 -0.6607
 8024SOL     OW24884   5.379   7.112   6.395  0.3072 -0.1672 -0.5751
 8024SOL    HW124885   5.408   7.116   6.304  2.3519  2.5673  0.1563
 8024SOL    HW224886   5.450   7.066   6.441  0.0892  0.0208 -0.0479
 8025SOL     OW24887   4.003   4.325   2.288 -0.2656  0.2268  0.0760
 8025SOL    HW124888   4.083   4.344   2.337 -0.1240 -1.7994  0.7023
 8025SOL    HW224889   3.970   4.410   2.261  0.0727  1.3835  3.0807
 8026SOL     OW24890   3.172   6.694   5.170 -0.0804  0.2868 -0.2300
 8026SOL    HW124891   3.113   6.712   5.243  1.6369  0.3165  1.1840
 8026SOL    HW224892   3.121   6.716   5.092 -2.1829 -0.4118  0.9145
 8027SOL     OW24893   3.705   0.443   3.241 -0.3462 -0.3368  0.2925
 8027SOL    HW124894   3.741   0.371   3.189 -0.2678 -0.1902  0.1434
 8027SOL    HW224895   3.781   0.490   3.273 -0.4058  0.1635 -0.2879
 8028SOL     OW24896   1.008   7.130   2.649 -0.2348 -0.1078  0.1989
 8028SOL    HW124897   1.055   7.106   2.570  0.3728  0.0332  0.5132
 8028SOL    HW224898   1.077   7.143   2.715 -0.7506 -0.5657  0.8375
 8029SOL     OW24899   7.520   1.505   3.947  0.3143  0.2654  0.1573
 8029SOL    HW124900   7.489   1.422   3.911  1.5739 -0.2907  0.3325
 8029SOL    HW224901   7.573   1.544   3.876 -0.4015  0.9912  0.0189
 8030SOL     OW24902   4.039   5.960   6.710  0.0849 -0.0211  0.0257
 8030SOL    HW124903   3.953   5.925   6.687  1.0149 -1.6693 -1.0112
 8030SOL    HW224904   4.023   6.013   6.789 -1.6080 -1.5233  0.7170
 8031SOL     OW24905   5.713   7.472   3.834 -0.0250  0.0401 -0.4254
 8031SOL    HW124906   5.619   7.489   3.843 -0.1516 -1.0711  0.4724
 8031SOL    HW224907   5.755   7.556   3.852 -0.6532 -0.3958  3.3735
 8032SOL     OW24908   4.922   5.422   0.702 -0.1787  0.0764  0.5606
 8032SOL    HW124909   4.982   5.460   0.767  0.2637 -0.2036  0.3230
 8032SOL    HW224910   4.835   5.445   0.733  0.0533  0.4577  0.9331
 8033SOL     OW24911   7.398   6.600   0.635 -0.2487  0.2095 -0.1465
 8033SOL    HW124912   7.374   6.557   0.717 -0.1193  0.4507  0.0208
 8033SOL    HW224913   7.492   6.613   0.642  0.3932 -2.9739 -1.8717
 8034SOL     OW24914   7.744   1.270   7.936  0.0891  0.0071  0.1549
 8034SOL    HW124915   7.737   1.194   7.879  0.9525  1.0102 -1.3057
 8034SOL    HW224916   7.775   1.340   7.880 -1.6107  1.7078  1.2483
 8035SOL     OW24917   2.741   7.368   1.009  0.6454 -0.2065  0.0733
 8035SOL    HW124918   2.836   7.381   1.020  0.2622  0.9429  2.3348
 8035SOL    HW224919   2.720   7.416   0.929  1.7229  0.8854  0.4193
 8036SOL     OW24920   6.054   5.947   5.785 -0.0858  0.5009 -0.3175
 8036SOL    HW124921   5.968   5.905   5.787 -0.3746  1.1365  1.2039
 8036SOL    HW224922   6.116   5.874   5.793 -0.5057  0.1245 -0.4613
 8037SOL     OW24923   5.149   3.794   3.570 -0.0510 -0.1611  0.1651
 8037SOL    HW124924   5.090   3.742   3.624  0.1107 -1.0929 -0.5366
 8037SOL    HW224925   5.094   3.865   3.536 -0.1620  0.3919  1.4942
 8038SOL     OW24926   1.143   4.754   3.977  0.1711  0.0207 -0.5756
 8038SOL    HW124927   1.218   4.794   4.022 -0.8069  2.2948 -0.9254
 8038SOL    HW224928   1.152   4.782   3.886 -0.4628 -0.6833 -0.8549
 8039SOL     OW24929   2.410   0.178   1.656 -0.3020 -0.3386  0.1228
 8039SOL    HW124930   2.363   0.253   1.620  0.2993  0.5896  1.2371
 8039SOL    HW224931   2.363   0.157   1.737 -0.2667 -0.9610 -0.0129
 8040SOL     OW24932   4.672   2.777   5.906  0.3190 -0.1942 -0.3742
 8040SOL    HW124933   4.681   2.718   5.980  1.0759 -0.7777 -0.9252
 8040SOL    HW224934   4.692   2.723   5.829 -2.8753 -0.2581 -1.2332
 8041SOL     OW24935   5.212   0.454   1.493 -0.2499  0.0298 -0.1360
 8041SOL    HW124936   5.143   0.394   1.522 -0.8418  0.3898 -0.7657
 8041SOL    HW224937   5.292   0.422   1.534 -0.8474 -0.2345  0.8187
 8042SOL     OW24938   4.288   3.252   5.183  0.0203 -0.3572  0.0553
 8042SOL    HW124939   4.252   3.340   5.188 -0.9204 -0.7406  0.1589
 8042SOL    HW224940   4.295   3.234   5.090  0.8627  0.0838  0.0301
 8043SOL     OW24941   3.232   6.064   1.712  0.2025  0.5206  0.6851
 8043SOL    HW124942   3.289   6.075   1.788 -0.5329 -0.4622  1.3953
 8043SOL    HW224943   3.153   6.024   1.748 -0.7480  1.4551 -0.3685
 8044SOL     OW24944   7.527   7.260   4.095  0.0602  0.4730 -0.1442
 8044SOL    HW124945   7.587   7.268   4.021  0.2766  1.7344  0.1518
 8044SOL    HW224946   7.565   7.192   4.150 -0.1388 -0.5253 -1.2154
 8045SOL     OW24947   7.105   2.887   6.938  0.4218 -0.1744  0.4200
 8045SOL    HW124948   7.095   2.797   6.969  0.2230 -0.6962 -1.1074
 8045SOL    HW224949   7.168   2.926   6.998  0.4435 -1.2980  1.1505
 8046SOL     OW24950   2.949   5.720   6.153  0.4525 -0.5237  0.2297
 8046SOL    HW124951   3.016   5.682   6.208  1.7561  2.4824  0.8354
 8046SOL    HW224952   2.896   5.774   6.212 -1.2087 -1.1777 -0.6099
 8047SOL     OW24953   7.653   1.781   4.709  0.1054  0.7703  0.6064
 8047SOL    HW124954   7.640   1.695   4.669  0.2080  1.1128 -0.1943
 8047SOL    HW224955   7.732   1.773   4.761 -1.2170 -0.2921  2.4900
 8048SOL     OW24956   7.241   4.693   3.784  0.0091  0.3555  0.2274
 8048SOL    HW124957   7.308   4.756   3.810  0.6806  0.1519 -0.9905
 8048SOL    HW224958   7.198   4.733   3.709  1.3985 -1.2452 -1.4611
 8049SOL     OW24959   1.056   7.937   6.993 -0.3340  0.7326  0.3651
 8049SOL    HW124960   1.098   8.012   7.036 -1.1797  0.4045  1.7926
 8049SOL    HW224961   0.963   7.954   7.001 -0.5278 -0.4501  0.6491
 8050SOL     OW24962   0.535   2.921   2.228  0.3189  0.2566 -0.9779
 8050SOL    HW124963   0.514   2.841   2.179 -1.3077  0.2449 -0.2707
 8050SOL    HW224964   0.508   2.902   2.318  0.9710  1.1963 -0.5848
 8051SOL     OW24965   6.898   6.908   5.548  0.0564 -0.1813  0.1895
 8051SOL    HW124966   6.890   6.852   5.470 -1.6837  1.3473 -0.7878
 8051SOL    HW224967   6.914   6.847   5.620  0.9094 -1.6972 -1.2406
 8052SOL     OW24968   3.867   6.136   6.287  0.8078 -0.7338 -0.0948
 8052SOL    HW124969   3.884   6.216   6.239 -0.6439  0.0936  0.7394
 8052SOL    HW224970   3.908   6.150   6.373 -1.9274  0.3234  1.0883
 8053SOL     OW24971   7.306   7.990   4.146  0.1574  0.1453 -0.6205
 8053SOL    HW124972   7.400   8.002   4.134  0.2323  0.2537  0.0738
 8053SOL    HW224973   7.267   8.015   4.062  0.6401  1.3737 -0.4902
 8054SOL     OW24974   5.667   5.707   1.953 -0.0848  0.0940  0.1152
 8054SOL    HW124975   5.604   5.771   1.920 -1.4641 -1.2783  0.0003
 8054SOL    HW224976   5.729   5.694   1.881  0.0619  1.1159  0.0580
 8055SOL     OW24977   1.781   1.659   5.779 -0.4667 -0.4009  0.1484
 8055SOL    HW124978   1.814   1.748   5.793  1.4277 -0.9163 -0.8452
 8055SOL    HW224979   1.847   1.603   5.821 -1.5169 -1.3500  0.5487
 8056SOL     OW24980   1.668   4.440   6.509  0.1705 -0.0811  0.0070
 8056SOL    HW124981   1.692   4.472   6.596  0.0876  1.0242 -0.3698
 8056SOL    HW224982   1.751   4.420   6.467  0.1683 -1.6036  0.7010
 8057SOL     OW24983   7.059   7.617   2.673  0.5742 -0.5339 -0.8558
 8057SOL    HW124984   7.028   7.636   2.584 -0.1738 -2.5552 -1.0505
 8057SOL    HW224985   7.049   7.700   2.720 -2.5964 -0.3992 -1.6566
 8058SOL     OW24986   4.334   2.234   6.965 -0.1155  0.1263 -0.0027
 8058SOL    HW124987   4.281   2.165   6.925 -0.5344  0.1424  0.5136
 8058SOL    HW224988   4.323   2.221   7.059  1.7619 -0.6016  0.1239
 8059SOL     OW24989   5.519   5.387   1.197  0.2217  0.6680  0.9410
 8059SOL    HW124990   5.560   5.347   1.121  1.1421  0.7773  1.3730
 8059SOL    HW224991   5.428   5.402   1.171 -0.0065 -1.1992  0.5963
 8060SOL     OW24992   5.504   3.537   0.869  0.0560 -0.1388  0.4555
 8060SOL    HW124993   5.524   3.523   0.777 -0.9898 -2.1209  0.5127
 8060SOL    HW224994   5.413   3.569   0.869 -0.3184 -1.1960  0.8640
 8061SOL     OW24995   4.062   1.513   6.942  0.2000 -0.0041 -0.3657
 8061SOL    HW124996   4.051   1.581   6.875 -1.5424  0.3519  0.2629
 8061SOL    HW224997   4.036   1.556   7.024 -0.0634 -1.1818  0.1713
 8062SOL     OW24998   3.310   2.054   3.297 -0.1858  0.0086  0.0793
 8062SOL    HW124999   3.251   2.016   3.363 -0.4796 -0.8142 -0.6468
 8062SOL    HW225000   3.273   2.027   3.213 -0.2034  1.6254 -0.4525
 8063SOL     OW25001   3.816   5.394   2.166 -0.0730  0.0688 -0.2736
 8063SOL    HW125002   3.774   5.334   2.228 -0.2158 -0.3839 -0.8043
 8063SOL    HW225003   3.883   5.341   2.123  0.5507  0.5938  0.0460
 8064SOL     OW25004   5.105   2.206   3.037 -0.4624 -0.3128  0.1099
 8064SOL    HW125005   5.074   2.117   3.024  0.5965 -1.0852  2.6474
 8064SOL    HW225006   5.026   2.258   3.051 -1.2006 -0.5077 -2.9252
 8065SOL     OW25007   0.704   5.363   5.437  0.0965 -0.2497 -0.5688
 8065SOL    HW125008   0.788   5.317   5.442  1.1872  1.8949  2.5517
 8065SOL    HW225009   0.699   5.412   5.519 -2.5108  2.5762 -2.3208
 8066SOL     OW25010   5.110   7.503   1.374 -0.1141  0.0731 -0.3530
 8066SOL    HW125011   5.151   7.461   1.299  1.0170  0.7225 -0.1167
 8066SOL    HW225012   5.120   7.441   1.446 -1.3326 -0.6118 -0.7768
 8067SOL     OW25013   0.872   6.399   4.471  0.2460  0.0408  0.3200
 8067SOL    HW125014   0.959   6.385   4.433  0.6649  2.0818  0.4524
 8067SOL    HW225015   0.818   6.430   4.398 -0.0703 -0.1347  0.4779
 8068SOL     OW25016   4.001   5.378   3.712  0.0031 -0.0237 -0.2086
 8068SOL    HW125017   3.993   5.459   3.662 -0.4341  0.8157  1.2100
 8068SOL    HW225018   4.037   5.315   3.649 -2.0799  0.5530 -2.0414
 8069SOL     OW25019   4.490   2.436   3.270 -0.1820 -0.2784 -0.5112
 8069SOL    HW125020   4.523   2.372   3.332 -0.1481 -0.2110 -0.4597
 8069SOL    HW225021   4.409   2.398   3.236 -1.2517  0.5606  1.0368
 8070SOL     OW25022   5.155   3.045   1.850  0.1407  0.0544 -0.1041
 8070SOL    HW125023   5.183   3.047   1.942 -0.1632 -0.2606  0.0013
 8070SOL    HW225024   5.079   2.987   1.851  1.0636 -1.2000 -0.8076
 8071SOL     OW25025   0.222   4.071   4.473 -0.4415  0.0815  0.1533
 8071SOL    HW125026   0.151   4.075   4.409  0.2648  0.1961 -0.6300
 8071SOL    HW225027   0.185   4.110   4.552 -0.3276  2.9238 -1.1165
 8072SOL     OW25028   2.611   5.186   5.502  0.4895  0.4280  0.2596
 8072SOL    HW125029   2.603   5.282   5.505  0.3396  0.4577 -0.7511
 8072SOL    HW225030   2.582   5.157   5.588  1.4425  1.3586  0.9091
 8073SOL     OW25031   5.129   7.142   5.605 -0.1037 -0.5194 -0.3741
 8073SOL    HW125032   5.168   7.108   5.525 -0.6102 -1.1430 -0.3576
 8073SOL    HW225033   5.143   7.073   5.670  1.5627  0.5712  0.4438
 8074SOL     OW25034   2.330   2.836   0.661 -0.1749 -0.6211  0.2567
 8074SOL    HW125035   2.314   2.761   0.602  0.2487  0.4311 -1.2306
 8074SOL    HW225036   2.419   2.863   0.641 -0.1160 -0.0866  1.2291
 8075SOL     OW25037   6.993   3.383   2.349 -0.6087 -0.0816 -0.3927
 8075SOL    HW125038   7.042   3.382   2.431  0.6966 -0.6096 -1.1454
 8075SOL    HW225039   6.934   3.458   2.356  0.0570  0.3499  0.6893
 8076SOL     OW25040   2.127   0.564   7.199 -0.0240  0.2920  0.7193
 8076SOL    HW125041   2.124   0.476   7.163 -1.3569  0.7836 -0.4172
 8076SOL    HW225042   2.198   0.607   7.151 -1.0911  0.6225 -0.5592
 8077SOL     OW25043   1.292   1.963   7.223 -1.1382 -0.1212  0.2199
 8077SOL    HW125044   1.248   1.940   7.305 -0.8947 -1.8515 -0.1127
 8077SOL    HW225045   1.245   2.040   7.191 -2.3017 -0.4221  1.1551
 8078SOL     OW25046   6.744   4.233   5.929 -0.2270  0.0970  0.0147
 8078SOL    HW125047   6.772   4.150   5.968 -0.5149 -0.4665 -0.9683
 8078SOL    HW225048   6.783   4.232   5.842 -0.7654  0.7092 -0.2284
 8079SOL     OW25049   2.286   3.801   2.178  0.1003  0.0367  0.1423
 8079SOL    HW125050   2.296   3.848   2.261  1.3040 -0.4926  0.3112
 8079SOL    HW225051   2.256   3.714   2.204 -0.1631  0.0824 -0.0168
 8080SOL     OW25052   3.301   2.444   6.504  0.3088 -0.4362  0.3926
 8080SOL    HW125053   3.288   2.388   6.428 -0.9183 -0.5437  0.6548
 8080SOL    HW225054   3.373   2.501   6.480  2.0287 -2.5497  0.3731
 8081SOL     OW25055   1.630   1.480   7.656  0.4113 -0.5331  0.0679
 8081SOL    HW125056   1.651   1.560   7.608 -1.7253 -0.2838 -0.4955
 8081SOL    HW225057   1.592   1.422   7.590 -2.6798 -0.1373  1.4637
 8082SOL     OW25058   6.365   6.828   5.288  0.1320  0.5987  0.1002
 8082SOL    HW125059   6.436   6.822   5.352  0.6863  0.1916 -0.5484
 8082SOL    HW225060   6.409   6.842   5.204 -0.4525 -1.5112 -0.5804
 8083SOL     OW25061   1.776   7.462   5.791 -0.6266  0.5900  0.1989
 8083SOL    HW125062   1.785   7.369   5.812  0.3343  0.7046  0.2910
 8083SOL    HW225063   1.786   7.466   5.696  0.9402  0.7919  0.3666
 8084SOL     OW25064   3.894   5.241   0.369  0.2318  0.3346 -0.1626
 8084SOL    HW125065   3.906   5.170   0.306  1.0119 -0.5801  0.9824
 8084SOL    HW225066   3.976   5.243   0.419  0.7420  2.9019 -1.0260
 8085SOL     OW25067   4.458   4.964   7.676  0.3763  0.3557  0.2482
 8085SOL    HW125068   4.459   4.949   7.581  0.3897  2.0785 -0.0465
 8085SOL    HW225069   4.375   4.925   7.705 -0.8217  1.9711 -0.8821
 8086SOL     OW25070   7.394   7.370   0.039  0.3373  0.3529  0.1847
 8086SOL    HW125071   7.484   7.395   0.015  0.6613 -1.7568 -0.9292
 8086SOL    HW225072   7.394   7.368   0.134  1.3619  0.8014  0.1994
 8087SOL     OW25073   6.022   4.756   1.242 -0.1789 -0.1431  0.0981
 8087SOL    HW125074   6.075   4.833   1.219  1.0904 -0.5792  1.4360
 8087SOL    HW225075   5.970   4.784   1.317 -0.1703 -0.3993  0.2012
 8088SOL     OW25076   2.305   1.872   5.017 -0.1504 -0.5878 -0.2453
 8088SOL    HW125077   2.336   1.852   4.929 -1.3671 -0.6708 -0.6758
 8088SOL    HW225078   2.384   1.886   5.069  0.5709 -0.3641 -1.3967
 8089SOL     OW25079   0.482   4.923   3.141  0.4102  0.1866 -0.0470
 8089SOL    HW125080   0.577   4.927   3.129  0.3332  0.1740 -0.6795
 8089SOL    HW225081   0.469   4.932   3.235  0.9374  2.0804 -0.1226
 8090SOL     OW25082   5.640   4.636   4.490 -0.2845 -0.1673  0.2475
 8090SOL    HW125083   5.643   4.652   4.395  0.6403  3.8386  0.8894
 8090SOL    HW225084   5.721   4.589   4.508  0.5193  0.8406 -0.6716
 8091SOL     OW25085   0.431   5.333   5.529 -0.3659 -0.3895  0.6649
 8091SOL    HW125086   0.428   5.257   5.588 -1.1690 -1.9625 -1.3576
 8091SOL    HW225087   0.504   5.315   5.470 -0.3121  0.6026  0.4309
 8092SOL     OW25088   3.599   7.334   7.238  0.1464  0.5873 -0.6286
 8092SOL    HW125089   3.518   7.293   7.208  1.2327 -1.4898 -0.7818
 8092SOL    HW225090   3.577   7.370   7.324 -0.3332 -2.0811  0.4210
 8093SOL     OW25091   0.164   2.780   1.071  1.1556  0.2998  0.1422
 8093SOL    HW125092   0.093   2.743   1.124 -0.8278  0.6399 -2.2208
 8093SOL    HW225093   0.156   2.874   1.083  1.0784  0.3496 -0.3096
 8094SOL     OW25094   2.745   1.925   6.910 -0.0531 -0.5756  0.0325
 8094SOL    HW125095   2.724   2.018   6.914  1.6075 -0.2406  1.4595
 8094SOL    HW225096   2.791   1.914   6.827  4.2557  0.8886  2.1227
 8095SOL     OW25097   5.410   4.421   0.717  0.6247 -0.1146  0.2516
 8095SOL    HW125098   5.490   4.467   0.740  1.3647 -0.9709 -0.5788
 8095SOL    HW225099   5.427   4.329   0.740 -0.0308 -0.3357 -0.1147
 8096SOL     OW25100   2.692   7.532   2.687 -0.1552 -0.2193 -0.7321
 8096SOL    HW125101   2.706   7.495   2.774 -0.5237 -0.2751 -0.6970
 8096SOL    HW225102   2.610   7.581   2.694 -1.2517 -1.8995 -1.5952
 8097SOL     OW25103   1.646   7.670   7.560  0.1168  0.3947  0.2092
 8097SOL    HW125104   1.696   7.689   7.640  0.0522 -0.8964  0.5713
 8097SOL    HW225105   1.596   7.591   7.581 -2.1294  1.6765 -0.1461
 8098SOL     OW25106   1.770   0.576   5.489 -0.6733  1.2169 -0.0136
 8098SOL    HW125107   1.800   0.551   5.577 -1.2254 -1.0232 -0.4340
 8098SOL    HW225108   1.694   0.632   5.505 -0.1632  1.6717  0.9286
 8099SOL     OW25109   7.191   1.794   5.499 -0.0049  0.2508 -0.1081
 8099SOL    HW125110   7.228   1.868   5.548  1.0601 -0.0497 -0.4416
 8099SOL    HW225111   7.211   1.718   5.554  0.6516 -0.0133 -0.7094
 8100SOL     OW25112   4.116   7.214   7.951  0.6086 -0.0330 -0.0499
 8100SOL    HW125113   4.175   7.260   8.010 -0.8468  0.3722  1.1212
 8100SOL    HW225114   4.118   7.123   7.980 -2.3368  0.6530  2.5952
 8101SOL     OW25115   6.937   2.288   7.356 -1.2791 -0.2640 -0.0350
 8101SOL    HW125116   6.991   2.228   7.408 -0.2036  0.1281 -0.6631
 8101SOL    HW225117   6.982   2.291   7.271 -1.4032  1.3096 -0.0522
 8102SOL     OW25118   4.404   6.741   7.709  0.2708 -0.2213 -0.4838
 8102SOL    HW125119   4.424   6.833   7.724  1.1855 -0.4727 -0.1342
 8102SOL    HW225120   4.383   6.735   7.616 -1.5173  0.6436 -0.1566
 8103SOL     OW25121   3.654   3.001   6.672 -0.4447 -0.2578 -0.4419
 8103SOL    HW125122   3.667   2.916   6.630 -1.7021 -0.0967 -1.2000
 8103SOL    HW225123   3.570   2.993   6.717 -0.2719  0.3838 -0.0021
 8104SOL     OW25124   6.660   7.750   1.006 -0.1242 -0.4379  0.4865
 8104SOL    HW125125   6.663   7.816   1.076 -1.7901 -0.5210  0.6673
 8104SOL    HW225126   6.617   7.795   0.933  2.0547 -0.1953 -0.6895
 8105SOL     OW25127   5.517   3.514   1.703 -0.0960 -0.4169 -0.5581
 8105SOL    HW125128   5.482   3.576   1.766  1.2041 -0.6670  0.4276
 8105SOL    HW225129   5.611   3.534   1.699  0.0671 -1.2850 -1.3984
 8106SOL     OW25130   4.045   2.353   7.281  0.4794 -0.1442  0.5550
 8106SOL    HW125131   4.112   2.393   7.336  1.4732 -1.1134  0.0840
 8106SOL    HW225132   4.055   2.397   7.196 -0.2173  0.4819  0.7995
 8107SOL     OW25133   5.496   7.424   7.402  0.1953 -0.0954 -0.1927
 8107SOL    HW125134   5.584   7.423   7.364  1.2484 -1.6952  2.1320
 8107SOL    HW225135   5.507   7.471   7.485 -0.7807 -1.6920  0.8655
 8108SOL     OW25136   1.603   7.548   4.582 -0.1010  0.3791  0.8462
 8108SOL    HW125137   1.633   7.482   4.644  2.1909  0.9628  0.4284
 8108SOL    HW225138   1.608   7.504   4.497 -0.4863  0.4684  0.7780
 8109SOL     OW25139   3.066   1.328   6.988  0.4209  0.1877 -0.2311
 8109SOL    HW125140   3.096   1.380   6.914  2.1430 -0.3076  0.0955
 8109SOL    HW225141   3.020   1.254   6.949  0.7386  0.2849 -0.7798
 8110SOL     OW25142   1.501   0.712   4.696  0.0457 -0.3678 -0.6682
 8110SOL    HW125143   1.573   0.712   4.632 -0.0542 -3.7086 -0.8657
 8110SOL    HW225144   1.432   0.662   4.653 -1.2872  0.2529  0.7381
 8111SOL     OW25145   4.604   0.471   3.217 -0.4764 -0.5556 -0.5434
 8111SOL    HW125146   4.640   0.518   3.142 -0.2465  0.8454  0.4334
 8111SOL    HW225147   4.619   0.378   3.197  0.2428 -0.1578 -1.8789
 8112SOL     OW25148   7.957   2.387   6.454  0.3173  0.1482  0.0805
 8112SOL    HW125149   8.041   2.414   6.491  0.4121  1.2429 -0.9144
 8112SOL    HW225150   7.892   2.427   6.510  0.4623 -0.5198  0.7256
 8113SOL     OW25151   3.631   0.306   6.397  0.3054  0.1933  0.1463
 8113SOL    HW125152   3.604   0.230   6.346  1.0676  0.0207 -0.0030
 8113SOL    HW225153   3.636   0.274   6.487  1.4951 -0.1775 -0.0357
 8114SOL     OW25154   6.251   3.114   3.529  0.4083  0.5665  0.1094
 8114SOL    HW125155   6.334   3.094   3.573 -0.2553  0.3531  1.2995
 8114SOL    HW225156   6.257   3.207   3.509  1.4106  0.3028 -0.8575
 8115SOL     OW25157   3.585   5.409   1.761 -0.3909  0.3087 -0.7050
 8115SOL    HW125158   3.617   5.474   1.824 -0.9163 -1.0217  0.9649
 8115SOL    HW225159   3.644   5.334   1.771  0.3115  0.5462 -2.7355
 8116SOL     OW25160   0.887   0.603   7.969  0.6059  0.3503  0.7639
 8116SOL    HW125161   0.946   0.674   7.991 -0.6018  0.9515  2.1382
 8116SOL    HW225162   0.873   0.557   8.052  0.5262 -0.8400  0.1009
 8117SOL     OW25163   6.812   1.485   3.049 -0.2060  0.0265  0.1140
 8117SOL    HW125164   6.847   1.400   3.020 -0.7179 -0.3914  0.7184
 8117SOL    HW225165   6.851   1.498   3.136 -1.2322 -0.2539  0.6235
 8118SOL     OW25166   7.499   1.817   0.223  0.0654 -0.0419 -0.2324
 8118SOL    HW125167   7.577   1.814   0.280  1.3969 -0.3531 -2.0449
 8118SOL    HW225168   7.532   1.800   0.135 -1.7456  2.0898 -1.3680
 8119SOL     OW25169   7.806   6.233   7.191  0.4092 -0.1845 -0.1531
 8119SOL    HW125170   7.712   6.214   7.195  0.3420 -0.1216 -1.5183
 8119SOL    HW225171   7.811   6.323   7.161  0.8863  0.3030  1.3098
 8120SOL     OW25172   4.275   7.485   4.748 -0.4865 -0.3837  0.3021
 8120SOL    HW125173   4.363   7.507   4.720 -1.3109  0.7956 -1.4248
 8120SOL    HW225174   4.225   7.566   4.738 -2.7746 -2.0433 -2.9258
 8121SOL     OW25175   3.560   7.545   0.904 -0.4085 -0.0468 -0.0480
 8121SOL    HW125176   3.495   7.559   0.973  0.0802 -0.0418  0.4098
 8121SOL    HW225177   3.642   7.577   0.941 -0.4137  1.2852 -1.1620
 8122SOL     OW25178   6.261   4.694   0.107  0.2753 -0.2392 -0.0903
 8122SOL    HW125179   6.235   4.744   0.030  1.0226  0.0552 -0.1556
 8122SOL    HW225180   6.328   4.748   0.149 -0.1336 -0.3893  0.7711
 8123SOL     OW25181   2.832   6.453   4.205  0.6276 -0.1390 -0.1174
 8123SOL    HW125182   2.790   6.391   4.146  1.2837 -0.1383 -0.5906
 8123SOL    HW225183   2.889   6.399   4.261 -1.2017 -0.3355  1.6059
 8124SOL     OW25184   2.457   2.185   4.511  0.3716  0.8778  0.0341
 8124SOL    HW125185   2.414   2.181   4.425 -0.8970  0.9568  0.6623
 8124SOL    HW225186   2.549   2.169   4.491 -0.2989 -2.0742 -1.0419
 8125SOL     OW25187   7.958   6.033   1.632 -0.8073  0.3016  0.7670
 8125SOL    HW125188   8.007   5.966   1.680 -1.5337 -1.1294 -0.4216
 8125SOL    HW225189   7.906   5.983   1.569 -1.1988  2.0188 -0.2942
 8126SOL     OW25190   4.325   6.128   7.745  0.1954  0.0078  0.0720
 8126SOL    HW125191   4.306   6.206   7.693 -0.1630  0.7617  1.3059
 8126SOL    HW225192   4.287   6.147   7.831 -0.7408 -1.9443  0.1010
 8127SOL     OW25193   0.670   2.142   6.445 -0.3411 -1.1253  0.6303
 8127SOL    HW125194   0.735   2.212   6.458 -0.4705 -0.1008 -3.5230
 8127SOL    HW225195   0.590   2.176   6.485 -0.0851  0.6458 -0.2976
 8128SOL     OW25196   2.025   1.111   3.832 -0.1476  0.0542  0.9766
 8128SOL    HW125197   1.992   1.197   3.860 -0.3535 -0.1216  1.2862
 8128SOL    HW225198   2.097   1.131   3.773  0.3628  0.4390  1.7148
 8129SOL     OW25199   6.597   5.941   5.016 -0.0525 -0.0483  0.2630
 8129SOL    HW125200   6.504   5.920   5.027  0.1366 -1.0323 -0.0332
 8129SOL    HW225201   6.599   6.036   5.011 -0.7559  0.1774  3.2448
 8130SOL     OW25202   3.536   0.055   7.408  0.1263  0.1954 -0.1518
 8130SOL    HW125203   3.567   0.036   7.497  1.8680  2.6610 -0.1852
 8130SOL    HW225204   3.461  -0.004   7.396  0.2911 -0.6760  2.6833
 8131SOL     OW25205   0.665   0.676   5.929  0.0611  0.5310 -0.6422
 8131SOL    HW125206   0.674   0.770   5.916 -0.4093  0.9668  2.0469
 8131SOL    HW225207   0.753   0.641   5.920  0.8337  1.7220  2.1132
 8132SOL     OW25208   5.873   0.044   3.388  0.1350  0.2184  0.7084
 8132SOL    HW125209   5.899   0.114   3.329 -1.3081  0.8319  0.7661
 8132SOL    HW225210   5.798   0.003   3.345 -0.0370 -0.2497  1.4359
 8133SOL     OW25211   0.726   2.162   2.836 -0.3551 -1.1133 -0.4288
 8133SOL    HW125212   0.679   2.152   2.753 -1.1402 -0.7168 -0.0363
 8133SOL    HW225213   0.720   2.255   2.857 -1.9175 -1.5228  1.0742
 8134SOL     OW25214   5.951   1.005   7.983 -0.4546  0.2981  0.2057
 8134SOL    HW125215   5.929   0.990   7.891  2.6557  2.1000 -0.9261
 8134SOL    HW225216   5.872   1.044   8.020 -0.7016  2.6619 -2.5775
 8135SOL     OW25217   0.884   6.354   4.781  0.0713  0.3123  0.0169
 8135SOL    HW125218   0.865   6.277   4.834 -0.0893 -0.1565 -0.7155
 8135SOL    HW225219   0.866   6.326   4.691  0.1824  1.1487 -0.2676
 8136SOL     OW25220   0.889   2.811   1.595  1.0428 -0.1622  0.7685
 8136SOL    HW125221   0.802   2.790   1.562  1.0996 -1.0770  1.1982
 8136SOL    HW225222   0.947   2.798   1.520  0.9859 -0.8576  0.8464
 8137SOL     OW25223   4.693   6.870   1.198  0.3048 -0.2776  0.7430
 8137SOL    HW125224   4.662   6.869   1.289 -0.2781  1.9716  0.5953
 8137SOL    HW225225   4.779   6.913   1.203 -0.4350  1.3090  0.0333
 8138SOL     OW25226   6.825   0.360   7.502 -0.2693 -0.7415  0.4700
 8138SOL    HW125227   6.836   0.443   7.455  0.0035  0.3472  2.3938
 8138SOL    HW225228   6.877   0.297   7.453  0.3141  0.4562 -0.4659
 8139SOL     OW25229   4.439   1.407   0.883  0.1374 -0.2646 -0.4948
 8139SOL    HW125230   4.506   1.446   0.939  0.2120 -3.0509  1.4546
 8139SOL    HW225231   4.357   1.447   0.913  0.3534 -0.6118  0.5694
 8140SOL     OW25232   0.861   5.288   6.701  0.3055  0.0536 -0.2398
 8140SOL    HW125233   0.873   5.287   6.606 -0.6101 -0.1593 -0.3611
 8140SOL    HW225234   0.865   5.196   6.726  0.4842  0.1054 -0.0811
 8141SOL     OW25235   0.523   6.453   2.399 -0.1470  0.1990  0.8474
 8141SOL    HW125236   0.607   6.453   2.353 -0.5894  0.9032  0.0076
 8141SOL    HW225237   0.539   6.402   2.479  0.8387 -0.4208  0.2738
 8142SOL     OW25238   2.775   1.903   5.812  0.3121 -0.0686  0.6026
 8142SOL    HW125239   2.690   1.936   5.785  0.2615 -0.8591 -0.2640
 8142SOL    HW225240   2.767   1.887   5.906 -0.2993  0.4473  0.6368
 8143SOL     OW25241   1.232   4.241   1.091  0.1174  0.2830  0.2548
 8143SOL    HW125242   1.176   4.222   1.016  0.8269  1.4287 -0.5652
 8143SOL    HW225243   1.287   4.314   1.063  1.0586  0.0895  1.5458
 8144SOL     OW25244   2.823   3.955   3.495  0.0062  0.1562 -0.2196
 8144SOL    HW125245   2.906   3.996   3.469 -0.0399 -0.9099 -2.1388
 8144SOL    HW225246   2.845   3.901   3.570  0.8532  0.6539 -0.1058
 8145SOL     OW25247   1.252   0.149   4.568  0.7517 -0.3364 -0.1401
 8145SOL    HW125248   1.344   0.160   4.590  0.9253 -2.3110  0.1626
 8145SOL    HW225249   1.240   0.055   4.557 -1.7306 -0.3911  2.2074
 8146SOL     OW25250   6.825   6.405   3.596 -0.3488 -0.2509 -0.5207
 8146SOL    HW125251   6.756   6.349   3.632  0.8606 -1.7029 -0.4485
 8146SOL    HW225252   6.833   6.379   3.505  0.9734 -0.9705 -0.2099
 8147SOL     OW25253   2.064   6.006   6.921 -0.7093  0.2783 -0.0346
 8147SOL    HW125254   2.126   5.935   6.934 -1.8286 -0.8557 -0.7158
 8147SOL    HW225255   2.115   6.086   6.933  0.7540 -0.6321 -0.0988
 8148SOL     OW25256   5.564   7.571   0.139 -0.1563  0.3214  0.2550
 8148SOL    HW125257   5.615   7.586   0.219  1.1023  0.1738 -0.5249
 8148SOL    HW225258   5.473   7.580   0.168  0.3069  0.9696  1.5645
 8149SOL     OW25259   6.723   7.916   6.657 -0.3888 -0.2311  0.5483
 8149SOL    HW125260   6.782   7.877   6.721 -1.8480 -0.9680  1.4743
 8149SOL    HW225261   6.775   7.923   6.577  1.1549 -0.2106  1.5334
 8150SOL     OW25262   0.956   0.461   7.733 -0.1193  0.2659  0.2316
 8150SOL    HW125263   0.905   0.439   7.655  0.1703 -1.5510  0.5134
 8150SOL    HW225264   0.891   0.473   7.802 -0.4306  2.7844 -0.4743
 8151SOL     OW25265   6.083   5.037   7.061  0.2779  0.7293 -0.1318
 8151SOL    HW125266   5.995   5.002   7.042  0.6787 -0.8558  0.8939
 8151SOL    HW225267   6.140   4.993   6.998  0.6245  0.2978  0.4776
 8152SOL     OW25268   5.655   2.240   7.134  0.3314 -0.2149 -0.4478
 8152SOL    HW125269   5.562   2.254   7.151  0.3113 -1.3841  0.4578
 8152SOL    HW225270   5.679   2.311   7.074 -1.1900 -0.0318 -0.8774
 8153SOL     OW25271   3.562   4.852   6.629  1.2397  0.0571  0.3775
 8153SOL    HW125272   3.592   4.808   6.549 -0.2204 -0.0629 -0.1084
 8153SOL    HW225273   3.555   4.944   6.604 -2.6170 -0.4524 -0.6885
 8154SOL     OW25274   2.895   4.262   4.035 -0.1897  0.2845 -0.1745
 8154SOL    HW125275   2.816   4.209   4.022 -0.3141  0.5938 -0.7234
 8154SOL    HW225276   2.967   4.199   4.026 -0.2748  0.4182 -2.2052
 8155SOL     OW25277   4.606   7.956   1.964  0.4186  0.1139  0.1983
 8155SOL    HW125278   4.630   7.940   2.055  2.9653  1.7557 -0.1498
 8155SOL    HW225279   4.650   7.886   1.915  0.9271  0.5774 -0.0059
 8156SOL     OW25280   1.188   2.657   2.894 -0.0548  0.2265 -0.1119
 8156SOL    HW125281   1.134   2.597   2.843  2.3140 -1.0330 -1.2136
 8156SOL    HW225282   1.270   2.610   2.908  0.8036  2.1110  1.4820
 8157SOL     OW25283   6.651   0.447   2.666  0.8259  0.0747 -0.1369
 8157SOL    HW125284   6.600   0.527   2.657  1.8669  0.4992 -2.8597
 8157SOL    HW225285   6.595   0.378   2.630  0.9465  0.0211 -0.2226
 8158SOL     OW25286   2.626   7.139   0.534  0.0747  0.4505  0.6319
 8158SOL    HW125287   2.591   7.088   0.608 -1.8850 -0.2038 -0.7027
 8158SOL    HW225288   2.695   7.193   0.573  1.9323 -2.8708  2.1988
 8159SOL     OW25289   0.200   7.366   6.043 -0.1040 -0.7728 -0.1821
 8159SOL    HW125290   0.112   7.346   6.075 -0.0079 -0.4837  0.2715
 8159SOL    HW225291   0.188   7.383   5.950 -1.0428  2.3749  0.4455
 8160SOL     OW25292   4.223   2.932   2.081  0.0646 -0.2973 -0.0168
 8160SOL    HW125293   4.274   2.976   2.150  0.4902 -1.3917  0.3751
 8160SOL    HW225294   4.139   2.977   2.082  0.3206  0.1902  0.7094
 8161SOL     OW25295   6.264   0.599   5.108 -0.0134 -0.2992  0.7165
 8161SOL    HW125296   6.181   0.556   5.128 -0.0385 -0.1573  0.9174
 8161SOL    HW225297   6.271   0.669   5.173 -0.0898  0.1621  0.2236
 8162SOL     OW25298   3.469   5.828   3.226 -0.4671  0.2718 -0.2963
 8162SOL    HW125299   3.517   5.904   3.191  0.4152  0.2691  0.8797
 8162SOL    HW225300   3.457   5.847   3.318 -2.4961  0.1137 -0.5224
 8163SOL     OW25301   3.274   4.198   2.271  0.6797 -0.0296  0.3683
 8163SOL    HW125302   3.188   4.229   2.299  0.3510  1.5846 -2.2625
 8163SOL    HW225303   3.330   4.210   2.348 -0.5395  2.7172  0.8852
 8164SOL     OW25304   3.103   4.386   3.409  0.3732  0.1422 -0.1758
 8164SOL    HW125305   3.141   4.362   3.494 -0.0827 -0.7395 -0.2136
 8164SOL    HW225306   3.179   4.406   3.354  0.9044 -3.0372 -0.6877
 8165SOL     OW25307   0.010   4.977   0.286  0.7616  0.3340 -0.3696
 8165SOL    HW125308   0.041   4.971   0.196  1.1329  0.7895 -0.2724
 8165SOL    HW225309  -0.086   4.976   0.279  0.7716  2.0296 -0.8901
 8166SOL     OW25310   4.168   4.254   6.068 -0.2627  0.4530 -0.1348
 8166SOL    HW125311   4.078   4.287   6.072 -0.5978 -0.4970  0.3318
 8166SOL    HW225312   4.163   4.166   6.106  0.6414 -0.0772 -1.2111
 8167SOL     OW25313   6.911   0.558   5.959 -0.0941  0.5116  0.3522
 8167SOL    HW125314   6.982   0.538   6.019  0.2147 -0.0271 -0.1850
 8167SOL    HW225315   6.935   0.642   5.920  1.1674 -0.5103 -1.1624
 8168SOL     OW25316   3.970   1.108   6.899  0.1604  0.3376  0.0842
 8168SOL    HW125317   3.882   1.083   6.869  0.6053 -1.4149  0.1728
 8168SOL    HW225318   3.988   1.190   6.855 -1.0363  0.0860 -0.8948
 8169SOL     OW25319   6.138   3.831   5.776 -0.4222 -0.3125 -0.0240
 8169SOL    HW125320   6.119   3.868   5.862  1.7369 -0.4180  0.5490
 8169SOL    HW225321   6.178   3.904   5.727  0.5232 -0.8746 -0.1112
 8170SOL     OW25322   4.251   5.997   1.992 -0.6699  0.8594 -0.2568
 8170SOL    HW125323   4.298   6.068   2.036 -0.0086 -0.2597  0.8859
 8170SOL    HW225324   4.305   5.976   1.917 -0.0533  0.5060  0.2829
 8171SOL     OW25325   7.008   3.832   5.023  0.5382 -0.1149 -0.2061
 8171SOL    HW125326   6.917   3.806   5.036  0.7154  0.1193  1.5730
 8171SOL    HW225327   7.058   3.752   5.037  0.8117  0.3764  1.6580
 8172SOL     OW25328   1.694   7.603   7.860 -0.2915  0.1932 -0.2829
 8172SOL    HW125329   1.786   7.587   7.883 -0.0864  0.7373 -0.7227
 8172SOL    HW225330   1.645   7.571   7.936  0.1677 -1.5312 -0.6858
 8173SOL     OW25331   7.097   4.960   2.513 -0.6533 -0.5273 -0.0023
 8173SOL    HW125332   7.103   5.048   2.550  2.9755 -1.3847  1.6860
 8173SOL    HW225333   7.093   4.902   2.590  1.7691 -2.0830 -1.0034
 8174SOL     OW25334   3.986   5.720   0.852  0.2370  0.1961 -0.2172
 8174SOL    HW125335   3.905   5.759   0.817  0.1183  0.4765  0.3533
 8174SOL    HW225336   4.035   5.794   0.887 -0.4063 -0.2381  1.7172
 8175SOL     OW25337   2.888   0.250   2.635  0.5414 -0.1028  0.5084
 8175SOL    HW125338   2.830   0.214   2.567  0.7696  0.8564 -0.2073
 8175SOL    HW225339   2.948   0.178   2.654 -0.0110 -0.6484  0.2577
 8176SOL     OW25340   4.107   3.962   5.441 -0.2182  0.1413  0.1663
 8176SOL    HW125341   4.109   3.990   5.532 -1.7952 -0.9553  0.5625
 8176SOL    HW225342   4.052   4.028   5.397  1.0439  1.0136 -0.1334
 8177SOL     OW25343   0.033   7.036   3.421  0.2770 -0.3206 -0.1080
 8177SOL    HW125344   0.036   7.077   3.507  2.5976 -0.2140 -0.1908
 8177SOL    HW225345  -0.047   6.985   3.421  0.0339  0.0211  1.9656
 8178SOL     OW25346   0.279   3.921   3.294 -0.7053  0.7273 -0.4390
 8178SOL    HW125347   0.197   3.882   3.263 -0.7505  0.9690 -0.6259
 8178SOL    HW225348   0.322   3.851   3.343 -1.3293  0.7892  0.2027
 8179SOL     OW25349   1.219   6.103   2.971 -0.1453  0.1106  0.7736
 8179SOL    HW125350   1.286   6.054   3.019 -1.6112 -1.1189  1.6140
 8179SOL    HW225351   1.139   6.052   2.983 -0.9001  0.7024 -1.5691
 8180SOL     OW25352   2.689   7.171   3.334  0.2103  0.3119 -0.1559
 8180SOL    HW125353   2.724   7.260   3.343  0.3225  0.1105  1.3653
 8180SOL    HW225354   2.765   7.114   3.345 -0.3376 -0.0728  1.6969
 8181SOL     OW25355   0.519   6.499   3.474 -0.1360 -0.0018 -0.2661
 8181SOL    HW125356   0.513   6.509   3.569 -0.5220  0.4408 -0.3336
 8181SOL    HW225357   0.602   6.453   3.459 -0.3771 -0.6373  0.3235
 8182SOL     OW25358   2.078   7.256   1.404 -0.2935 -0.1970  0.7957
 8182SOL    HW125359   2.099   7.270   1.312  0.5015 -0.7091  0.8925
 8182SOL    HW225360   2.008   7.319   1.423  0.2478  0.6309  0.1110
 8183SOL     OW25361   6.675   2.578   1.466 -0.5955  0.0227 -0.6814
 8183SOL    HW125362   6.685   2.485   1.447 -1.2981 -0.2886  0.4183
 8183SOL    HW225363   6.585   2.598   1.440 -0.1890  0.6002 -1.6924
 8184SOL     OW25364   6.170   7.525   4.013 -0.3482 -0.1315  0.0138
 8184SOL    HW125365   6.111   7.462   4.055 -0.1697 -1.0030 -1.0087
 8184SOL    HW225366   6.230   7.552   4.083 -0.1152 -1.4845  0.3649
 8185SOL     OW25367   6.809   7.908   2.972 -0.2943 -0.4257  0.0390
 8185SOL    HW125368   6.892   7.876   3.007 -1.3677 -0.6298  2.4863
 8185SOL    HW225369   6.833   7.983   2.917  1.4473 -0.0393  1.3098
 8186SOL     OW25370   2.343   1.953   6.293  0.2947 -0.1022 -0.5974
 8186SOL    HW125371   2.404   1.890   6.331 -0.6797  0.0787  1.3153
 8186SOL    HW225372   2.377   2.039   6.321 -0.0289  0.0626 -0.7058
 8187SOL     OW25373   4.030   0.659   7.002 -0.0706  0.0876 -0.0352
 8187SOL    HW125374   4.032   0.754   7.017  2.4800  0.1120 -0.3350
 8187SOL    HW225375   4.021   0.622   7.090  2.7138  0.5530  0.5101
 8188SOL     OW25376   5.057   7.238   6.139 -0.3005  0.0550 -0.5316
 8188SOL    HW125377   4.965   7.263   6.132 -0.2686  0.2631 -0.1891
 8188SOL    HW225378   5.077   7.247   6.232  0.0322 -0.1117 -0.5883
 8189SOL     OW25379   2.724   6.175   2.635  0.6674  0.4740  0.2412
 8189SOL    HW125380   2.703   6.256   2.589  0.8989  1.1072  1.2356
 8189SOL    HW225381   2.807   6.146   2.597  1.1539  1.3029  0.6597
 8190SOL     OW25382   2.941   6.270   5.018  0.5049  0.7566 -0.3059
 8190SOL    HW125383   2.902   6.220   4.947  0.4288  0.7018 -0.2257
 8190SOL    HW225384   2.902   6.233   5.098 -0.2396  1.5645 -0.2920
 8191SOL     OW25385   6.616   3.764   6.908  0.1386  0.1175  0.4849
 8191SOL    HW125386   6.613   3.771   7.004 -0.3040 -1.2501  0.5734
 8191SOL    HW225387   6.706   3.738   6.889  0.0307 -0.3125  0.5706
 8192SOL     OW25388   7.245   4.068   0.688  0.5261  0.1514  0.3289
 8192SOL    HW125389   7.210   4.131   0.625 -0.2133 -0.3483  0.2433
 8192SOL    HW225390   7.185   4.071   0.762 -0.1875 -1.3182 -0.1763
 8193SOL     OW25391   3.401   5.373   6.611  0.3264 -0.0440 -0.5319
 8193SOL    HW125392   3.360   5.286   6.614  0.3073 -0.0746 -1.4146
 8193SOL    HW225393   3.474   5.367   6.672  0.2349 -0.6352 -0.4762
 8194SOL     OW25394   0.394   6.176   5.749  0.5640  0.1062 -0.2892
 8194SOL    HW125395   0.305   6.141   5.739  0.4216  0.4144 -0.1418
 8194SOL    HW225396   0.442   6.142   5.674  0.4123 -0.3485 -0.1799
 8195SOL     OW25397   2.963   4.387   0.895 -0.0727 -0.6498 -0.4579
 8195SOL    HW125398   2.965   4.304   0.944 -1.6278 -1.0312 -0.9946
 8195SOL    HW225399   3.009   4.367   0.814  0.5115 -0.6792 -0.1197
 8196SOL     OW25400   5.439   2.042   0.261  0.3903 -0.3662  0.3413
 8196SOL    HW125401   5.488   2.116   0.297 -0.3963  1.2498 -1.7799
 8196SOL    HW225402   5.504   1.973   0.250  2.0738  1.4130 -1.5007
 8197SOL     OW25403   2.183   5.210   1.486 -0.1211  0.0737  0.1284
 8197SOL    HW125404   2.165   5.250   1.571  0.0901  1.7970 -0.6020
 8197SOL    HW225405   2.163   5.117   1.497  0.8765  0.1129  2.3313
 8198SOL     OW25406   1.196   2.841   4.062 -0.1929 -0.2721 -0.0898
 8198SOL    HW125407   1.179   2.915   4.120  2.3281  0.4425 -0.2095
 8198SOL    HW225408   1.204   2.881   3.975  1.4199 -0.6214 -0.1182
 8199SOL     OW25409   5.569   0.931   4.430 -0.6369 -0.5911  0.0858
 8199SOL    HW125410   5.533   0.993   4.366 -0.7305 -1.6736 -0.9168
 8199SOL    HW225411   5.612   0.864   4.378  1.7538 -0.0201  1.2452
 8200SOL     OW25412   1.498   4.989   2.513  0.8976 -0.0080  0.2255
 8200SOL    HW125413   1.475   5.041   2.590  0.9308 -1.5826  1.3270
 8200SOL    HW225414   1.529   4.905   2.549 -1.9022 -1.8945 -1.5629
 8201SOL     OW25415   1.081   6.374   6.885  0.2249 -0.1471  0.5089
 8201SOL    HW125416   1.008   6.317   6.908  0.4311 -0.6136  0.0080
 8201SOL    HW225417   1.096   6.359   6.792 -0.9916  2.1537 -0.1115
 8202SOL     OW25418   0.962   6.251   7.175 -0.1085  0.4126  0.1485
 8202SOL    HW125419   0.914   6.333   7.186  0.9067  1.2265 -1.3098
 8202SOL    HW225420   0.968   6.214   7.263 -0.7102  1.8231  0.7863
 8203SOL     OW25421   4.863   2.311   2.958 -0.3006  0.2459 -0.2694
 8203SOL    HW125422   4.767   2.305   2.959 -0.3839  1.2424 -1.6599
 8203SOL    HW225423   4.881   2.405   2.954  0.7297  0.0187 -1.2185
 8204SOL     OW25424   6.849   7.388   7.621 -0.3621  0.6690 -0.3496
 8204SOL    HW125425   6.857   7.470   7.574 -1.0224  0.5803 -0.6268
 8204SOL    HW225426   6.755   7.378   7.636 -0.2630  0.1117 -0.0627
 8205SOL     OW25427   0.577   5.182   6.776 -0.2379  0.8953 -0.1662
 8205SOL    HW125428   0.617   5.227   6.701 -0.8547 -0.9456 -1.6370
 8205SOL    HW225429   0.591   5.089   6.759 -1.6526  0.3845  1.2996
 8206SOL     OW25430   3.102   3.823   2.198  0.1275 -0.2407  0.1623
 8206SOL    HW125431   3.012   3.852   2.183 -0.4829 -0.8912  2.3627
 8206SOL    HW225432   3.114   3.828   2.293  1.8929 -1.6634  0.0559
 8207SOL     OW25433   4.701   1.849   4.874  0.4373 -0.5573  0.0402
 8207SOL    HW125434   4.712   1.938   4.839 -0.2106 -0.3408  0.3668
 8207SOL    HW225435   4.787   1.825   4.906  1.0256 -0.7149 -1.6063
 8208SOL     OW25436   6.506   3.290   2.483 -0.0553 -0.4841  0.8874
 8208SOL    HW125437   6.443   3.312   2.551  0.4650  2.2216  0.5519
 8208SOL    HW225438   6.512   3.369   2.430  1.9057 -1.4863 -0.4293
 8209SOL     OW25439   5.392   3.977   1.506  0.1164  0.1886  0.1120
 8209SOL    HW125440   5.406   3.919   1.581 -0.0752  0.5154  0.4014
 8209SOL    HW225441   5.372   3.918   1.434 -3.6065  0.0361  1.1733
 8210SOL     OW25442   6.058   2.541   2.561  0.5987  0.3999  0.0127
 8210SOL    HW125443   5.987   2.569   2.619  0.5142 -0.7653  0.5008
 8210SOL    HW225444   6.136   2.582   2.598  0.2032  1.5473 -0.4240
 8211SOL     OW25445   0.805   7.168   1.869  0.1179  0.0952 -0.1631
 8211SOL    HW125446   0.807   7.262   1.887  0.2904 -0.2163  1.5411
 8211SOL    HW225447   0.836   7.127   1.950  0.5831 -1.4121 -1.0789
 8212SOL     OW25448   3.343   1.649   2.418  0.2722  0.3968  0.0012
 8212SOL    HW125449   3.399   1.712   2.464  2.1245 -0.2303 -1.3284
 8212SOL    HW225450   3.396   1.570   2.411 -1.5326 -0.8785  0.4488
 8213SOL     OW25451   7.688   2.314   6.382  0.0259  0.1603  0.2071
 8213SOL    HW125452   7.662   2.391   6.331  0.8043  0.5675  0.4217
 8213SOL    HW225453   7.783   2.314   6.378  0.0022 -1.2468 -0.4374
 8214SOL     OW25454   2.565   7.698   7.950  0.1440  0.1346 -0.3767
 8214SOL    HW125455   2.494   7.716   7.889 -0.6822  2.0130  1.0953
 8214SOL    HW225456   2.555   7.605   7.972 -1.8875  0.3993 -0.1543
 8215SOL     OW25457   6.134   5.684   7.842 -0.1221  0.6351 -0.2107
 8215SOL    HW125458   6.171   5.772   7.842  0.9761  0.1938  1.3778
 8215SOL    HW225459   6.039   5.698   7.842  0.0485  1.8220 -0.2776
 8216SOL     OW25460   7.006   3.673   6.610  0.0168  0.7608 -0.0817
 8216SOL    HW125461   7.061   3.698   6.536  1.1147  1.0906  0.8318
 8216SOL    HW225462   7.046   3.593   6.644 -0.9289  0.1871 -0.3006
 8217SOL     OW25463   2.799   7.787   1.752  0.1698  0.3953  0.1641
 8217SOL    HW125464   2.851   7.734   1.692  2.6247  0.8317  1.7797
 8217SOL    HW225465   2.858   7.858   1.778 -2.5659  3.1511 -0.8835
 8218SOL     OW25466   7.436   1.907   6.446  0.4114 -0.4158 -0.1665
 8218SOL    HW125467   7.462   1.998   6.455 -1.6244 -0.0094  1.9600
 8218SOL    HW225468   7.488   1.860   6.512 -0.9273 -0.2653  1.0231
 8219SOL     OW25469   1.137   7.155   2.886  0.5584  0.2656 -0.0233
 8219SOL    HW125470   1.129   7.062   2.909 -0.3756  0.2276 -0.4877
 8219SOL    HW225471   1.080   7.200   2.948 -0.7263  0.3124 -1.2144
 8220SOL     OW25472   2.657   6.358   1.793  0.6403 -0.2166  0.6315
 8220SOL    HW125473   2.734   6.304   1.812  0.7811  0.0539  0.8384
 8220SOL    HW225474   2.688   6.448   1.805  0.6107 -0.0596 -0.4346
 8221SOL     OW25475   7.341   4.184   1.286  0.1034 -0.4491 -0.4998
 8221SOL    HW125476   7.318   4.169   1.195 -0.9536  0.8689 -0.4660
 8221SOL    HW225477   7.436   4.196   1.286  0.2626 -1.6744 -1.2458
 8222SOL     OW25478   2.094   6.094   0.414  0.1549 -0.0130  0.1705
 8222SOL    HW125479   2.164   6.159   0.410  0.8633 -0.8480 -1.1545
 8222SOL    HW225480   2.139   6.010   0.415 -0.8393 -0.5677 -0.9285
 8223SOL     OW25481   0.460   2.745   0.196 -0.5899 -0.4913  0.5706
 8223SOL    HW125482   0.454   2.725   0.290  0.0806 -0.0039  0.7201
 8223SOL    HW225483   0.551   2.725   0.173  0.0806  2.2376  0.6972
 8224SOL     OW25484   7.385   6.264   4.054  0.5387  0.3197 -0.5419
 8224SOL    HW125485   7.297   6.263   4.092  0.8408 -2.7022  0.1619
 8224SOL    HW225486   7.443   6.266   4.130  1.1146  1.9642 -1.0045
 8225SOL     OW25487   4.821   2.075   5.258 -0.1946 -0.1853  0.0999
 8225SOL    HW125488   4.816   2.015   5.332 -1.2511  1.2252  1.2009
 8225SOL    HW225489   4.870   2.150   5.291  1.3738 -0.5317 -1.3453
 8226SOL     OW25490   3.110   7.188   2.083 -0.3473  0.3407  0.1190
 8226SOL    HW125491   3.182   7.128   2.103 -1.6542 -0.8053  1.5219
 8226SOL    HW225492   3.121   7.260   2.145  0.1135  0.6207 -0.2839
 8227SOL     OW25493   3.666   0.342   3.931  0.2234  0.2755  0.0590
 8227SOL    HW125494   3.676   0.413   3.868  1.5408 -0.1939 -0.2849
 8227SOL    HW225495   3.619   0.274   3.884  1.3478 -0.1397 -0.4991
 8228SOL     OW25496   3.990   7.034   6.928  0.2923  0.1686  0.7591
 8228SOL    HW125497   3.943   7.095   6.871 -0.7976 -1.1332  0.2211
 8228SOL    HW225498   3.954   7.050   7.016  1.0513  1.2875  0.8688
 8229SOL     OW25499   4.635   6.611   6.618 -0.1325 -0.1892 -0.6709
 8229SOL    HW125500   4.548   6.650   6.634  0.7467  1.8731 -0.8077
 8229SOL    HW225501   4.616   6.520   6.593 -2.1051 -0.6987  2.3685
 8230SOL     OW25502   0.155   6.108   0.727 -0.1337  0.0361  0.1018
 8230SOL    HW125503   0.221   6.079   0.664  2.3603  0.9330  2.1850
 8230SOL    HW225504   0.170   6.053   0.804 -2.1218 -0.0270  0.4524
 8231SOL     OW25505   2.237   2.098   7.178 -0.1694  0.3075  0.3109
 8231SOL    HW125506   2.203   2.091   7.267  0.5030  1.9458  0.7048
 8231SOL    HW225507   2.160   2.118   7.125 -0.3782  0.5382  0.6991
 8232SOL     OW25508   5.742   1.782   3.707 -0.2698 -0.5642 -0.1920
 8232SOL    HW125509   5.728   1.872   3.678  0.8108 -0.4194 -0.3114
 8232SOL    HW225510   5.764   1.790   3.799 -0.5431 -0.7374 -0.1129
 8233SOL     OW25511   0.965   0.639   6.333 -0.5698 -0.2306 -0.3977
 8233SOL    HW125512   1.041   0.642   6.392 -0.2467  1.0714 -0.8738
 8233SOL    HW225513   0.977   0.558   6.284 -0.1803 -0.6984  0.4415
 8234SOL     OW25514   0.475   3.177   1.938 -0.0032  0.3525  0.2533
 8234SOL    HW125515   0.384   3.155   1.917 -0.0038 -0.3655  0.9765
 8234SOL    HW225516   0.527   3.131   1.873 -0.0423 -1.2642  1.3266
 8235SOL     OW25517   5.876   7.395   1.099 -0.2722  0.6078 -0.0269
 8235SOL    HW125518   5.928   7.321   1.129  0.2901  2.4679  3.9580
 8235SOL    HW225519   5.935   7.445   1.043  1.0418  0.6505  1.3476
 8236SOL     OW25520   7.194   3.600   7.014 -0.3870  0.4375  0.2623
 8236SOL    HW125521   7.198   3.669   7.081  0.9029  2.2573 -1.6124
 8236SOL    HW225522   7.140   3.638   6.944  1.1142 -0.0729 -1.1960
 8237SOL     OW25523   4.958   4.974   4.996  0.2095 -0.0730  0.1261
 8237SOL    HW125524   4.977   5.039   5.063 -0.5699 -2.7809  3.0858
 8237SOL    HW225525   5.037   4.972   4.941  2.2582 -0.1357  2.9620
 8238SOL     OW25526   3.312   7.884   7.421  0.3574  0.4239 -0.3727
 8238SOL    HW125527   3.272   7.824   7.358 -0.2253 -0.3773  0.7302
 8238SOL    HW225528   3.255   7.880   7.498  2.9499 -1.4181  1.5682
 8239SOL     OW25529   6.978   2.860   1.394 -0.3035 -0.0082 -0.1660
 8239SOL    HW125530   6.895   2.872   1.440  0.0273  1.2271  0.1326
 8239SOL    HW225531   7.032   2.809   1.455 -1.3538 -2.1832 -0.9946
 8240SOL     OW25532   0.473   7.936   7.914  0.4263  0.2602  0.5304
 8240SOL    HW125533   0.547   7.953   7.856 -0.7146  0.2807 -0.9697
 8240SOL    HW225534   0.436   7.853   7.881 -2.8080  2.4234 -1.5696
 8241SOL     OW25535   7.150   4.484   2.471 -0.1677 -0.3417 -0.4448
 8241SOL    HW125536   7.096   4.480   2.550 -1.5098 -2.4626 -1.4143
 8241SOL    HW225537   7.206   4.407   2.476  1.0915  0.5530 -0.6275
 8242SOL     OW25538   2.623   4.576   7.257 -0.6466 -0.2866  0.5637
 8242SOL    HW125539   2.669   4.502   7.298 -0.2326 -1.6779 -2.3265
 8242SOL    HW225540   2.542   4.538   7.222 -1.7005  1.1844  1.3475
 8243SOL     OW25541   2.842   7.203   6.404  0.2866  0.2462  0.0397
 8243SOL    HW125542   2.751   7.181   6.424 -0.2016 -1.7164 -3.7746
 8243SOL    HW225543   2.893   7.133   6.446  0.0529  1.1755  1.9206
 8244SOL     OW25544   4.501   3.443   0.083  0.1294  0.2913  0.6157
 8244SOL    HW125545   4.465   3.468   0.168 -1.4385 -0.0763  0.0790
 8244SOL    HW225546   4.424   3.439   0.025  1.1870  0.6061 -0.8279
 8245SOL     OW25547   2.202   4.142   5.752 -0.5098  0.1790  0.4207
 8245SOL    HW125548   2.195   4.047   5.741  0.4791 -0.1892  2.7223
 8245SOL    HW225549   2.278   4.167   5.701 -0.2269 -0.4131  0.5470
 8246SOL     OW25550   0.240   6.124   7.435  0.1213  0.2772 -0.0298
 8246SOL    HW125551   0.154   6.153   7.403 -0.0013 -0.4354 -0.3381
 8246SOL    HW225552   0.270   6.197   7.490  1.5088  2.6812 -3.7993
 8247SOL     OW25553   1.217   2.997   0.874  0.0244  0.5620 -0.2751
 8247SOL    HW125554   1.224   2.908   0.839 -0.9864  1.3065 -2.4000
 8247SOL    HW225555   1.124   3.017   0.870 -0.1664  0.6162  3.0392
 8248SOL     OW25556   5.994   6.733   7.683 -0.0446 -0.0744 -0.7336
 8248SOL    HW125557   6.047   6.763   7.757 -2.7743  1.5265  0.6184
 8248SOL    HW225558   5.914   6.698   7.722 -1.3634  0.4354 -2.8859
 8249SOL     OW25559   0.759   7.717   4.708  0.3550  0.0790  0.3321
 8249SOL    HW125560   0.712   7.774   4.648 -0.0200  1.2440  1.7026
 8249SOL    HW225561   0.712   7.633   4.705 -0.2157  0.4228 -0.2857
 8250SOL     OW25562   3.000   0.673   6.276 -0.4640  0.2301  0.0445
 8250SOL    HW125563   3.055   0.616   6.222  0.5421  2.5503 -1.4368
 8250SOL    HW225564   2.927   0.617   6.303 -0.2270 -1.3969 -2.5281
 8251SOL     OW25565   0.071   5.439   4.355  0.4577  0.2361  0.4058
 8251SOL    HW125566   0.098   5.388   4.279 -0.3704 -0.6234  0.6816
 8251SOL    HW225567   0.150   5.487   4.381  1.0955 -0.4882 -0.1798
 8252SOL     OW25568   0.058   5.216   3.261  0.9078  0.0673  0.5573
 8252SOL    HW125569   0.092   5.284   3.319  0.1879  1.0212 -0.1458
 8252SOL    HW225570   0.128   5.200   3.198  0.2541  1.7345 -0.6327
 8253SOL     OW25571   7.742   5.573   6.555 -0.0593 -0.2725  0.7971
 8253SOL    HW125572   7.713   5.664   6.562 -2.1781 -0.8630  0.1590
 8253SOL    HW225573   7.833   5.575   6.583  0.4690  2.3446 -0.8907
 8254SOL     OW25574   4.533   6.656   0.819 -0.9979 -0.0607  0.2198
 8254SOL    HW125575   4.518   6.570   0.858 -0.1524 -0.5828 -0.6111
 8254SOL    HW225576   4.614   6.687   0.859  0.3954 -1.0158 -1.8355
 8255SOL     OW25577   4.219   1.531   1.794  0.1270 -0.0229 -0.5543
 8255SOL    HW125578   4.302   1.511   1.838  0.8962  0.2715 -1.8649
 8255SOL    HW225579   4.227   1.622   1.766 -0.6112 -0.0119 -0.7557
 8256SOL     OW25580   2.574   1.990   5.605  0.5037  0.4125 -0.5997
 8256SOL    HW125581   2.542   2.001   5.516 -0.4642  1.7367 -0.0953
 8256SOL    HW225582   2.513   1.928   5.645 -1.1601  2.5080  0.1905
 8257SOL     OW25583   2.039   7.398   5.190  0.4476  1.0901  0.6739
 8257SOL    HW125584   2.090   7.412   5.110  1.4547  1.2387  1.3337
 8257SOL    HW225585   1.954   7.438   5.172  0.3631  0.3332 -0.6485
 8258SOL     OW25586   6.951   1.762   7.290  0.0813 -0.2589 -0.3423
 8258SOL    HW125587   7.033   1.783   7.246  0.4813  0.1652  0.5715
 8258SOL    HW225588   6.976   1.699   7.358 -0.3717 -0.2227 -0.1424
 8259SOL     OW25589   6.911   7.921   0.632  0.1727  0.3318  0.1599
 8259SOL    HW125590   6.850   7.948   0.564 -0.7737 -0.0880  0.8375
 8259SOL    HW225591   6.982   7.986   0.628 -1.2513  1.9554  0.6594
 8260SOL     OW25592   2.986   3.593   5.933  0.0540 -0.0085 -0.0069
 8260SOL    HW125593   3.037   3.544   5.869  2.9154  1.2118  1.2116
 8260SOL    HW225594   3.006   3.551   6.017 -1.2269  0.2988  0.4717
 8261SOL     OW25595   3.745   4.755   1.478  0.1338 -0.2594 -0.6432
 8261SOL    HW125596   3.674   4.816   1.459  0.3071  0.1538  0.0255
 8261SOL    HW225597   3.710   4.698   1.546  0.5468  0.1377 -0.0938
 8262SOL     OW25598   4.279   1.107   2.293  0.6041  0.1274 -0.2119
 8262SOL    HW125599   4.365   1.066   2.309  0.3404 -0.0662  0.7413
 8262SOL    HW225600   4.280   1.127   2.200  1.6767  0.0826 -0.2260
 8263SOL     OW25601   7.872   6.064   2.084  0.6386  0.2964 -0.2543
 8263SOL    HW125602   7.902   5.974   2.097  1.8813  0.6786 -0.4140
 8263SOL    HW225603   7.839   6.066   1.994 -1.7692 -0.6423  0.5751
 8264SOL     OW25604   1.857   0.244   0.263 -0.0236  0.0160 -0.3036
 8264SOL    HW125605   1.806   0.263   0.184  0.7997 -1.3649 -1.1876
 8264SOL    HW225606   1.791   0.228   0.330 -0.7480  0.2190 -0.9527
 8265SOL     OW25607   3.434   7.295   1.751  0.1477 -0.4105  0.0364
 8265SOL    HW125608   3.484   7.335   1.680  1.7788 -0.5284  1.0873
 8265SOL    HW225609   3.364   7.357   1.769  1.5209  1.0820  0.3561
 8266SOL     OW25610   6.328   1.999   7.868 -0.4792  0.0251 -0.3461
 8266SOL    HW125611   6.360   1.978   7.781 -0.0564  1.1884 -0.4837
 8266SOL    HW225612   6.263   1.931   7.887  1.5107 -1.9450 -0.3517
 8267SOL     OW25613   2.797   6.335   3.570 -0.2241  0.4944  0.0956
 8267SOL    HW125614   2.764   6.264   3.516  0.1568 -0.8850  1.6348
 8267SOL    HW225615   2.720   6.386   3.594 -0.4910  0.6357 -1.0358
 8268SOL     OW25616   1.086   2.967   0.509  0.1423 -0.0255 -0.0167
 8268SOL    HW125617   1.024   2.956   0.581  1.3257  3.0831  1.5498
 8268SOL    HW225618   1.146   2.893   0.518 -1.5190 -1.3923  0.2346
 8269SOL     OW25619   0.474   1.776   5.883 -0.2159 -0.4764 -0.1377
 8269SOL    HW125620   0.397   1.800   5.831 -1.0268 -0.4684  1.0462
 8269SOL    HW225621   0.440   1.717   5.950  0.9609 -1.1174 -0.0919
 8270SOL     OW25622   3.755   2.395   6.870  0.3643 -0.0329 -0.0412
 8270SOL    HW125623   3.659   2.385   6.866  0.3980 -0.8181  0.9700
 8270SOL    HW225624   3.769   2.485   6.897 -0.1253 -0.4901  1.7832
 8271SOL     OW25625   0.632   5.862   3.824 -0.3879  0.1123 -0.6672
 8271SOL    HW125626   0.566   5.892   3.887 -0.9865 -1.3610 -0.5895
 8271SOL    HW225627   0.689   5.805   3.875 -0.4749 -0.5391 -1.3012
 8272SOL     OW25628   5.840   5.196   0.336 -0.3966 -0.3496  0.6256
 8272SOL    HW125629   5.869   5.203   0.245  0.3771 -1.9374  0.7290
 8272SOL    HW225630   5.910   5.147   0.380  0.6726  2.9478  2.7755
 8273SOL     OW25631   3.668   5.721   0.365 -0.1154  0.4721  0.2446
 8273SOL    HW125632   3.716   5.646   0.400 -0.3787  0.5868  0.8611
 8273SOL    HW225633   3.737   5.783   0.340  0.0843  0.3445  0.4677
 8274SOL     OW25634   1.058   6.046   3.323  0.1115  0.7062 -0.0603
 8274SOL    HW125635   1.016   6.031   3.238  1.0711 -0.1887 -0.3936
 8274SOL    HW225636   1.044   5.964   3.371  1.4319  0.3983 -0.1746
 8275SOL     OW25637   5.907   3.676   2.756 -0.1808  0.1577 -0.8279
 8275SOL    HW125638   5.854   3.756   2.753 -0.8131 -0.2017  0.6764
 8275SOL    HW225639   5.973   3.693   2.823  0.7304  0.0480 -1.6826
 8276SOL     OW25640   6.762   3.637   0.935 -0.2056  0.0545  0.1430
 8276SOL    HW125641   6.752   3.695   1.011  0.3765 -0.8979  0.9611
 8276SOL    HW225642   6.853   3.609   0.939 -0.7487 -1.7209  0.3425
 8277SOL     OW25643   2.898   5.258   4.734  0.6741 -0.1061 -0.0771
 8277SOL    HW125644   2.814   5.216   4.715  0.8435  0.4521 -2.1492
 8277SOL    HW225645   2.877   5.329   4.794 -0.3347 -0.0645 -0.4770
 8278SOL     OW25646   4.338   6.924   4.302  0.0873 -0.2219 -0.1893
 8278SOL    HW125647   4.306   6.877   4.379  0.0169  1.3878  0.8012
 8278SOL    HW225648   4.260   6.962   4.263  0.2892  0.1277 -0.2522
 8279SOL     OW25649   5.757   7.261   5.485 -0.3825 -0.5200  0.0182
 8279SOL    HW125650   5.749   7.242   5.578 -0.9193 -0.3190  0.0140
 8279SOL    HW225651   5.819   7.333   5.480 -1.0297  0.0648  0.2869
 8280SOL     OW25652   6.505   1.822   2.785  0.0546  0.0872 -0.2325
 8280SOL    HW125653   6.522   1.859   2.698  0.2497  2.4260  0.7556
 8280SOL    HW225654   6.412   1.836   2.799  0.0219 -0.3018 -0.0625
 8281SOL     OW25655   3.854   1.461   3.336 -0.7651  0.1282  0.0687
 8281SOL    HW125656   3.944   1.481   3.361 -0.6397 -1.0228  0.5458
 8281SOL    HW225657   3.828   1.534   3.279  0.1789  0.8869  0.6013
 8282SOL     OW25658   6.778   5.631   3.552  0.4774 -0.6400  0.0598
 8282SOL    HW125659   6.868   5.611   3.578  1.0824  0.5204 -1.0475
 8282SOL    HW225660   6.723   5.586   3.616  1.8671 -0.2745  1.5358
 8283SOL     OW25661   7.638   6.295   6.811  0.6165 -0.0581  0.0401
 8283SOL    HW125662   7.616   6.209   6.775  0.3230  0.2190 -0.4493
 8283SOL    HW225663   7.721   6.318   6.771  0.8644 -0.2601  0.4312
 8284SOL     OW25664   3.349   0.571   4.800  0.3346 -0.6555  0.5343
 8284SOL    HW125665   3.337   0.484   4.761  1.8843  0.2129 -2.0687
 8284SOL    HW225666   3.261   0.606   4.809 -0.1181 -1.1445 -1.7416
 8285SOL     OW25667   4.316   3.191   1.087  0.5788 -0.4671 -0.1018
 8285SOL    HW125668   4.410   3.185   1.105  0.7061 -2.4254 -1.2162
 8285SOL    HW225669   4.275   3.141   1.157  0.4152 -0.2423 -0.0358
 8286SOL     OW25670   3.257   1.819   4.905  0.5012  0.1931 -0.5425
 8286SOL    HW125671   3.303   1.816   4.989 -1.6437  1.0245  0.7170
 8286SOL    HW225672   3.327   1.817   4.839  2.2013 -0.9332  1.2378
 8287SOL     OW25673   5.637   6.317   2.694  0.7056 -0.1910  0.2009
 8287SOL    HW125674   5.669   6.291   2.780  1.0428 -1.1467 -0.2068
 8287SOL    HW225675   5.705   6.376   2.660  0.1999  0.8048  0.9028
 8288SOL     OW25676   3.913   6.962   3.400 -0.1459 -0.7437  0.4607
 8288SOL    HW125677   3.825   6.925   3.408 -0.8638  0.8694  0.3359
 8288SOL    HW225678   3.946   6.965   3.490  0.0071 -1.8503  0.4493
 8289SOL     OW25679   1.116   3.239   3.369 -0.0467  0.1205  0.4544
 8289SOL    HW125680   1.157   3.255   3.284 -0.5293  1.4043  0.4434
 8289SOL    HW225681   1.158   3.159   3.402 -0.0787 -0.5556 -1.1171
 8290SOL     OW25682   4.348   5.952   2.681  0.4271  0.6005 -0.4495
 8290SOL    HW125683   4.331   6.001   2.761  2.7064  0.5868  0.0649
 8290SOL    HW225684   4.401   6.011   2.627  0.4381 -0.0653 -1.1747
 8291SOL     OW25685   7.599   6.045   6.700  0.2358  0.1645  0.0063
 8291SOL    HW125686   7.650   6.014   6.625 -1.6264  1.8938 -2.0367
 8291SOL    HW225687   7.531   5.979   6.711 -0.3777  0.6669 -0.7712
 8292SOL     OW25688   1.543   6.169   6.521  0.5542 -0.0082  0.3643
 8292SOL    HW125689   1.525   6.191   6.612 -3.3549  1.7262 -0.7034
 8292SOL    HW225690   1.549   6.073   6.520 -0.6865 -0.1255  2.2493
 8293SOL     OW25691   5.889   1.361   1.815 -0.5138  0.6799  0.1218
 8293SOL    HW125692   5.878   1.306   1.892 -0.7178  0.5165 -0.0210
 8293SOL    HW225693   5.932   1.304   1.751 -1.5349  0.4139 -0.3288
 8294SOL     OW25694   5.571   6.337   0.306 -0.0985 -0.2061  0.2780
 8294SOL    HW125695   5.520   6.418   0.310 -0.4049 -0.3370 -0.6870
 8294SOL    HW225696   5.513   6.276   0.260  1.1451 -0.1946 -1.3210
 8295SOL     OW25697   0.678   4.396   2.891 -0.2092  0.4085  0.6167
 8295SOL    HW125698   0.651   4.336   2.821  0.7623 -1.6106  1.9054
 8295SOL    HW225699   0.609   4.462   2.895 -2.0388 -1.4301  0.0955
 8296SOL     OW25700   4.747   5.019   7.373  0.1858 -0.2515 -0.4685
 8296SOL    HW125701   4.761   5.098   7.425 -1.3113  0.6887 -1.4357
 8296SOL    HW225702   4.744   5.050   7.283 -0.1877 -1.4390 -0.8730
 8297SOL     OW25703   6.014   2.224   4.634 -0.1478 -0.1776  0.3544
 8297SOL    HW125704   6.092   2.263   4.673 -0.0715 -0.6459  0.6747
 8297SOL    HW225705   5.984   2.289   4.570  0.9731 -0.3543 -0.3645
 8298SOL     OW25706   3.728   2.124   3.379 -0.2800 -0.6686 -0.6465
 8298SOL    HW125707   3.670   2.054   3.350 -0.6076 -0.5243 -0.3399
 8298SOL    HW225708   3.672   2.183   3.429  0.0114 -0.2188 -0.8544
 8299SOL     OW25709   6.847   3.237   1.203 -0.5101 -0.0059  0.3282
 8299SOL    HW125710   6.766   3.256   1.154  0.2927 -0.5347 -1.2326
 8299SOL    HW225711   6.819   3.233   1.294 -2.0773  0.8357 -0.0928
 8300SOL     OW25712   0.683   0.327   1.276 -0.1407 -0.4657  0.0742
 8300SOL    HW125713   0.655   0.418   1.275 -2.8725 -1.2821 -1.5605
 8300SOL    HW225714   0.603   0.277   1.289  1.2461 -2.6712  0.4496
 8301SOL     OW25715   0.799   7.410   7.491 -0.3444 -0.0706  0.0527
 8301SOL    HW125716   0.712   7.422   7.455 -0.0440  1.1829 -0.2897
 8301SOL    HW225717   0.817   7.317   7.480 -0.9081 -0.0046 -1.5551
 8302SOL     OW25718   3.877   6.176   1.577  0.7051 -0.4526 -0.6851
 8302SOL    HW125719   3.888   6.086   1.606 -1.1777 -0.9102 -1.3315
 8302SOL    HW225720   3.966   6.210   1.571  1.4144 -2.1429 -0.0723
 8303SOL     OW25721   6.584   4.647   4.325 -0.4167 -0.6101  0.0772
 8303SOL    HW125722   6.570   4.622   4.417  0.5720  0.0872  0.4220
 8303SOL    HW225723   6.651   4.715   4.329 -1.1867  0.2247 -1.0721
 8304SOL     OW25724   6.390   3.624   7.772  0.0650  0.5806  0.1313
 8304SOL    HW125725   6.379   3.719   7.766  2.3419  0.9359  0.9577
 8304SOL    HW225726   6.480   3.612   7.803  0.3700 -1.8890 -1.5665
 8305SOL     OW25727   0.657   7.962   5.652 -1.0116 -0.7558 -0.2399
 8305SOL    HW125728   0.694   8.018   5.584 -0.3814  0.7514  1.3152
 8305SOL    HW225729   0.678   7.873   5.624  0.7392 -0.0745 -1.1385
 8306SOL     OW25730   3.091   1.649   4.126 -0.4033 -0.4622  0.6975
 8306SOL    HW125731   3.142   1.649   4.207  0.2013  0.1988  0.3272
 8306SOL    HW225732   3.011   1.603   4.148  0.1242 -1.0338  1.4455
 8307SOL     OW25733   1.439   1.191   7.036  0.0102 -0.2285  0.5847
 8307SOL    HW125734   1.508   1.245   6.996 -0.4477 -0.5301 -0.6416
 8307SOL    HW225735   1.363   1.204   6.979 -1.0208  0.2784  2.0624
 8308SOL     OW25736   4.411   1.063   6.844 -0.4970 -0.2478  0.5465
 8308SOL    HW125737   4.401   1.154   6.871  1.6393  0.1952 -0.0246
 8308SOL    HW225738   4.439   1.068   6.753 -1.0380 -1.5055  0.3019
 8309SOL     OW25739   1.989   1.436   4.239 -0.2500  0.2210 -0.4718
 8309SOL    HW125740   1.959   1.458   4.327 -0.9384  1.3154 -0.9630
 8309SOL    HW225741   2.076   1.399   4.251 -0.8810 -0.8632  0.7855
 8310SOL     OW25742   3.713   2.074   0.807  0.3000  0.3512  0.4237
 8310SOL    HW125743   3.720   2.010   0.736  2.0115 -1.1357  1.8849
 8310SOL    HW225744   3.637   2.046   0.858 -1.1102  1.5907 -0.9321
 8311SOL     OW25745   0.179   1.169   4.451 -0.0228 -0.1194 -0.0086
 8311SOL    HW125746   0.106   1.226   4.473 -1.0611 -1.8112  1.0427
 8311SOL    HW225747   0.139   1.083   4.436  1.9996 -1.7697  3.4333
 8312SOL     OW25748   2.315   0.384   3.691  0.6365 -0.3832  0.5640
 8312SOL    HW125749   2.244   0.448   3.676  1.4824  0.2504 -0.9036
 8312SOL    HW225750   2.273   0.299   3.679  0.1003 -0.0077 -0.3362
 8313SOL     OW25751   4.075   5.162   2.974 -0.1259 -0.3560 -0.4141
 8313SOL    HW125752   4.065   5.124   3.061 -1.8816  0.0036 -0.4395
 8313SOL    HW225753   4.052   5.254   2.985 -0.0194 -0.2353 -1.1785
 8314SOL     OW25754   3.628   1.417   3.474  0.2594 -0.4148 -0.3854
 8314SOL    HW125755   3.578   1.492   3.442  0.9102  0.4215  0.5083
 8314SOL    HW225756   3.710   1.419   3.425  0.0916 -0.8155 -0.6845
 8315SOL     OW25757   5.141   1.027   4.016 -0.6903  0.5251  0.3134
 8315SOL    HW125758   5.047   1.048   4.012 -0.1308  3.5139  1.9254
 8315SOL    HW225759   5.185   1.110   4.001  1.7149 -0.4106  1.9763
 8316SOL     OW25760   1.301   0.398   0.340 -0.3051 -0.0447 -0.2988
 8316SOL    HW125761   1.207   0.387   0.352 -0.3230 -0.0942 -0.4853
 8316SOL    HW225762   1.318   0.488   0.366 -0.4486  0.0514 -0.5338
 8317SOL     OW25763   2.738   2.623   6.127 -0.5170 -0.0277 -0.6809
 8317SOL    HW125764   2.656   2.666   6.100 -0.4408 -0.7336 -2.0891
 8317SOL    HW225765   2.802   2.694   6.130 -0.6752  0.1711 -1.7782
 8318SOL     OW25766   6.151   0.914   1.338  0.2220 -0.0967  0.9597
 8318SOL    HW125767   6.237   0.954   1.355  0.8144 -1.3368  0.9296
 8318SOL    HW225768   6.099   0.985   1.299  2.0971 -0.0714 -1.6125
 8319SOL     OW25769   7.759   4.229   7.307  0.9528  0.2412  0.0974
 8319SOL    HW125770   7.738   4.136   7.296  1.5561  0.0164  0.7874
 8319SOL    HW225771   7.691   4.262   7.366  0.7588  0.2216 -0.1189
 8320SOL     OW25772   6.827   5.799   7.777 -0.4566 -0.1426 -0.6963
 8320SOL    HW125773   6.775   5.827   7.853  0.0417 -0.4007 -0.2518
 8320SOL    HW225774   6.916   5.825   7.799 -0.2079 -0.8164 -0.8963
 8321SOL     OW25775   5.867   6.935   4.821  0.9433  0.6342  0.7032
 8321SOL    HW125776   5.903   6.873   4.758  0.1440  1.4114 -0.5552
 8321SOL    HW225777   5.892   6.901   4.907 -0.8259 -2.2992  0.1118
 8322SOL     OW25778   3.516   0.152   3.822 -0.4612 -0.4639 -0.1822
 8322SOL    HW125779   3.445   0.203   3.861 -1.4679 -2.3649  0.5367
 8322SOL    HW225780   3.497   0.151   3.729 -0.2609  0.6986 -0.2502
 8323SOL     OW25781   3.435   2.669   3.328  0.0439 -0.2317 -0.1957
 8323SOL    HW125782   3.485   2.690   3.250 -1.9278 -1.3001 -1.8092
 8323SOL    HW225783   3.479   2.715   3.399  0.0143  3.3959 -2.4179
 8324SOL     OW25784   7.643   7.035   7.462  0.4236  0.0234 -0.1994
 8324SOL    HW125785   7.651   6.959   7.405  0.8878 -0.1771  0.1323
 8324SOL    HW225786   7.726   7.038   7.510  0.8890  1.4021 -1.0404
 8325SOL     OW25787   7.981   0.554   6.629  0.4131 -0.5649  0.4840
 8325SOL    HW125788   8.026   0.612   6.568  1.0035 -1.7410 -0.2211
 8325SOL    HW225789   8.032   0.473   6.627  0.5082 -0.5917  2.6122
 8326SOL     OW25790   7.706   0.551   6.647  0.3072 -0.6832 -0.0537
 8326SOL    HW125791   7.802   0.552   6.656  0.2691 -0.7742  0.3422
 8326SOL    HW225792   7.681   0.643   6.649  0.4521 -0.6155 -0.8769
 8327SOL     OW25793   5.682   6.017   0.964  0.7503  0.3976 -0.1494
 8327SOL    HW125794   5.773   6.025   0.995 -0.1223  2.4773  2.0044
 8327SOL    HW225795   5.632   5.995   1.042 -0.7432  0.1840 -1.1511
 8328SOL     OW25796   2.261   6.639   5.024  0.3015 -0.6015 -0.0847
 8328SOL    HW125797   2.346   6.605   5.053  0.1299 -0.9848 -0.0194
 8328SOL    HW225798   2.202   6.622   5.097  0.1188 -0.5381 -0.2172
 8329SOL     OW25799   0.318   4.575   4.910 -0.4960 -0.4992 -0.1513
 8329SOL    HW125800   0.330   4.668   4.891  0.5784 -0.8655 -1.3619
 8329SOL    HW225801   0.377   4.559   4.984 -1.1470 -0.0995  0.4680
 8330SOL     OW25802   0.286   0.048   6.104  0.3384  0.0549 -0.2535
 8330SOL    HW125803   0.200   0.006   6.105  0.2790  0.1133 -1.7272
 8330SOL    HW225804   0.268   0.141   6.096  0.5356 -0.0116 -1.6585
 8331SOL     OW25805   3.746   3.564   7.010 -0.6242  0.6064 -0.1206
 8331SOL    HW125806   3.758   3.589   7.101 -0.6975  0.0425  0.0435
 8331SOL    HW225807   3.653   3.578   6.993 -0.1576  2.9879 -0.7963
 8332SOL     OW25808   4.386   1.135   5.600 -0.0430  0.0990  0.9011
 8332SOL    HW125809   4.371   1.165   5.510  1.3836 -0.4770  0.4667
 8332SOL    HW225810   4.317   1.070   5.615  0.4322 -0.6604 -0.1768
 8333SOL     OW25811   6.653   1.520   0.561  0.1418  0.0102  0.1904
 8333SOL    HW125812   6.637   1.426   0.562 -1.5226  0.2528 -1.7529
 8333SOL    HW225813   6.575   1.558   0.600 -0.2054  0.7117 -1.1788
 8334SOL     OW25814   2.683   6.069   6.924 -0.0541  0.2916 -0.0985
 8334SOL    HW125815   2.608   6.129   6.916 -0.5138  0.1217  2.6819
 8334SOL    HW225816   2.746   6.116   6.978  1.2300 -0.1991 -1.1539
 8335SOL     OW25817   0.797   7.151   3.341  0.1139  0.0898 -0.0193
 8335SOL    HW125818   0.805   7.058   3.362  0.9756  0.2651  0.4705
 8335SOL    HW225819   0.864   7.193   3.396 -1.7585  1.2449  1.4428
 8336SOL     OW25820   6.457   0.994   4.978 -0.5295  0.7567 -0.1496
 8336SOL    HW125821   6.501   0.976   5.062 -0.9328  1.4239  0.2049
 8336SOL    HW225822   6.452   0.908   4.936 -2.0515  0.0565  1.3508
 8337SOL     OW25823   7.073   3.091   7.324 -0.1777  0.1312 -0.5009
 8337SOL    HW125824   6.989   3.048   7.334 -0.2092  0.2625 -0.1729
 8337SOL    HW225825   7.131   3.023   7.290 -0.5679  0.2140 -1.3438
 8338SOL     OW25826   4.628   1.996   6.689  0.1633 -0.0009 -0.5066
 8338SOL    HW125827   4.583   2.065   6.641  0.3429  0.1143 -0.5091
 8338SOL    HW225828   4.672   1.944   6.622 -0.0711 -0.1886 -0.5140
 8339SOL     OW25829   5.651   2.717   0.886 -0.2341  0.4527  0.1396
 8339SOL    HW125830   5.746   2.720   0.884 -0.1349 -2.3349 -1.5716
 8339SOL    HW225831   5.629   2.724   0.979  1.6760  0.1251  0.6285
 8340SOL     OW25832   1.568   7.928   0.951  0.5976  0.0180  0.3557
 8340SOL    HW125833   1.607   7.846   0.980 -0.4793 -0.4014  0.6454
 8340SOL    HW225834   1.560   7.919   0.856  0.5022 -0.1932  0.3851
 8341SOL     OW25835   3.732   6.577   1.374 -0.0662 -0.5662  0.1946
 8341SOL    HW125836   3.725   6.667   1.405 -0.7084 -0.0511 -1.3588
 8341SOL    HW225837   3.673   6.528   1.431  0.4707 -0.0541  1.2088
 8342SOL     OW25838   4.292   0.711   0.825 -0.3041  0.5001 -0.5779
 8342SOL    HW125839   4.293   0.805   0.840  0.6700  0.3386  0.4427
 8342SOL    HW225840   4.207   0.693   0.784 -0.6844  1.7453 -0.3284
 8343SOL     OW25841   6.805   3.347   2.700  0.3458  0.5434 -0.2898
 8343SOL    HW125842   6.726   3.370   2.748  0.0391  0.4328 -0.7398
 8343SOL    HW225843   6.805   3.404   2.623 -1.0721 -1.7786 -2.0737
 8344SOL     OW25844   1.162   0.246   6.459  0.1961 -0.1960  0.2071
 8344SOL    HW125845   1.250   0.281   6.474 -0.5811  1.2423  1.5722
 8344SOL    HW225846   1.134   0.214   6.544 -0.9592  0.2242 -0.0104
 8345SOL     OW25847   0.305   0.790   4.056 -0.1884 -0.1897  0.3417
 8345SOL    HW125848   0.324   0.711   4.106  0.7133 -0.5525 -0.5392
 8345SOL    HW225849   0.391   0.821   4.027 -0.6370  0.3787 -0.3987
 8346SOL     OW25850   0.375   0.032   2.361  0.2426  0.4248 -0.0708
 8346SOL    HW125851   0.301   0.020   2.421 -0.6176  3.0096 -0.5594
 8346SOL    HW225852   0.436  -0.038   2.384 -1.4492 -0.4956  1.7386
 8347SOL     OW25853   3.315   5.955   4.883 -0.1512 -0.8004  0.0920
 8347SOL    HW125854   3.256   5.934   4.811  1.0620 -0.7887 -0.9386
 8347SOL    HW225855   3.378   5.883   4.883 -0.0127 -0.6907  1.0143
 8348SOL     OW25856   0.324   2.236   6.018 -0.0624  0.6585 -0.3139
 8348SOL    HW125857   0.369   2.152   6.029 -0.1657  0.6162 -0.2091
 8348SOL    HW225858   0.330   2.277   6.104  0.1351  0.8328 -0.4075
 8349SOL     OW25859   7.033   1.151   1.504 -0.2604  0.1705  0.3770
 8349SOL    HW125860   7.029   1.058   1.524 -1.9972  0.0250 -0.5165
 8349SOL    HW225861   7.054   1.193   1.587 -2.6104 -0.8029  1.5148
 8350SOL     OW25862   5.120   0.005   3.090 -0.2951 -0.3919 -0.5522
 8350SOL    HW125863   5.094   0.072   3.154  1.9163 -0.3423  0.3307
 8350SOL    HW225864   5.038  -0.021   3.048 -1.1787  3.0234 -1.0824
 8351SOL     OW25865   1.337   3.833   2.785  0.7250  0.0896 -0.2276
 8351SOL    HW125866   1.295   3.789   2.711  2.0321 -0.0898 -0.8822
 8351SOL    HW225867   1.431   3.827   2.766  0.9642  2.9135 -0.2076
 8352SOL     OW25868   7.088   1.638   6.587 -0.7345  0.0698  0.0428
 8352SOL    HW125869   7.139   1.587   6.650  1.2311  0.4774 -1.1776
 8352SOL    HW225870   7.021   1.681   6.641  1.5403  1.2492  2.0848
 8353SOL     OW25871   0.399   5.346   7.329 -0.1274 -0.0380  0.5533
 8353SOL    HW125872   0.483   5.366   7.287 -0.2821  1.0111  0.7532
 8353SOL    HW225873   0.418   5.347   7.423 -0.5858  1.1825  0.6319
 8354SOL     OW25874   2.108   4.658   7.606  0.3757  0.2800 -0.2878
 8354SOL    HW125875   2.067   4.698   7.683  0.3407 -0.4239  0.0604
 8354SOL    HW225876   2.130   4.569   7.634  5.3094  1.6499  0.6507
 8355SOL     OW25877   5.278   5.437   6.911 -0.3304 -0.3028 -0.0350
 8355SOL    HW125878   5.206   5.449   6.973 -1.0501 -0.3895 -0.8462
 8355SOL    HW225879   5.356   5.464   6.960 -1.1242  1.5197  0.2762
 8356SOL     OW25880   0.760   7.035   2.770  0.6688  0.0299  0.3830
 8356SOL    HW125881   0.814   6.961   2.796  1.0253  0.5876  1.2619
 8356SOL    HW225882   0.820   7.094   2.724  0.1469 -0.7234 -1.2919
 8357SOL     OW25883   0.199   2.829   1.786  0.4163 -0.1864  0.0133
 8357SOL    HW125884   0.167   2.866   1.867 -1.3142  0.0621 -0.7632
 8357SOL    HW225885   0.131   2.769   1.758  0.4435  0.5917 -1.8366
 8358SOL     OW25886   1.259   1.500   2.892  0.3719 -0.7675  0.0905
 8358SOL    HW125887   1.352   1.474   2.896  0.4476 -0.2984  1.9438
 8358SOL    HW225888   1.222   1.468   2.975 -0.9524 -0.3056 -0.3172
 8359SOL     OW25889   2.094   2.254   6.906  0.4736 -0.1988  0.2515
 8359SOL    HW125890   2.050   2.236   6.823 -0.0823 -2.4387  1.0216
 8359SOL    HW225891   2.064   2.186   6.966  1.3109  1.0493  2.1582
 8360SOL     OW25892   2.264   1.482   6.856 -0.1525 -0.2801  0.3474
 8360SOL    HW125893   2.218   1.501   6.938 -2.4676 -2.1539 -0.4743
 8360SOL    HW225894   2.259   1.564   6.807  0.6135  0.6322  1.7710
 8361SOL     OW25895   2.209   0.862   3.042 -0.3941 -0.8807 -0.2334
 8361SOL    HW125896   2.137   0.881   2.982  0.0604  2.6618  0.2645
 8361SOL    HW225897   2.172   0.798   3.104 -2.1916 -1.2890 -1.6945
 8362SOL     OW25898   0.116   0.574   0.625  0.0391  0.5387 -0.2742
 8362SOL    HW125899   0.032   0.529   0.622  0.4983 -0.2503 -4.3056
 8362SOL    HW225900   0.177   0.510   0.662 -0.7959  0.5254  1.0852
 8363SOL     OW25901   0.718   0.470   0.216  0.2744  0.0202  0.3235
 8363SOL    HW125902   0.753   0.472   0.306 -1.7548  2.6447  1.1286
 8363SOL    HW225903   0.658   0.396   0.215  0.4566 -0.1428  1.0787
 8364SOL     OW25904   6.155   7.512   6.408 -0.3049  0.0491  0.3511
 8364SOL    HW125905   6.225   7.577   6.393  0.7794 -0.6895  2.0309
 8364SOL    HW225906   6.202   7.430   6.423 -1.6306 -0.8819 -0.5667
 8365SOL     OW25907   3.623   4.120   5.150  0.1178  0.7138 -0.8298
 8365SOL    HW125908   3.694   4.105   5.088 -1.2340 -1.9892 -1.7904
 8365SOL    HW225909   3.635   4.055   5.219 -1.5407  0.0343 -1.1436
 8366SOL     OW25910   4.841   4.725   5.942 -0.2214 -0.1062  0.3163
 8366SOL    HW125911   4.915   4.776   5.907 -0.6470  0.0985 -0.3000
 8366SOL    HW225912   4.822   4.765   6.026  2.0087 -1.7621  1.6626
 8367SOL     OW25913   2.540   2.619   4.827  0.2117 -0.5277  0.0295
 8367SOL    HW125914   2.507   2.540   4.785 -1.8365 -0.2012  0.9443
 8367SOL    HW225915   2.476   2.639   4.895  1.8922  0.6294  1.3373
 8368SOL     OW25916   4.316   5.280   7.934  0.0547  0.4770  0.1863
 8368SOL    HW125917   4.302   5.209   7.996  0.9400 -0.3169 -0.5054
 8368SOL    HW225918   4.234   5.287   7.886 -0.2587  0.3585  0.7038
 8369SOL     OW25919   2.854   2.376   6.224  0.3555 -0.5368  0.4206
 8369SOL    HW125920   2.792   2.430   6.175  1.3099 -0.3233 -0.5548
 8369SOL    HW225921   2.873   2.428   6.302 -1.3095 -0.9632  1.1493
 8370SOL     OW25922   6.986   7.526   3.226  0.4774  0.0179 -0.2962
 8370SOL    HW125923   7.017   7.523   3.136 -1.0156  1.5182 -0.8776
 8370SOL    HW225924   6.934   7.447   3.236 -0.0363  0.2683 -1.0045
 8371SOL     OW25925   5.619   3.016   7.340  0.2446 -0.3579  0.1853
 8371SOL    HW125926   5.683   3.085   7.330  0.2152 -0.2259  0.9449
 8371SOL    HW225927   5.671   2.937   7.358  0.1958 -0.2699  0.7021
 8372SOL     OW25928   0.908   1.809   3.760 -0.4278  0.0858  0.4931
 8372SOL    HW125929   0.939   1.728   3.800 -0.2215  0.1902  0.5418
 8372SOL    HW225930   0.839   1.781   3.700  2.3196 -0.5727 -2.4844
 8373SOL     OW25931   2.373   3.609   3.307  0.0075 -0.4639 -0.3069
 8373SOL    HW125932   2.333   3.530   3.341 -1.8977  0.9419  0.8191
 8373SOL    HW225933   2.449   3.624   3.364  0.3916 -1.4586 -0.5436
 8374SOL     OW25934   4.244   6.966   6.908  0.0950  0.1980  0.1216
 8374SOL    HW125935   4.279   7.021   6.838 -0.5745 -0.1530 -0.4920
 8374SOL    HW225936   4.151   6.987   6.910  0.0375 -0.1119  0.6188
 8375SOL     OW25937   7.826   6.543   0.110 -0.2028  0.7129  0.1662
 8375SOL    HW125938   7.854   6.451   0.109 -0.1580  0.7179 -1.2754
 8375SOL    HW225939   7.884   6.586   0.172  0.0072 -0.1644  0.5908
 8376SOL     OW25940   0.613   1.366   7.393 -0.2297 -0.0421  0.0411
 8376SOL    HW125941   0.629   1.434   7.328 -3.8873  0.0223 -0.9096
 8376SOL    HW225942   0.569   1.411   7.465 -1.3320 -1.1181  0.0564
 8377SOL     OW25943   7.606   4.331   1.237  0.3249  0.8177  0.5290
 8377SOL    HW125944   7.692   4.315   1.277 -0.7732  0.2226  2.7611
 8377SOL    HW225945   7.597   4.426   1.236  0.9020  0.8741  0.5009
 8378SOL     OW25946   1.314   3.368   2.686  0.3356  0.3204 -0.6411
 8378SOL    HW125947   1.233   3.419   2.693  0.1052  0.0641 -1.4713
 8378SOL    HW225948   1.285   3.278   2.671  0.7715  0.2090 -0.8184
 8379SOL     OW25949   7.968   3.808   4.478  0.5128 -0.4947 -0.5132
 8379SOL    HW125950   7.989   3.869   4.407  1.9044  1.4816  1.5128
 8379SOL    HW225951   8.054   3.780   4.511 -0.0938 -0.4893  1.1037
 8380SOL     OW25952   7.585   6.442   2.782 -0.5180  0.2302 -0.3969
 8380SOL    HW125953   7.504   6.429   2.831 -0.2071 -0.4691 -0.0643
 8380SOL    HW225954   7.580   6.381   2.709 -0.9674  1.2547 -1.2375
 8381SOL     OW25955   7.400   5.173   3.433 -0.0676 -0.5402 -0.3412
 8381SOL    HW125956   7.378   5.226   3.356 -0.3889  0.4741  0.4301
 8381SOL    HW225957   7.391   5.083   3.403 -1.8803 -0.1691 -1.0163
 8382SOL     OW25958   3.962   7.440   3.630  0.5372  0.1325 -0.1323
 8382SOL    HW125959   3.991   7.499   3.560 -0.9353  1.2948  0.2017
 8382SOL    HW225960   3.933   7.361   3.584  0.5018  0.5064 -0.7590
 8383SOL     OW25961   3.598   7.318   2.237  0.0526 -0.2423  0.3389
 8383SOL    HW125962   3.647   7.308   2.319 -1.1499 -0.0256  1.1004
 8383SOL    HW225963   3.660   7.358   2.176 -0.0761  3.0589  2.2398
 8384SOL     OW25964   4.726   6.825   6.977 -0.3023 -0.0418  0.3291
 8384SOL    HW125965   4.761   6.800   7.063 -1.6105 -1.1301  0.5837
 8384SOL    HW225966   4.668   6.899   6.996 -0.0159  0.1932  0.2790
 8385SOL     OW25967   2.002   3.164   7.265 -0.3966  0.5505 -0.3702
 8385SOL    HW125968   2.024   3.233   7.328 -0.7386  0.4229 -0.1158
 8385SOL    HW225969   1.926   3.198   7.218  0.1765  0.8813 -1.0875
 8386SOL     OW25970   7.982   7.420   6.536 -0.3748 -0.3697 -0.2956
 8386SOL    HW125971   7.945   7.459   6.615 -1.4869 -1.1232 -0.4299
 8386SOL    HW225972   7.985   7.326   6.555  0.0753 -0.4717 -0.8522
 8387SOL     OW25973   3.855   1.149   5.747 -0.3588 -0.7965  0.0508
 8387SOL    HW125974   3.930   1.090   5.743  0.0119 -0.3898  0.8911
 8387SOL    HW225975   3.861   1.191   5.832 -1.5244 -0.7208  0.1134
 8388SOL     OW25976   1.179   5.556   2.720 -0.7705  0.5006  0.5111
 8388SOL    HW125977   1.149   5.566   2.810 -0.7986 -3.9160  1.1060
 8388SOL    HW225978   1.273   5.540   2.728 -1.0285 -1.4325 -0.0728
 8389SOL     OW25979   3.203   1.704   4.440  0.3449 -0.6340  0.4894
 8389SOL    HW125980   3.245   1.689   4.525 -1.1943 -0.5706  1.2661
 8389SOL    HW225981   3.112   1.722   4.460  0.3702  1.4128 -1.0392
 8390SOL     OW25982   3.195   2.755   2.322  0.2186  0.3064  0.1512
 8390SOL    HW125983   3.161   2.686   2.378  1.4662  0.5738  1.2489
 8390SOL    HW225984   3.290   2.748   2.328  0.3763  1.0180 -1.0970
 8391SOL     OW25985   4.671   4.229   4.089  0.2987 -0.0378 -0.0734
 8391SOL    HW125986   4.712   4.248   4.173  0.3339  0.5937 -0.2361
 8391SOL    HW225987   4.589   4.279   4.090  0.5739  0.4312 -0.6537
 8392SOL     OW25988   3.489   7.331   3.343 -0.1870  0.0810  0.4834
 8392SOL    HW125989   3.553   7.368   3.403  1.0937 -1.7876  0.3151
 8392SOL    HW225990   3.519   7.241   3.329 -0.5685  0.4347 -2.8235
 8393SOL     OW25991   3.353   1.006   2.941  0.2611 -0.2321 -0.4964
 8393SOL    HW125992   3.265   1.042   2.939 -0.0482 -0.9453  0.2301
 8393SOL    HW225993   3.409   1.080   2.964 -0.2734 -0.0261  0.1306
 8394SOL     OW25994   5.259   2.722   5.571  0.0852  0.1453 -0.2005
 8394SOL    HW125995   5.334   2.662   5.580  2.2527  2.2398 -3.2088
 8394SOL    HW225996   5.299   2.807   5.551 -3.0702  1.7584  0.0542
 8395SOL     OW25997   4.143   5.042   7.740 -0.6179  0.4089  0.1600
 8395SOL    HW125998   4.064   4.993   7.764 -0.9954  1.2959  0.7513
 8395SOL    HW225999   4.133   5.127   7.783 -0.4734  1.4012 -1.7022
 8396SOL     OW26000   1.633   0.411   7.790  0.5031 -0.5434 -0.0560
 8396SOL    HW126001   1.664   0.322   7.771 -2.6230 -1.7572  0.2386
 8396SOL    HW226002   1.579   0.434   7.714  0.6686  0.8137  0.2280
 8397SOL     OW26003   0.284   6.435   4.756 -0.1511 -0.1122 -0.0338
 8397SOL    HW126004   0.326   6.442   4.670  1.1750 -1.7516  0.4330
 8397SOL    HW226005   0.335   6.494   4.812  0.4072 -0.7199  0.1125
 8398SOL     OW26006   3.185   0.823   1.100  0.0230 -0.2415 -0.1671
 8398SOL    HW126007   3.246   0.768   1.149 -0.2372  1.1117  1.7390
 8398SOL    HW226008   3.120   0.849   1.165 -0.5053  1.3545 -1.3131
 8399SOL     OW26009   6.401   7.427   1.247 -0.0613  0.3837 -0.1824
 8399SOL    HW126010   6.336   7.484   1.204  0.4597  1.6580  0.6794
 8399SOL    HW226011   6.410   7.353   1.188 -1.2839  0.8524 -0.9983
 8400SOL     OW26012   6.435   7.761   1.277 -0.1416  0.3807  0.0408
 8400SOL    HW126013   6.513   7.803   1.240  0.0541 -0.0313 -0.0150
 8400SOL    HW226014   6.415   7.690   1.216  0.9392 -1.1175  1.3787
 8401SOL     OW26015   2.655   7.798   6.296  0.1509 -0.4619 -0.0701
 8401SOL    HW126016   2.748   7.779   6.290  0.0060 -1.0416 -0.5433
 8401SOL    HW226017   2.638   7.859   6.224  0.0540 -0.8013 -0.3356
 8402SOL     OW26018   2.679   4.170   2.054 -0.3648  0.2634 -0.1209
 8402SOL    HW126019   2.713   4.161   1.965  1.3158 -0.8770  0.5913
 8402SOL    HW226020   2.639   4.085   2.073  1.8499 -0.5487  1.1930
 8403SOL     OW26021   3.000   4.362   1.914 -0.1962  0.7518 -0.1697
 8403SOL    HW126022   2.949   4.361   1.995  1.7055  1.1215  1.0958
 8403SOL    HW226023   3.008   4.455   1.892  0.3049  0.7337 -0.0864
 8404SOL     OW26024   5.485   7.738   6.198 -0.0264  0.4926  0.1414
 8404SOL    HW126025   5.448   7.650   6.198 -0.1360  0.4300 -4.2795
 8404SOL    HW226026   5.410   7.796   6.186  0.3761  0.9873 -0.0353
 8405SOL     OW26027   2.898   6.606   6.957 -0.2468  0.3676 -0.1402
 8405SOL    HW126028   2.817   6.656   6.973  0.7341  1.6492  0.8850
 8405SOL    HW226029   2.952   6.665   6.904 -0.6277 -1.1262 -2.2333
 8406SOL     OW26030   7.234   0.644   0.244 -0.2515  0.0880 -0.1195
 8406SOL    HW126031   7.150   0.684   0.219  0.2356  0.1271 -1.7261
 8406SOL    HW226032   7.299   0.690   0.191  0.7459 -0.2562  0.7951
 8407SOL     OW26033   6.682   6.220   3.952  0.3491  0.5294  0.0073
 8407SOL    HW126034   6.620   6.253   4.017  0.1228 -0.5951  0.3824
 8407SOL    HW226035   6.755   6.187   4.004  0.0729 -0.5758 -0.2896
 8408SOL     OW26036   6.164   0.844   2.796 -0.4487  0.0898  0.3383
 8408SOL    HW126037   6.245   0.874   2.754 -0.9746  1.6217  0.3918
 8408SOL    HW226038   6.190   0.825   2.886 -0.7200  3.5021  1.2118
 8409SOL     OW26039   2.377   3.862   3.597 -0.1803  0.1392 -0.1240
 8409SOL    HW126040   2.388   3.948   3.555  0.7854  0.3454  0.5281
 8409SOL    HW226041   2.319   3.879   3.671 -1.1542 -0.0518 -0.8355
 8410SOL     OW26042   6.590   5.806   1.969  0.6803 -0.2883 -0.7643
 8410SOL    HW126043   6.680   5.833   1.990  0.6564 -0.7457 -0.0181
 8410SOL    HW226044   6.556   5.773   2.053  0.4578 -1.8672 -1.4556
 8411SOL     OW26045   0.502   5.514   3.997  0.6088  0.5440  0.0575
 8411SOL    HW126046   0.474   5.432   3.956 -0.2973 -0.1351  1.9547
 8411SOL    HW226047   0.424   5.570   3.995  0.6532  0.6257  0.5455
 8412SOL     OW26048   0.888   5.332   3.185  1.0646  0.3249 -0.5353
 8412SOL    HW126049   0.812   5.274   3.188  0.9215  0.5958  1.4714
 8412SOL    HW226050   0.886   5.369   3.097 -0.5754 -0.4151 -0.8264
 8413SOL     OW26051   2.264   5.917   2.218  0.0783  0.4476  0.0851
 8413SOL    HW126052   2.334   5.965   2.175  0.7796 -1.4572 -0.9501
 8413SOL    HW226053   2.306   5.874   2.293  0.0050 -0.6094 -0.4700
 8414SOL     OW26054   6.426   3.561   1.608  0.1603 -0.3210  0.5876
 8414SOL    HW126055   6.425   3.655   1.625 -0.0983 -0.5568  1.9121
 8414SOL    HW226056   6.505   3.547   1.555 -0.0132  0.6861  0.0497
 8415SOL     OW26057   5.880   5.786   7.995 -0.6949 -0.5961  0.1862
 8415SOL    HW126058   5.861   5.823   7.909 -0.2854  2.6482  1.4081
 8415SOL    HW226059   5.820   5.832   8.054  0.9845 -0.6789  2.0143
 8416SOL     OW26060   1.491   2.719   3.418  1.1089  0.1537 -0.0722
 8416SOL    HW126061   1.462   2.739   3.507  0.2210 -0.9660 -0.0982
 8416SOL    HW226062   1.569   2.665   3.429 -0.8081 -2.6568  0.0830
 8417SOL     OW26063   7.195   6.300   3.125  0.0096  0.3661 -0.0523
 8417SOL    HW126064   7.106   6.308   3.089 -0.0249  0.0985 -0.0311
 8417SOL    HW226065   7.218   6.208   3.111  0.0992  0.3218  0.3760
 8418SOL     OW26066   0.097   1.276   1.075 -0.8155 -0.4545 -0.3245
 8418SOL    HW126067   0.170   1.337   1.087  1.3595 -3.3014  1.5393
 8418SOL    HW226068   0.123   1.222   1.001 -1.2841 -1.1042 -0.0197
 8419SOL     OW26069   6.340   1.252   6.709 -0.7345  0.2611  0.2902
 8419SOL    HW126070   6.295   1.181   6.755 -0.1549  0.0644  0.5630
 8419SOL    HW226071   6.433   1.239   6.730 -0.6765  1.3907  0.7582
 8420SOL     OW26072   7.238   1.953   6.702  0.2256 -0.0655 -0.1930
 8420SOL    HW126073   7.239   1.941   6.797 -2.5424 -1.6346 -0.3099
 8420SOL    HW226074   7.251   1.865   6.666 -1.9669 -0.0158 -1.2098
 8421SOL     OW26075   2.462   3.901   0.179 -0.9281 -0.7393  0.4596
 8421SOL    HW126076   2.485   3.883   0.088  2.6174  1.5122  0.8267
 8421SOL    HW226077   2.385   3.959   0.173  0.2662  0.7326 -1.1706
 8422SOL     OW26078   6.877   5.700   3.061  0.8086  0.4112  0.8468
 8422SOL    HW126079   6.864   5.605   3.061 -0.1433  0.5103  2.6092
 8422SOL    HW226080   6.971   5.712   3.075  1.1990 -0.2737 -1.0844
 8423SOL     OW26081   0.659   4.434   3.224  0.5655 -0.6885 -0.0694
 8423SOL    HW126082   0.584   4.398   3.177  0.5356 -1.3357  0.4684
 8423SOL    HW226083   0.654   4.395   3.312  1.6247 -0.8690 -0.0794
 8424SOL     OW26084   3.149   7.941   3.880 -0.1266 -0.3594 -0.3759
 8424SOL    HW126085   3.117   8.028   3.903  0.0736 -0.2292 -0.5904
 8424SOL    HW226086   3.180   7.950   3.790 -1.7781 -1.0864 -1.0441
 8425SOL     OW26087   7.963   2.265   6.002 -0.1567  0.3872 -0.1379
 8425SOL    HW126088   7.975   2.195   6.066 -0.6442  0.0612 -0.3988
 8425SOL    HW226089   7.870   2.261   5.979 -0.3224  1.5021  0.2801
 8426SOL     OW26090   0.012   4.490   0.107 -0.5800 -0.3593  0.2951
 8426SOL    HW126091  -0.077   4.456   0.111 -1.1751  0.9494 -1.2578
 8426SOL    HW226092   0.038   4.478   0.016 -0.6154  2.7757 -0.1900
 8427SOL     OW26093   5.780   7.277   5.170 -0.7687  0.2167  0.2275
 8427SOL    HW126094   5.837   7.302   5.243 -0.9519  0.7509  0.1955
 8427SOL    HW226095   5.830   7.213   5.121  0.3194  1.5980 -0.5027
 8428SOL     OW26096   4.587   3.027   1.430  0.2820  0.8120 -0.4089
 8428SOL    HW126097   4.674   3.006   1.396  1.0107  3.0421 -0.0542
 8428SOL    HW226098   4.589   2.996   1.521  0.2063 -0.3940 -0.8171
 8429SOL     OW26099   5.654   1.255   1.655 -0.7674  0.0309  0.3500
 8429SOL    HW126100   5.727   1.291   1.704 -1.1041 -0.1285  0.9664
 8429SOL    HW226101   5.681   1.165   1.635  0.1819  0.6755 -1.4110
 8430SOL     OW26102   2.690   0.494   5.925 -0.1833  0.6744 -0.0808
 8430SOL    HW126103   2.672   0.442   6.003 -0.0209  1.1469  0.2771
 8430SOL    HW226104   2.645   0.577   5.941 -1.3355  0.2731 -1.1172
 8431SOL     OW26105   6.966   0.319   0.407  0.1165  0.0904  0.1815
 8431SOL    HW126106   7.031   0.373   0.362 -0.3807  0.6519  0.1370
 8431SOL    HW226107   6.882   0.363   0.391 -0.0475  0.3769  1.7916
 8432SOL     OW26108   3.415   7.831   4.902  0.7183  0.4283  0.1065
 8432SOL    HW126109   3.326   7.805   4.926  1.3870 -1.5961  0.5813
 8432SOL    HW226110   3.412   7.847   4.808 -0.0395 -0.1240  0.0379
 8433SOL     OW26111   7.778   7.080   0.856 -0.4545  0.3581  0.4119
 8433SOL    HW126112   7.840   7.142   0.818  0.4831 -0.7004  0.2067
 8433SOL    HW226113   7.815   7.059   0.942 -0.8085  0.1259  0.5086
 8434SOL     OW26114   4.730   5.133   7.079 -0.0195 -0.3024 -0.0042
 8434SOL    HW126115   4.706   5.205   7.021 -0.5499 -0.9525 -0.5879
 8434SOL    HW226116   4.707   5.054   7.031 -4.0119 -0.8179  2.5733
 8435SOL     OW26117   0.766   6.196   2.130  0.0399 -0.1795  0.2677
 8435SOL    HW126118   0.800   6.122   2.081  0.6572 -1.1903  2.1772
 8435SOL    HW226119   0.671   6.193   2.115  0.0622 -1.3332  0.3087
 8436SOL     OW26120   0.754   7.438   0.452 -0.0360  0.7541  0.5641
 8436SOL    HW126121   0.749   7.533   0.440 -2.0452  0.8474  1.8325
 8436SOL    HW226122   0.838   7.423   0.493  1.3457  1.7224 -1.7958
 8437SOL     OW26123   6.624   7.853   7.794  0.4919 -0.0755  0.0385
 8437SOL    HW126124   6.534   7.821   7.798  0.7817 -0.7250  1.5020
 8437SOL    HW226125   6.661   7.811   7.716 -0.0575 -0.8589  0.1960
 8438SOL     OW26126   2.253   0.786   6.585  0.3692  0.1446  0.0110
 8438SOL    HW126127   2.212   0.725   6.524  1.5865  0.5478 -1.2494
 8438SOL    HW226128   2.347   0.770   6.576  0.6652  1.5966  0.2844
 8439SOL     OW26129   6.185   4.190   4.109  0.0316 -0.1359  0.4950
 8439SOL    HW126130   6.214   4.099   4.118  1.1253  0.1726  0.1695
 8439SOL    HW226131   6.254   4.242   4.151  0.8649  0.7229 -1.7997
 8440SOL     OW26132   2.892   3.908   7.549  0.0543 -0.1822 -0.7597
 8440SOL    HW126133   2.921   3.960   7.624 -0.9882  0.3105 -0.6852
 8440SOL    HW226134   2.901   3.817   7.578  0.0846 -0.0033 -0.1979
 8441SOL     OW26135   6.667   1.477   3.650 -0.4498 -0.1970  1.1509
 8441SOL    HW126136   6.740   1.417   3.662  0.0582 -0.0900 -1.2462
 8441SOL    HW226137   6.707   1.561   3.627 -1.2687  0.3709  1.7440
 8442SOL     OW26138   7.769   6.592   6.504  0.3831 -0.1878  0.1478
 8442SOL    HW126139   7.713   6.597   6.427 -1.1283 -1.6756  1.0886
 8442SOL    HW226140   7.724   6.645   6.570  0.5405 -0.6550  0.6409
 8443SOL     OW26141   1.817   4.216   2.404 -0.2035  0.1331 -0.6402
 8443SOL    HW126142   1.797   4.231   2.312  1.2599  0.9630 -0.8454
 8443SOL    HW226143   1.870   4.136   2.404  1.8197  1.4490 -0.7912
 8444SOL     OW26144   7.256   3.915   3.456 -0.2974  1.0066 -0.5514
 8444SOL    HW126145   7.299   3.983   3.507  1.2250 -1.6410  1.8881
 8444SOL    HW226146   7.311   3.904   3.379  0.3103  1.5061 -0.1968
 8445SOL     OW26147   7.639   5.246   0.436 -0.5969  0.1092  0.1816
 8445SOL    HW126148   7.708   5.308   0.456 -1.6314  1.1756  0.5025
 8445SOL    HW226149   7.660   5.169   0.489  0.0608  0.6127  0.6574
 8446SOL     OW26150   6.009   3.545   3.561  0.2441 -0.2969 -0.4060
 8446SOL    HW126151   5.962   3.603   3.620  2.7938  0.4081  0.9887
 8446SOL    HW226152   6.038   3.602   3.490  0.9230 -0.2649 -0.1086
 8447SOL     OW26153   4.407   4.043   7.067  0.1113 -0.4033 -0.0058
 8447SOL    HW126154   4.496   4.009   7.060 -0.2657 -1.5701  0.7925
 8447SOL    HW226155   4.365   3.989   7.134 -1.4785 -0.4704 -1.0215
 8448SOL     OW26156   4.135   0.223   0.451 -0.1126 -0.6959  0.4915
 8448SOL    HW126157   4.227   0.248   0.445 -0.2276 -0.4474 -0.3051
 8448SOL    HW226158   4.129   0.170   0.531  0.7812 -0.9694  0.3799
 8449SOL     OW26159   4.294   7.980   4.303 -0.5996 -0.2696  0.2342
 8449SOL    HW126160   4.266   7.920   4.234 -1.0794  0.9976 -0.6954
 8449SOL    HW226161   4.327   7.923   4.373 -1.2338 -1.6062 -0.5422
 8450SOL     OW26162   1.024   6.569   0.701 -0.0513 -0.4404  0.0218
 8450SOL    HW126163   1.071   6.606   0.776 -0.4081  0.1085 -0.0253
 8450SOL    HW226164   1.002   6.480   0.729  1.9500 -1.0793 -0.3578
 8451SOL     OW26165   0.205   4.439   5.234  0.3531 -0.2213 -0.0833
 8451SOL    HW126166   0.261   4.366   5.260 -1.3775 -1.0253  1.4605
 8451SOL    HW226167   0.265   4.512   5.223  1.3432 -0.0311  5.4233
 8452SOL     OW26168   3.862   3.750   6.415 -0.5338 -0.0879 -0.1946
 8452SOL    HW126169   3.925   3.802   6.365  1.2587 -1.2306  0.8349
 8452SOL    HW226170   3.795   3.813   6.442  1.0268  1.4745  0.1099
 8453SOL     OW26171   7.225   3.309   3.296  1.2904 -0.0738  0.7149
 8453SOL    HW126172   7.238   3.324   3.390  0.5219  0.2315  0.7836
 8453SOL    HW226173   7.130   3.300   3.287  1.3610 -0.0856 -0.0379
 8454SOL     OW26174   0.823   1.945   5.545 -0.1456  0.3595  0.2351
 8454SOL    HW126175   0.800   1.877   5.608 -0.4987  0.6143  0.3837
 8454SOL    HW226176   0.788   1.913   5.462  2.2632 -1.0391 -0.2930
 8455SOL     OW26177   4.343   5.186   2.535 -0.5822 -0.1207 -0.1171
 8455SOL    HW126178   4.293   5.109   2.509  0.2320 -0.5651 -0.3913
 8455SOL    HW226179   4.322   5.198   2.628 -1.4252 -0.1184 -0.3042
 8456SOL     OW26180   7.316   2.167   2.414 -0.5307 -0.0890 -0.1287
 8456SOL    HW126181   7.259   2.100   2.378 -0.0716 -0.8544  0.5580
 8456SOL    HW226182   7.314   2.152   2.508  1.3882 -0.6063 -0.1492
 8457SOL     OW26183   6.482   4.076   4.988 -0.0833 -0.3271 -0.3094
 8457SOL    HW126184   6.550   4.138   5.013 -1.0450  0.0095  1.5152
 8457SOL    HW226185   6.522   3.990   5.001  0.0566 -0.1297  0.5666
 8458SOL     OW26186   6.332   6.327   5.385 -0.3979  0.0069  0.3147
 8458SOL    HW126187   6.317   6.282   5.302 -1.0971  1.2880 -0.2693
 8458SOL    HW226188   6.259   6.388   5.393 -0.2821 -0.0340  1.8357
 8459SOL     OW26189   2.134   6.966   7.893  0.1007 -0.1920 -0.1900
 8459SOL    HW126190   2.119   7.054   7.859  2.0533  0.7315  1.1530
 8459SOL    HW226191   2.048   6.934   7.919 -0.4450  2.0006  0.8042
 8460SOL     OW26192   1.713   4.205   2.142  0.4588 -0.3197  0.1333
 8460SOL    HW126193   1.645   4.264   2.111  0.4958  0.7206  1.9912
 8460SOL    HW226194   1.679   4.117   2.124 -0.8373  0.2157 -0.0283
 8461SOL     OW26195   1.660   6.177   6.105 -0.4149  0.1642  0.1186
 8461SOL    HW126196   1.605   6.108   6.143  0.2418  0.5788  1.8829
 8461SOL    HW226197   1.750   6.148   6.120 -0.1437  0.7569 -0.3339
 8462SOL     OW26198   3.502   3.972   1.021  0.3753 -0.3857  0.1584
 8462SOL    HW126199   3.539   4.031   1.086  1.5724 -0.3720 -0.5216
 8462SOL    HW226200   3.465   3.899   1.072 -0.4606  0.5736  0.9508
 8463SOL     OW26201   4.991   6.002   2.415 -0.2704  0.6346  1.0795
 8463SOL    HW126202   5.079   6.040   2.414 -0.7351  1.8278  2.2489
 8463SOL    HW226203   4.940   6.061   2.360 -1.0233  1.8476  2.9938
 8464SOL     OW26204   5.552   4.882   3.145 -0.1516 -0.3200 -0.1708
 8464SOL    HW126205   5.540   4.868   3.051  1.1915 -1.4483 -0.1810
 8464SOL    HW226206   5.543   4.795   3.183  1.3656 -0.1833  0.5198
 8465SOL     OW26207   0.214   5.741   3.559 -0.1345 -0.1367 -0.2086
 8465SOL    HW126208   0.179   5.664   3.514  0.9116 -1.3267  0.9836
 8465SOL    HW226209   0.308   5.739   3.542 -0.0394  0.6176  0.1939
 8466SOL     OW26210   3.876   1.967   5.045 -0.2933  0.9214 -0.2233
 8466SOL    HW126211   3.913   2.039   5.095  0.8546  0.0374  0.2406
 8466SOL    HW226212   3.783   1.967   5.066  0.4482 -0.6052  3.4404
 8467SOL     OW26213   4.438   2.376   0.648  0.1493  0.0626  0.4159
 8467SOL    HW126214   4.506   2.330   0.599 -0.2095 -0.1716  0.1339
 8467SOL    HW226215   4.365   2.382   0.587 -0.6151 -0.9855  1.2144
 8468SOL     OW26216   6.979   3.118   4.827 -0.0730 -0.4804 -0.6338
 8468SOL    HW126217   6.978   3.079   4.740  0.2425 -3.2690  0.5623
 8468SOL    HW226218   7.022   3.053   4.883  1.5117  2.0763  1.2608
 8469SOL     OW26219   4.439   4.728   0.680  0.1224 -0.3907  0.6427
 8469SOL    HW126220   4.529   4.716   0.650 -1.0738 -1.9812 -2.4776
 8469SOL    HW226221   4.405   4.800   0.627 -1.0975 -1.2111  0.2970
 8470SOL     OW26222   2.691   3.825   7.390 -0.2128 -0.0786  0.2215
 8470SOL    HW126223   2.750   3.852   7.461  3.4124 -2.6606 -1.7058
 8470SOL    HW226224   2.639   3.755   7.428  2.5365 -2.2685  0.0611
 8471SOL     OW26225   2.081   6.673   7.854  0.5179  0.3292 -0.3210
 8471SOL    HW126226   2.090   6.766   7.836  2.1890  0.2400 -0.0284
 8471SOL    HW226227   2.108   6.663   7.945  1.4254 -0.5902 -0.6802
 8472SOL     OW26228   0.710   4.345   5.208 -0.2967  1.1656  0.2311
 8472SOL    HW126229   0.785   4.384   5.253 -0.2686  1.5702 -0.1544
 8472SOL    HW226230   0.740   4.257   5.183 -0.6014  0.6242  1.7157
 8473SOL     OW26231   3.421   7.852   4.570  0.5458 -0.3290 -0.6903
 8473SOL    HW126232   3.501   7.893   4.540  1.6922 -1.4415  0.7822
 8473SOL    HW226233   3.398   7.790   4.500  2.3844 -1.8326 -0.0022
 8474SOL     OW26234   2.991   4.218   5.541  0.1993  0.2587 -0.4614
 8474SOL    HW126235   3.018   4.268   5.464  0.6168 -0.5481 -0.8521
 8474SOL    HW226236   2.959   4.283   5.603  3.1787  1.2483  0.0701
 8475SOL     OW26237   0.414   7.811   0.915  0.8193  0.4304  0.2572
 8475SOL    HW126238   0.468   7.791   0.992  0.8009  0.6921  0.3405
 8475SOL    HW226239   0.324   7.804   0.947  0.8038 -0.1558  0.0789
 8476SOL     OW26240   5.897   0.347   5.689  0.2877  0.4268  0.6107
 8476SOL    HW126241   5.844   0.409   5.640  0.3206 -0.3733 -0.4576
 8476SOL    HW226242   5.855   0.262   5.675  1.4709 -0.1220  0.2596
 8477SOL     OW26243   2.334   5.648   0.199  0.0746 -0.8276  0.0665
 8477SOL    HW126244   2.360   5.567   0.242  1.9763 -0.4662 -0.3591
 8477SOL    HW226245   2.414   5.701   0.196 -0.9643  0.7706 -0.3046
 8478SOL     OW26246   6.602   7.063   1.176  0.3594  0.0408 -0.4824
 8478SOL    HW126247   6.569   7.140   1.129  0.8248  1.0980  0.8736
 8478SOL    HW226248   6.529   7.037   1.232 -0.0835 -1.0259 -1.5348
 8479SOL     OW26249   2.809   1.835   5.499 -0.3864  0.3774 -0.3336
 8479SOL    HW126250   2.754   1.820   5.422 -1.0947  1.6825 -0.0952
 8479SOL    HW226251   2.767   1.909   5.544  1.9255  1.8219 -0.5026
 8480SOL     OW26252   3.063   5.571   2.438  0.2845  0.2854  0.1609
 8480SOL    HW126253   3.052   5.478   2.422 -2.2893  0.6222 -0.1875
 8480SOL    HW226254   2.984   5.612   2.402  2.2583  2.8135 -1.5067
 8481SOL     OW26255   0.574   4.634   3.828  0.0921  0.1402  0.1759
 8481SOL    HW126256   0.667   4.615   3.839  0.0976 -0.1213 -0.3168
 8481SOL    HW226257   0.571   4.716   3.779  0.0633 -0.2568 -0.4915
 8482SOL     OW26258   3.710   3.799   5.659 -0.1597 -0.0469 -0.5781
 8482SOL    HW126259   3.755   3.806   5.575 -0.1650  4.4249 -0.2815
 8482SOL    HW226260   3.637   3.860   5.653 -0.0559  0.5071  2.7360
 8483SOL     OW26261   6.559   6.109   1.837  0.2245 -0.1519  0.6749
 8483SOL    HW126262   6.567   6.103   1.932  2.2169 -0.3887  0.5061
 8483SOL    HW226263   6.596   6.028   1.804 -0.5411 -0.1135 -0.3083
 8484SOL     OW26264   6.166   6.603   6.986  0.4415  0.0114  0.4272
 8484SOL    HW126265   6.134   6.546   7.055 -0.5570  2.6134  2.2219
 8484SOL    HW226266   6.090   6.656   6.961  1.5839  1.3333 -0.3631
 8485SOL     OW26267   2.588   0.444   1.071 -0.4696  0.1688  0.4807
 8485SOL    HW126268   2.597   0.494   1.152  0.5632 -0.4054  0.7186
 8485SOL    HW226269   2.670   0.458   1.025 -0.0479 -1.5774  0.6901
 8486SOL     OW26270   5.519   5.478   4.096 -0.1375  0.2108  0.0177
 8486SOL    HW126271   5.480   5.398   4.060  0.1933  0.9619 -2.0827
 8486SOL    HW226272   5.613   5.463   4.091 -0.0363  1.1583 -1.5119
 8487SOL     OW26273   5.548   1.064   0.205  0.2496  0.4283 -0.6006
 8487SOL    HW126274   5.469   1.118   0.199  0.6979  1.0346 -1.1024
 8487SOL    HW226275   5.516   0.976   0.224 -0.6201  0.4773 -1.7637
 8488SOL     OW26276   1.508   0.857   4.932  0.3767  0.5425 -0.5024
 8488SOL    HW126277   1.530   0.821   4.846 -1.4117  1.4303 -1.3626
 8488SOL    HW226278   1.420   0.823   4.949  0.3230  1.2125  0.5216
 8489SOL     OW26279   5.531   2.083   5.001 -0.6091  0.1733  0.6433
 8489SOL    HW126280   5.473   2.116   5.070 -0.5624 -0.6797  1.0999
 8489SOL    HW226281   5.479   2.015   4.958  0.2634 -1.0316  1.4577
 8490SOL     OW26282   6.562   6.349   4.645 -0.0018 -0.1359 -0.5757
 8490SOL    HW126283   6.595   6.279   4.588 -0.5998 -0.3415 -0.6676
 8490SOL    HW226284   6.631   6.415   4.643  0.7322 -0.8703 -0.2120
 8491SOL     OW26285   4.313   6.128   5.567 -0.7452 -0.6642  0.3287
 8491SOL    HW126286   4.310   6.085   5.482 -0.6521  0.4894 -0.2731
 8491SOL    HW226287   4.223   6.157   5.583 -0.1286  2.2269 -1.0424
 8492SOL     OW26288   2.026   7.986   1.381  0.2391 -0.2911 -0.2743
 8492SOL    HW126289   2.053   7.945   1.300  0.1895 -2.1461  0.6216
 8492SOL    HW226290   2.006   8.076   1.357  1.6416 -0.4260 -2.0192
 8493SOL     OW26291   0.665   1.149   7.131  0.0077  0.3156 -0.1823
 8493SOL    HW126292   0.749   1.190   7.109  1.2591 -1.8245  0.5042
 8493SOL    HW226293   0.612   1.161   7.053  0.4800  2.8670 -0.1563
 8494SOL     OW26294   4.212   0.729   6.290 -0.3477  0.3158  0.3768
 8494SOL    HW126295   4.224   0.669   6.364  0.0987  1.2789  1.0941
 8494SOL    HW226296   4.152   0.796   6.324  0.1733  0.9741 -0.0099
 8495SOL     OW26297   0.791   4.778   0.416 -0.3440 -0.1543  0.1308
 8495SOL    HW126298   0.781   4.848   0.481  0.9713 -0.7092  0.9592
 8495SOL    HW226299   0.855   4.813   0.353  0.6391 -0.7411  0.7767
 8496SOL     OW26300   7.045   6.324   1.007 -0.0061  0.2076 -0.2298
 8496SOL    HW126301   7.045   6.262   0.934 -1.1050  0.3803 -0.3819
 8496SOL    HW226302   7.034   6.269   1.085 -2.7334  0.3084 -0.4831
 8497SOL     OW26303   5.590   1.003   0.585 -0.4023 -0.4101  0.1337
 8497SOL    HW126304   5.604   1.088   0.545 -1.3304  0.4475  1.5966
 8497SOL    HW226305   5.633   1.009   0.671 -1.8108 -0.8832  0.8806
 8498SOL     OW26306   0.641   5.722   4.189 -0.0837 -0.3658  0.5262
 8498SOL    HW126307   0.583   5.661   4.143 -0.0789 -0.9815  1.3330
 8498SOL    HW226308   0.581   5.784   4.232 -0.0862  0.2728 -0.3778
 8499SOL     OW26309   0.711   3.947   5.723  0.0652 -0.0584  0.1999
 8499SOL    HW126310   0.690   4.034   5.690  1.6797  0.7948  1.3477
 8499SOL    HW226311   0.668   3.943   5.808  0.7626 -0.0190  0.5580
 8500SOL     OW26312   7.247   0.513   1.645  0.3662  0.2260 -0.3496
 8500SOL    HW126313   7.322   0.561   1.680  1.0745 -2.1059  1.4224
 8500SOL    HW226314   7.282   0.467   1.569  0.7573 -0.9101  0.5130
 8501SOL     OW26315   4.315   2.729   1.614 -0.1201  0.4537 -0.7632
 8501SOL    HW126316   4.256   2.660   1.643 -0.1978  0.4791 -0.8643
 8501SOL    HW226317   4.401   2.686   1.609 -0.2300  0.2784 -1.1678
 8502SOL     OW26318   5.538   4.839   5.322  0.0712 -0.0569 -0.1972
 8502SOL    HW126319   5.476   4.900   5.284  0.7024  0.6936 -0.0344
 8502SOL    HW226320   5.484   4.779   5.374 -0.3606  1.6824  1.4285
 8503SOL     OW26321   7.042   2.993   6.094  0.2263  0.1749 -0.5041
 8503SOL    HW126322   7.035   3.035   6.008 -1.8333 -0.8337 -0.8620
 8503SOL    HW226323   7.002   3.056   6.154  0.1639  0.1689 -0.5384
 8504SOL     OW26324   1.798   5.936   7.015 -0.0317 -0.0446  0.5299
 8504SOL    HW126325   1.885   5.965   6.989 -0.3503 -0.7815 -1.4068
 8504SOL    HW226326   1.807   5.842   7.028 -0.6208 -0.1893 -0.0826
 8505SOL     OW26327   3.159   0.148   0.601  0.6010  0.2020  0.9077
 8505SOL    HW126328   3.245   0.150   0.641  1.2325  2.6952 -0.4671
 8505SOL    HW226329   3.118   0.230   0.627 -1.5508 -1.1574  1.9226
 8506SOL     OW26330   0.504   4.683   6.121  0.3184 -0.2437 -0.4344
 8506SOL    HW126331   0.419   4.666   6.080 -0.1522 -1.3022  0.9218
 8506SOL    HW226332   0.511   4.778   6.124 -1.2083 -0.1489  0.2286
 8507SOL     OW26333   2.765   6.422   1.013 -0.3991  0.1051 -0.4622
 8507SOL    HW126334   2.805   6.343   0.977 -0.6650  0.4382 -1.5234
 8507SOL    HW226335   2.839   6.478   1.037 -0.2011 -0.7285  0.9237
 8508SOL     OW26336   3.974   4.484   7.582 -0.3288 -0.6487  0.2679
 8508SOL    HW126337   4.027   4.531   7.646 -0.6226 -0.9699  0.7578
 8508SOL    HW226338   3.886   4.521   7.592 -0.4868 -1.0618  0.4179
 8509SOL     OW26339   2.293   7.060   6.614  0.3137 -0.0577  0.4789
 8509SOL    HW126340   2.255   7.005   6.546 -1.8185 -0.0589  1.6092
 8509SOL    HW226341   2.365   7.007   6.650  0.2035 -0.8624 -0.4597
 8510SOL     OW26342   6.776   3.719   2.761  0.0811 -0.3093 -0.2815
 8510SOL    HW126343   6.822   3.701   2.842 -0.0687  1.5480  0.2439
 8510SOL    HW226344   6.754   3.813   2.766 -0.3716 -0.2895 -2.2213
 8511SOL     OW26345   2.373   7.342   5.779 -0.0731 -0.1062 -0.1782
 8511SOL    HW126346   2.414   7.424   5.753 -1.1544  0.8937  1.1920
 8511SOL    HW226347   2.315   7.366   5.851 -0.6105 -2.0300  0.0606
 8512SOL     OW26348   1.191   0.392   6.976  0.3067 -0.4720 -0.4068
 8512SOL    HW126349   1.172   0.458   6.909  1.8073  0.2005 -0.1789
 8512SOL    HW226350   1.250   0.436   7.036 -0.2761 -1.3954  0.8502
 8513SOL     OW26351   4.723   3.595   1.347 -0.4972 -0.4262  0.2054
 8513SOL    HW126352   4.704   3.516   1.398 -1.7839 -0.4451 -0.2959
 8513SOL    HW226353   4.788   3.567   1.282  1.4204 -0.3259  2.0234
 8514SOL     OW26354   2.402   4.393   4.154  0.6751  0.0828  0.3718
 8514SOL    HW126355   2.416   4.484   4.180  2.9946 -0.0813 -0.1842
 8514SOL    HW226356   2.454   4.342   4.217  1.1296 -0.7013 -0.6201
 8515SOL     OW26357   5.666   2.117   4.599 -0.7866 -0.0168 -0.2360
 8515SOL    HW126358   5.754   2.105   4.563  0.2145 -0.8344  2.3753
 8515SOL    HW226359   5.642   2.031   4.635 -1.6432  0.7826  1.1753
 8516SOL     OW26360   1.157   1.439   3.158  0.2105 -0.3444 -0.0688
 8516SOL    HW126361   1.093   1.507   3.180 -1.5280 -1.8441 -0.3459
 8516SOL    HW226362   1.122   1.359   3.197  1.8077 -1.2509 -0.4341
 8517SOL     OW26363   0.010   4.486   1.326  0.5405 -0.0173  0.5404
 8517SOL    HW126364   0.041   4.402   1.292  1.1133  0.6633 -0.6423
 8517SOL    HW226365   0.083   4.519   1.379  0.5118 -0.0310  0.5881
 8518SOL     OW26366   3.083   4.250   3.717 -0.1900  0.3264  0.0518
 8518SOL    HW126367   3.151   4.188   3.743  0.4520  0.3636 -1.4705
 8518SOL    HW226368   3.123   4.336   3.732  0.0402  0.3490 -0.6756
 8519SOL     OW26369   4.262   5.966   4.574  0.2558  0.4098 -0.0321
 8519SOL    HW126370   4.260   5.931   4.663 -0.1266  1.3153  0.3228
 8519SOL    HW226371   4.339   6.024   4.573  0.2792  0.3760 -0.2994
 8520SOL     OW26372   5.620   5.720   6.201 -0.2069 -0.1926  0.4351
 8520SOL    HW126373   5.658   5.799   6.239 -2.5372  0.8843  0.6192
 8520SOL    HW226374   5.666   5.709   6.118  1.7178  0.0360  1.4242
 8521SOL     OW26375   7.519   4.890   2.179 -0.8348  0.2188  0.0148
 8521SOL    HW126376   7.465   4.951   2.229 -1.0326  1.1146 -1.2757
 8521SOL    HW226377   7.497   4.907   2.088  0.4459 -0.5259 -0.4547
 8522SOL     OW26378   7.474   0.224   2.446 -0.0751  0.0314  0.6052
 8522SOL    HW126379   7.420   0.161   2.494  2.4038 -2.1694  0.6727
 8522SOL    HW226380   7.549   0.240   2.503  1.7522 -0.8044 -1.4555
 8523SOL     OW26381   2.542   0.050   4.756  0.6702  0.2444 -0.0040
 8523SOL    HW126382   2.555   0.101   4.676 -0.0432  0.7144  0.1799
 8523SOL    HW226383   2.450   0.063   4.778  0.6454 -0.6031  0.4035
 8524SOL     OW26384   7.425   5.858   7.766 -0.5719 -0.2033  0.4449
 8524SOL    HW126385   7.444   5.871   7.859  2.3153  0.8997 -0.2459
 8524SOL    HW226386   7.461   5.936   7.723 -1.7245 -0.7760 -1.6322
 8525SOL     OW26387   4.083   3.388   1.773  0.2313 -0.3014 -0.5967
 8525SOL    HW126388   4.140   3.408   1.847 -0.9487 -0.6759  0.4143
 8525SOL    HW226389   4.038   3.308   1.798 -0.9372  0.1313 -1.2844
 8526SOL     OW26390   2.153   6.673   0.115 -0.6227  0.1470  0.2661
 8526SOL    HW126391   2.237   6.678   0.161 -0.6024  1.5531  0.0845
 8526SOL    HW226392   2.088   6.664   0.185 -0.4404  0.4225  0.4702
 8527SOL     OW26393   6.613   7.431   3.828 -0.1777  0.1222 -0.5758
 8527SOL    HW126394   6.581   7.475   3.907 -0.9273  0.1301 -0.8751
 8527SOL    HW226395   6.655   7.501   3.778 -1.3709  0.5178 -1.0530
 8528SOL     OW26396   7.633   0.558   7.996 -0.1252  0.1506  0.3640
 8528SOL    HW126397   7.612   0.651   7.998 -0.4419  0.0587  1.2579
 8528SOL    HW226398   7.620   0.527   8.085 -0.5004 -0.8588 -0.0207
 8529SOL     OW26399   3.684   5.740   3.049  0.0479  0.1946  0.1348
 8529SOL    HW126400   3.653   5.702   2.966 -1.3151  3.5457 -1.0117
 8529SOL    HW226401   3.604   5.749   3.102  0.5445  0.2785  0.8728
 8530SOL     OW26402   4.038   3.901   1.243  0.1201 -0.0093  0.1493
 8530SOL    HW126403   3.974   3.869   1.306  0.4173 -0.1698  0.3689
 8530SOL    HW226404   4.076   3.822   1.205  0.5342  0.0852  0.3676
 8531SOL     OW26405   5.890   2.127   7.210  0.3866  0.7235  0.6223
 8531SOL    HW126406   5.811   2.180   7.199 -0.3266 -0.0169  2.0299
 8531SOL    HW226407   5.943   2.148   7.133 -1.6002  0.4485 -0.8748
 8532SOL     OW26408   0.161   5.198   5.684 -0.7769 -0.3368 -0.3318
 8532SOL    HW126409   0.193   5.199   5.774  0.3106  0.9033 -0.7086
 8532SOL    HW226410   0.101   5.124   5.680  1.3469 -2.1595  0.6371
 8533SOL     OW26411   1.778   4.000   2.871 -0.2253 -0.4031  0.3524
 8533SOL    HW126412   1.813   3.973   2.956 -0.9787 -2.6543 -0.0034
 8533SOL    HW226413   1.749   4.090   2.884  0.1888 -0.5322  2.3330
 8534SOL     OW26414   7.327   2.871   4.793  0.8191  0.4219  0.0436
 8534SOL    HW126415   7.263   2.923   4.843  0.3677  0.5268 -0.6311
 8534SOL    HW226416   7.353   2.929   4.721  1.8809  0.4763  0.4610
 8535SOL     OW26417   7.794   7.799   3.812 -0.6011  0.1904  0.4486
 8535SOL    HW126418   7.875   7.850   3.811 -1.5795  1.9721  3.2946
 8535SOL    HW226419   7.747   7.827   3.734 -0.1517  2.0491  0.8246
 8536SOL     OW26420   1.284   2.582   4.774 -0.0578 -0.8483  0.5524
 8536SOL    HW126421   1.201   2.628   4.788  0.2934 -0.4644  1.3675
 8536SOL    HW226422   1.273   2.538   4.689 -1.6662 -2.0176  1.3447
 8537SOL     OW26423   7.156   0.291   0.824 -0.6023 -0.7690 -0.1641
 8537SOL    HW126424   7.241   0.254   0.846  0.8401  1.9472 -0.8376
 8537SOL    HW226425   7.137   0.353   0.895 -1.2993 -0.2676 -0.7700
 8538SOL     OW26426   3.305   3.256   0.634 -0.0120  0.3536 -0.0364
 8538SOL    HW126427   3.238   3.254   0.702  0.2650 -1.8514  0.2255
 8538SOL    HW226428   3.323   3.164   0.615  2.5261  0.8805 -0.4915
 8539SOL     OW26429   4.529   7.421   0.652  0.1183 -0.0140  0.2544
 8539SOL    HW126430   4.581   7.501   0.662 -0.0177 -0.0323  1.1305
 8539SOL    HW226431   4.547   7.370   0.731 -0.8768 -0.2256  0.3554
 8540SOL     OW26432   3.506   4.905   1.421  0.2651  0.3783 -0.2731
 8540SOL    HW126433   3.453   4.950   1.356  0.8747  0.3585 -0.7940
 8540SOL    HW226434   3.447   4.842   1.462  0.2582 -0.6750 -1.8668
 8541SOL     OW26435   0.580   6.712   6.624 -0.3032  0.0482 -0.1888
 8541SOL    HW126436   0.570   6.629   6.671 -1.3224  0.8468  1.0543
 8541SOL    HW226437   0.491   6.737   6.599  0.0914  0.3254 -1.3518
 8542SOL     OW26438   7.113   5.693   1.494 -0.0007 -0.9140  0.3183
 8542SOL    HW126439   7.102   5.714   1.587  0.9759  0.7060  0.0983
 8542SOL    HW226440   7.135   5.600   1.492  2.8741 -0.3200  1.9510
 8543SOL     OW26441   1.760   2.595   4.117  0.1517 -0.0783  0.1418
 8543SOL    HW126442   1.813   2.599   4.037 -1.7567 -0.8138 -1.2138
 8543SOL    HW226443   1.739   2.502   4.127  0.8713 -0.0773  1.8604
 8544SOL     OW26444   6.294   7.019   0.832 -0.0045  0.8342  0.0745
 8544SOL    HW126445   6.276   7.089   0.770  0.9629  1.0977  0.0896
 8544SOL    HW226446   6.388   7.003   0.825 -0.1512 -0.2002  0.3486
 8545SOL     OW26447   6.812   7.906   1.793 -0.7657  0.3868  0.0140
 8545SOL    HW126448   6.793   7.862   1.876 -0.5855  0.3532  0.0375
 8545SOL    HW226449   6.766   7.990   1.799 -1.6528 -0.0680 -0.2995
 8546SOL     OW26450   6.905   7.315   7.900  0.0236  0.1924  0.2383
 8546SOL    HW126451   6.856   7.353   7.827  0.4147  1.1400  0.4597
 8546SOL    HW226452   6.989   7.362   7.900 -0.3022  0.8117  1.8263
 8547SOL     OW26453   4.397   2.893   7.474  0.0112 -0.5532  0.7703
 8547SOL    HW126454   4.451   2.837   7.419 -0.4473  0.2003 -0.4662
 8547SOL    HW226455   4.459   2.938   7.531  0.8205  1.1658 -1.4129
 8548SOL     OW26456   7.563   0.982   7.918 -0.1772 -0.3896  0.0657
 8548SOL    HW126457   7.604   0.902   7.886 -0.1419 -0.0728 -0.6886
 8548SOL    HW226458   7.545   1.033   7.839 -1.7130 -0.3797  0.4097
 8549SOL     OW26459   5.601   4.778   6.412  0.0602  0.0868  0.6300
 8549SOL    HW126460   5.638   4.819   6.491 -1.8778  1.0104  1.1089
 8549SOL    HW226461   5.592   4.686   6.435  1.6075 -0.0675  0.6613
 8550SOL     OW26462   7.121   0.156   3.346 -0.0122 -0.5570  0.1197
 8550SOL    HW126463   7.033   0.165   3.308 -0.4051  0.8457  1.3001
 8550SOL    HW226464   7.180   0.163   3.271 -0.7794  2.1233 -0.2867
 8551SOL     OW26465   1.277   6.492   2.772  0.3109 -0.4396 -0.7430
 8551SOL    HW126466   1.267   6.454   2.860  1.3887 -0.2308 -0.5110
 8551SOL    HW226467   1.364   6.464   2.744 -0.1541 -0.7577 -1.8812
 8552SOL     OW26468   7.666   1.116   4.502  0.1313 -0.1562  0.3535
 8552SOL    HW126469   7.677   1.120   4.597 -0.9933 -0.2517  0.4957
 8552SOL    HW226470   7.633   1.028   4.485 -2.6159  0.8631  0.2042
 8553SOL     OW26471   5.191   2.274   2.584 -0.0346 -0.0571 -0.5861
 8553SOL    HW126472   5.286   2.278   2.598 -0.0963 -0.3186 -0.0705
 8553SOL    HW226473   5.181   2.273   2.489  0.5019 -0.4356 -0.6434
 8554SOL     OW26474   6.540   5.283   1.729 -0.2453  0.7009 -0.2811
 8554SOL    HW126475   6.524   5.321   1.642  1.3346  3.3692  0.5498
 8554SOL    HW226476   6.635   5.287   1.740 -0.4653  0.8397  1.7680
 8555SOL     OW26477   2.288   2.109   6.052 -0.3778  0.3989  0.0587
 8555SOL    HW126478   2.284   2.093   6.147  1.0112  1.0871  0.2603
 8555SOL    HW226479   2.279   2.022   6.013  0.6790 -0.1074  0.8909
 8556SOL     OW26480   6.648   4.858   7.476  0.4041 -0.0542  0.5039
 8556SOL    HW126481   6.653   4.812   7.560  0.5842 -1.2691 -0.1573
 8556SOL    HW226482   6.568   4.909   7.481  0.4276 -0.1066  1.4303
 8557SOL     OW26483   6.684   1.189   7.019  0.0666 -0.2495  0.0521
 8557SOL    HW126484   6.689   1.161   6.928 -0.2696 -1.6808  0.4582
 8557SOL    HW226485   6.774   1.215   7.042  0.5111 -1.6062 -0.1524
 8558SOL     OW26486   2.498   1.076   4.166 -0.3957  0.0883  0.2298
 8558SOL    HW126487   2.519   0.983   4.175 -1.1428 -0.2943 -1.7402
 8558SOL    HW226488   2.413   1.077   4.122 -1.3123  1.7018  1.9967
 8559SOL     OW26489   2.905   7.430   0.264 -0.3487 -0.3288  0.0467
 8559SOL    HW126490   2.862   7.346   0.246 -2.1982  0.2420  1.6193
 8559SOL    HW226491   2.984   7.407   0.311 -1.3761 -1.1659  1.3977
 8560SOL     OW26492   5.632   0.111   5.499  0.0647  0.1262 -0.3905
 8560SOL    HW126493   5.593   0.054   5.565 -1.9672  2.5317  0.5618
 8560SOL    HW226494   5.558   0.140   5.445  1.4378 -0.3411 -2.6174
 8561SOL     OW26495   5.135   3.690   2.009 -0.6093 -0.8568 -0.6535
 8561SOL    HW126496   5.074   3.617   2.022 -1.8717  0.5739  1.6736
 8561SOL    HW226497   5.082   3.768   2.023  1.5760  0.4399  0.5941
 8562SOL     OW26498   2.238   6.380   5.485 -0.1335 -0.2484 -0.0095
 8562SOL    HW126499   2.290   6.361   5.563  0.0578  0.8753  0.1465
 8562SOL    HW226500   2.266   6.315   5.421  0.6861 -0.3322  0.4208
 8563SOL     OW26501   5.045   3.456   7.141 -0.0933  0.3631 -0.1942
 8563SOL    HW126502   5.043   3.431   7.233 -0.0913 -0.5813 -0.4430
 8563SOL    HW226503   4.995   3.387   7.096  1.8926 -0.4500 -1.2005
 8564SOL     OW26504   4.826   3.994   6.098 -0.3879 -0.1589 -0.0396
 8564SOL    HW126505   4.858   3.985   6.188 -0.8106  0.5107  0.1758
 8564SOL    HW226506   4.829   4.088   6.080  1.1308 -0.4120 -1.2472
 8565SOL     OW26507   1.203   7.034   0.636  0.0996  0.9797  0.0778
 8565SOL    HW126508   1.246   6.986   0.565  1.7557  2.3677  0.0942
 8565SOL    HW226509   1.111   7.011   0.629  0.5549 -0.4837 -1.2565
 8566SOL     OW26510   5.442   7.183   0.861 -0.1871 -0.0784 -0.4018
 8566SOL    HW126511   5.441   7.189   0.765  1.7833 -3.0371 -0.6494
 8566SOL    HW226512   5.509   7.245   0.888 -0.2934  0.2842 -0.9583
 8567SOL     OW26513   7.449   5.103   5.232  0.2187 -0.1765  0.3448
 8567SOL    HW126514   7.533   5.060   5.252  0.3454 -0.8275 -1.4498
 8567SOL    HW226515   7.462   5.138   5.144 -1.4931 -0.4991 -0.0406
 8568SOL     OW26516   5.070   1.898   1.307 -0.5963  0.3808  0.5910
 8568SOL    HW126517   5.053   1.805   1.292  0.2532  0.1587  0.9810
 8568SOL    HW226518   5.152   1.900   1.355 -0.0787  1.3861 -0.3075
 8569SOL     OW26519   7.979   2.914   5.526 -0.3409  0.1667 -0.1832
 8569SOL    HW126520   7.965   3.006   5.506  0.6393  0.2340 -0.5601
 8569SOL    HW226521   7.972   2.869   5.442 -1.7767 -0.2336  0.1284
 8570SOL     OW26522   3.862   0.057   3.567  0.4535  0.2280  0.4297
 8570SOL    HW126523   3.866   0.040   3.661 -2.4978 -0.8881  0.4131
 8570SOL    HW226524   3.833   0.148   3.560  0.6863  0.3150  0.5981
 8571SOL     OW26525   3.231   5.967   7.609 -0.6684 -0.2287 -0.4779
 8571SOL    HW126526   3.215   5.872   7.607 -0.0121 -0.4092  1.5908
 8571SOL    HW226527   3.276   5.985   7.526  1.0665 -2.0947 -0.0072
 8572SOL     OW26528   1.467   3.924   4.333  0.0928  0.1811 -0.3531
 8572SOL    HW126529   1.560   3.918   4.310 -0.1639 -0.1229 -1.3505
 8572SOL    HW226530   1.434   3.835   4.323 -0.4036  0.3721 -0.4224
 8573SOL     OW26531   3.335   7.982   3.298  0.1091 -0.0198  0.3470
 8573SOL    HW126532   3.405   8.046   3.313  0.7294 -1.1780  2.5212
 8573SOL    HW226533   3.256   8.027   3.326  0.2919  0.4768  0.0729
 8574SOL     OW26534   3.599   7.520   5.680  1.0137 -0.2452  0.4002
 8574SOL    HW126535   3.666   7.452   5.679  0.7489 -0.5251 -1.3141
 8574SOL    HW226536   3.597   7.553   5.590 -0.6920  0.2064  0.5736
 8575SOL     OW26537   7.710   6.627   1.106  0.5753 -0.0020 -0.1952
 8575SOL    HW126538   7.674   6.634   1.018  1.6664  4.0947 -0.3916
 8575SOL    HW226539   7.643   6.580   1.155 -1.3892  0.2984 -2.4768
 8576SOL     OW26540   3.186   3.638   3.749  0.2564  0.7706 -0.8415
 8576SOL    HW126541   3.263   3.689   3.774 -0.0678 -0.2673  2.5114
 8576SOL    HW226542   3.112   3.685   3.789 -0.2588 -1.1094  0.5224
 8577SOL     OW26543   5.833   1.319   4.089 -0.3648  0.0780 -0.0458
 8577SOL    HW126544   5.833   1.355   4.000  0.8655  0.3218  0.0387
 8577SOL    HW226545   5.804   1.228   4.078 -2.2872  0.7184 -0.4121
 8578SOL     OW26546   6.785   4.513   6.354  0.2702 -0.1858 -0.2269
 8578SOL    HW126547   6.698   4.513   6.315 -1.3417  0.8632  3.2020
 8578SOL    HW226548   6.809   4.420   6.359 -0.5726 -0.4702 -1.3344
 8579SOL     OW26549   6.957   3.718   3.993 -0.3034 -0.3092 -0.3315
 8579SOL    HW126550   6.995   3.684   3.912  1.6503  0.0626  0.3967
 8579SOL    HW226551   6.862   3.712   3.980 -0.0015 -1.3583 -2.1637
 8580SOL     OW26552   5.873   3.180   5.814 -0.0121 -0.0499 -0.1872
 8580SOL    HW126553   5.845   3.185   5.722 -0.2015  0.0481 -0.1226
 8580SOL    HW226554   5.932   3.105   5.816  1.0979  0.7830 -0.6877
 8581SOL     OW26555   1.655   5.005   3.136 -0.2209 -0.3785 -0.5411
 8581SOL    HW126556   1.669   4.925   3.187 -1.7827  0.4162  1.1829
 8581SOL    HW226557   1.572   4.991   3.091  0.8493 -0.8192 -2.4282
 8582SOL     OW26558   6.039   7.542   7.208 -0.3877 -0.0158  0.0546
 8582SOL    HW126559   6.131   7.551   7.233 -0.3100  1.3226 -0.6670
 8582SOL    HW226560   6.022   7.448   7.212  1.5098 -0.4568 -1.5334
 8583SOL     OW26561   7.542   6.247   4.252  0.1538  0.3323 -0.1663
 8583SOL    HW126562   7.525   6.305   4.326 -0.9737 -0.5919  0.3045
 8583SOL    HW226563   7.637   6.253   4.238  0.5569 -0.3852  2.0955
 8584SOL     OW26564   1.577   5.516   7.110  0.2937 -0.4547  0.3039
 8584SOL    HW126565   1.526   5.516   7.030  0.6909 -1.0805  0.0474
 8584SOL    HW226566   1.568   5.605   7.145 -0.6871 -0.4679  0.0889
 8585SOL     OW26567   0.289   3.260   6.374 -0.4635  0.2252 -0.2607
 8585SOL    HW126568   0.209   3.219   6.341 -0.2121 -0.2771 -0.2522
 8585SOL    HW226569   0.258   3.330   6.431 -0.8968  0.1570 -0.4110
 8586SOL     OW26570   5.005   0.684   7.629  0.7051 -0.3728 -0.1605
 8586SOL    HW126571   5.075   0.730   7.676  1.0598 -0.7676 -0.3015
 8586SOL    HW226572   5.048   0.607   7.592  0.0244 -1.0221  0.3898
 8587SOL     OW26573   2.183   3.579   7.224 -0.2511  0.1162  0.0234
 8587SOL    HW126574   2.165   3.524   7.148  0.1741 -0.0715  0.0546
 8587SOL    HW226575   2.159   3.524   7.299 -2.2713  0.9050 -0.0142
 8588SOL     OW26576   6.067   7.958   5.549 -0.0738 -1.0268 -0.2573
 8588SOL    HW126577   5.983   7.964   5.503 -0.1776  0.9501  0.1634
 8588SOL    HW226578   6.122   8.024   5.506  0.5418 -0.7371  0.9722
 8589SOL     OW26579   4.449   6.352   7.005  0.1865 -0.0039 -0.1608
 8589SOL    HW126580   4.501   6.430   7.026 -1.0663  1.3026 -1.8041
 8589SOL    HW226581   4.510   6.296   6.956  1.1190 -0.1356  1.1091
 8590SOL     OW26582   2.738   5.486   3.507  0.1055  0.6099  0.6233
 8590SOL    HW126583   2.817   5.469   3.559  0.8853  0.0051 -0.7306
 8590SOL    HW226584   2.666   5.466   3.566  0.9830 -0.3772  1.3862
 8591SOL     OW26585   7.010   5.148   0.222  0.2737  0.3554 -0.4306
 8591SOL    HW126586   7.056   5.232   0.215  2.0570 -0.5354  0.3982
 8591SOL    HW226587   6.918   5.170   0.203  0.9810  2.1844 -1.9086
 8592SOL     OW26588   5.692   6.630   4.652 -0.5533 -0.0805 -0.3198
 8592SOL    HW126589   5.667   6.691   4.721 -0.8018 -0.0481 -0.4351
 8592SOL    HW226590   5.644   6.661   4.575 -1.0785 -0.7121 -0.2562
 8593SOL     OW26591   7.965   2.713   1.253  0.5773 -0.0144  0.6557
 8593SOL    HW126592   7.943   2.804   1.268 -1.0626 -0.4314  0.8851
 8593SOL    HW226593   7.940   2.668   1.334  0.4375 -0.8194  0.1753
 8594SOL     OW26594   7.229   5.793   3.479  0.4114  0.5128  0.4086
 8594SOL    HW126595   7.219   5.698   3.473 -0.5655  0.6325  0.1491
 8594SOL    HW226596   7.161   5.828   3.422 -0.2302  1.3985  1.7154
 8595SOL     OW26597   7.215   6.771   0.529 -0.1984  0.0567  0.2746
 8595SOL    HW126598   7.199   6.809   0.615  0.0722  0.3345  0.2023
 8595SOL    HW226599   7.281   6.703   0.545 -1.0624 -0.7298  0.4865
 8596SOL     OW26600   7.761   3.964   3.285 -0.0514 -0.8807  0.1785
 8596SOL    HW126601   7.798   3.899   3.345  2.8704  1.5600  1.2028
 8596SOL    HW226602   7.810   3.951   3.203 -0.1938 -0.6881  0.0631
 8597SOL     OW26603   2.593   2.264   0.857  0.3005  0.1884 -0.1506
 8597SOL    HW126604   2.657   2.197   0.834  1.9122  1.6317  0.0406
 8597SOL    HW226605   2.577   2.252   0.950 -0.7246 -1.0140 -0.4686
 8598SOL     OW26606   3.781   4.959   2.639  0.6311 -0.1251 -0.2554
 8598SOL    HW126607   3.857   4.944   2.695 -0.8569  0.1623  1.9441
 8598SOL    HW226608   3.714   4.899   2.674 -0.7381  1.0212 -0.8681
 8599SOL     OW26609   6.830   1.820   7.849  0.3255  0.6472  0.0472
 8599SOL    HW126610   6.915   1.838   7.889 -0.5058  1.5861  1.4469
 8599SOL    HW226611   6.783   1.903   7.853 -1.7648 -0.5612  2.1049
 8600SOL     OW26612   7.089   5.533   2.865 -0.0800 -0.2042 -0.0673
 8600SOL    HW126613   6.999   5.525   2.896  0.2461 -1.5929  0.5372
 8600SOL    HW226614   7.137   5.569   2.939  0.3078 -1.6411  0.3895
 8601SOL     OW26615   4.291   7.921   3.415 -0.2329  0.2499  0.0057
 8601SOL    HW126616   4.366   7.972   3.386  0.4613 -0.2313  0.9293
 8601SOL    HW226617   4.243   7.901   3.334 -0.2457  1.9124 -0.4146
 8602SOL     OW26618   0.829   3.008   2.044  0.4028  0.1252 -0.2880
 8602SOL    HW126619   0.758   2.976   2.099  0.7264  1.1690  0.7451
 8602SOL    HW226620   0.856   2.931   1.993 -1.5492 -0.2491 -0.8032
 8603SOL     OW26621   7.309   7.720   5.968  0.1568 -0.3851  0.1436
 8603SOL    HW126622   7.288   7.643   6.022 -0.3096 -0.8378 -0.6616
 8603SOL    HW226623   7.249   7.788   5.999  0.7288 -0.2824  1.0141
 8604SOL     OW26624   6.891   5.256   4.966 -0.0303  0.4605  0.2080
 8604SOL    HW126625   6.877   5.344   4.931  0.6722  0.9413  1.1191
 8604SOL    HW226626   6.918   5.270   5.057 -1.0172 -0.7414  0.6993
 8605SOL     OW26627   4.222   3.287   0.259 -0.3484  0.1941 -0.0886
 8605SOL    HW126628   4.189   3.263   0.172 -0.7356 -1.8467  0.5810
 8605SOL    HW226629   4.159   3.248   0.320 -1.1912  3.2735  1.1194
 8606SOL     OW26630   6.379   2.546   0.846  0.7152  0.2223  0.2768
 8606SOL    HW126631   6.449   2.583   0.899  0.0683  0.0320  1.2826
 8606SOL    HW226632   6.342   2.476   0.900 -1.1186  1.1909  0.3296
 8607SOL     OW26633   3.489   7.445   3.079 -0.6014 -0.4747  0.1432
 8607SOL    HW126634   3.531   7.367   3.042 -0.1939 -0.7044  1.0667
 8607SOL    HW226635   3.481   7.426   3.172  0.4374  1.0020  0.5582
 8608SOL     OW26636   0.887   4.708   3.644 -0.4120  0.8194 -0.7072
 8608SOL    HW126637   0.904   4.645   3.714  1.0666  1.3126 -0.6128
 8608SOL    HW226638   0.843   4.658   3.576  0.2405 -0.1842 -0.3969
 8609SOL     OW26639   6.474   7.828   5.871 -0.6835  0.4673 -0.5241
 8609SOL    HW126640   6.412   7.854   5.803  1.3315  3.6613 -1.2248
 8609SOL    HW226641   6.423   7.833   5.952 -1.9117  0.9023 -1.3043
 8610SOL     OW26642   7.054   0.479   5.725 -0.2969  0.2348  0.1613
 8610SOL    HW126643   7.016   0.499   5.810 -1.1737  0.5008 -0.2923
 8610SOL    HW226644   7.010   0.398   5.698 -0.2130  0.2953 -0.1596
 8611SOL     OW26645   2.680   4.346   7.998  0.4545 -0.2243 -0.2257
 8611SOL    HW126646   2.684   4.340   8.094 -0.0968 -3.4940 -0.3422
 8611SOL    HW226647   2.588   4.368   7.980  0.2633 -0.8288 -0.0210
 8612SOL     OW26648   6.643   7.136   0.650 -0.0008  0.0699  0.0477
 8612SOL    HW126649   6.621   7.077   0.578 -3.0906 -0.4406  1.3238
 8612SOL    HW226650   6.732   7.165   0.631  0.2864 -2.2345 -2.4774
 8613SOL     OW26651   3.265   5.809   3.748 -0.5210  0.0521  0.0450
 8613SOL    HW126652   3.305   5.893   3.725 -2.5185  1.4279  1.3544
 8613SOL    HW226653   3.291   5.794   3.839  2.6298 -2.5049 -1.1836
 8614SOL     OW26654   2.355   2.048   4.743 -0.2169  0.2811 -0.3035
 8614SOL    HW126655   2.403   2.103   4.681  0.0600 -0.1440 -0.4690
 8614SOL    HW226656   2.376   2.084   4.829 -0.5148  0.8038 -0.4499
 8615SOL     OW26657   6.076   2.174   2.107  0.4174 -0.2874  0.8751
 8615SOL    HW126658   6.124   2.193   2.026  1.1756 -1.1091  1.1250
 8615SOL    HW226659   6.143   2.163   2.174 -0.2021  0.2372  1.5961
 8616SOL     OW26660   0.377   5.181   3.505 -0.6830  0.1526  0.3440
 8616SOL    HW126661   0.458   5.181   3.556  0.0405 -2.2759 -0.7550
 8616SOL    HW226662   0.308   5.167   3.570 -0.0631  0.2959  1.0409
 8617SOL     OW26663   5.835   7.394   3.206  0.6026  0.0577 -0.3695
 8617SOL    HW126664   5.929   7.384   3.222  0.0065 -4.1147  1.5088
 8617SOL    HW226665   5.816   7.330   3.137 -0.7875  1.1943 -1.0546
 8618SOL     OW26666   5.187   2.615   7.089  0.2977  0.2100 -0.4687
 8618SOL    HW126667   5.181   2.621   7.184 -2.4225 -0.3096 -0.5424
 8618SOL    HW226668   5.142   2.533   7.067  1.3659  0.0438 -2.1723
 8619SOL     OW26669   5.786   2.385   4.078 -0.3770 -0.1569 -0.3701
 8619SOL    HW126670   5.701   2.350   4.049 -0.1722  0.0986 -1.3077
 8619SOL    HW226671   5.813   2.326   4.148 -0.9626 -0.7091 -0.5964
 8620SOL     OW26672   1.247   4.280   4.132 -0.9448  0.0296 -0.3138
 8620SOL    HW126673   1.259   4.289   4.038 -0.2028  1.0524 -0.1352
 8620SOL    HW226674   1.237   4.370   4.164 -0.1580 -0.2316  0.6994
 8621SOL     OW26675   2.705   4.485   6.933 -0.5056 -0.5000  0.4250
 8621SOL    HW126676   2.656   4.417   6.887 -0.6445  1.0194 -1.7331
 8621SOL    HW226677   2.751   4.438   7.003 -1.1319 -2.7077 -0.6050
 8622SOL     OW26678   0.835   4.578   6.065 -0.1997 -0.3403  0.1130
 8622SOL    HW126679   0.794   4.570   6.151  0.0386 -2.0092  0.0799
 8622SOL    HW226680   0.840   4.489   6.032  2.8798 -0.1150 -0.1574
 8623SOL     OW26681   4.555   6.042   3.886  0.1970 -0.1925  0.7451
 8623SOL    HW126682   4.460   6.055   3.893  0.2505  1.1999 -0.7594
 8623SOL    HW226683   4.566   5.989   3.806  0.8053  1.6092 -0.3987
 8624SOL     OW26684   4.580   1.203   6.122  0.1600 -0.2157 -0.0853
 8624SOL    HW126685   4.644   1.147   6.164 -1.0801 -1.5364  0.0643
 8624SOL    HW226686   4.559   1.159   6.039 -1.8357 -0.7061  0.6597
 8625SOL     OW26687   0.690   1.569   5.510 -0.9940 -0.3973 -0.1819
 8625SOL    HW126688   0.716   1.660   5.524  1.1065 -1.0964  0.5928
 8625SOL    HW226689   0.595   1.569   5.526 -0.9664  1.5727  0.1622
 8626SOL     OW26690   3.414   6.871   0.088  0.1753  0.4662  0.3560
 8626SOL    HW126691   3.480   6.940   0.088  0.3841  0.2891  2.1648
 8626SOL    HW226692   3.332   6.916   0.109  0.1030  0.3639  0.2945
 8627SOL     OW26693   0.711   5.349   4.102 -0.2122 -0.1738 -0.2805
 8627SOL    HW126694   0.711   5.343   4.198  1.2799  0.1675 -0.2331
 8627SOL    HW226695   0.652   5.422   4.082  1.0770  1.1309  0.5195
 8628SOL     OW26696   1.518   7.805   7.331 -0.3692 -0.8051 -0.4859
 8628SOL    HW126697   1.438   7.779   7.377 -0.8671  0.1745 -0.7839
 8628SOL    HW226698   1.588   7.754   7.373 -0.8139  0.0864  1.3686
 8629SOL     OW26699   0.311   2.372   3.522  0.1376  0.4414  0.2298
 8629SOL    HW126700   0.272   2.303   3.577 -2.2491 -0.1088 -2.0536
 8629SOL    HW226701   0.238   2.430   3.502  1.0240  0.7884 -2.1191
 8630SOL     OW26702   3.097   1.192   4.991  0.5008  0.1845 -0.4055
 8630SOL    HW126703   3.137   1.130   4.930  0.9912 -0.4424  0.5510
 8630SOL    HW226704   3.011   1.212   4.953  0.0905 -1.5391 -0.4134
 8631SOL     OW26705   0.083   2.952   2.043  0.1432  0.7613 -0.1016
 8631SOL    HW126706   0.034   3.010   1.985  0.8810  0.8646 -0.6293
 8631SOL    HW226707   0.066   2.986   2.131  0.2720  1.5507 -0.3776
 8632SOL     OW26708   3.897   7.956   4.768 -0.1789 -0.3625  0.1271
 8632SOL    HW126709   3.865   7.891   4.831 -0.4890  0.1706  0.5226
 8632SOL    HW226710   3.820   8.009   4.747 -0.2612 -1.0077 -1.2940
 8633SOL     OW26711   1.767   1.311   5.904  0.7312 -0.2403 -0.0850
 8633SOL    HW126712   1.690   1.360   5.874 -0.2128 -1.0611  0.9754
 8633SOL    HW226713   1.779   1.243   5.838  1.1863  0.5195 -0.8029
 8634SOL     OW26714   3.721   2.115   1.654  0.3956  0.3743  0.4067
 8634SOL    HW126715   3.805   2.074   1.632  0.5241  1.8131 -1.8984
 8634SOL    HW226716   3.667   2.103   1.576 -1.0454  0.8262  1.3004
 8635SOL     OW26717   0.257   2.909   6.594  0.3404  0.5809 -0.4251
 8635SOL    HW126718   0.351   2.921   6.579  0.0569  1.3034 -1.7397
 8635SOL    HW226719   0.249   2.897   6.688  2.0108 -2.0367 -0.5722
 8636SOL     OW26720   6.196   3.532   2.328  0.5720 -0.0250  0.3167
 8636SOL    HW126721   6.177   3.491   2.412 -1.1295 -0.4128 -0.2250
 8636SOL    HW226722   6.111   3.534   2.283  1.3991  0.4366 -1.2690
 8637SOL     OW26723   3.009   0.478   0.077 -0.9155 -0.4324 -0.5045
 8637SOL    HW126724   2.943   0.542   0.107 -0.7713  0.3602 -1.8531
 8637SOL    HW226725   3.092   0.515   0.108 -0.9944 -0.9001  0.2858
 8638SOL     OW26726   5.433   0.302   1.594  0.3373 -0.3883 -0.0828
 8638SOL    HW126727   5.525   0.320   1.613  0.7940 -1.3925 -1.2884
 8638SOL    HW226728   5.397   0.273   1.678  0.7534  1.3913  0.7306
 8639SOL     OW26729   3.406   6.387   5.975  0.5453  0.1252  0.2350
 8639SOL    HW126730   3.378   6.403   5.885  1.9444 -0.5572 -0.3247
 8639SOL    HW226731   3.442   6.298   5.974  0.0098 -0.1284  1.6101
 8640SOL     OW26732   1.525   6.335   6.833  0.2093 -0.3717 -0.0280
 8640SOL    HW126733   1.453   6.367   6.888 -0.8260 -1.4881 -0.7216
 8640SOL    HW226734   1.530   6.242   6.853  2.0232 -0.1571  0.6265
 8641SOL     OW26735   1.354   3.494   6.859 -0.4761 -0.3486  0.5343
 8641SOL    HW126736   1.315   3.534   6.781  0.2422  0.8950  0.8080
 8641SOL    HW226737   1.364   3.566   6.921  0.6200 -0.9919  1.1174
 8642SOL     OW26738   5.484   0.973   1.692 -0.7212 -0.2375  0.4756
 8642SOL    HW126739   5.519   1.061   1.703 -2.8089  0.5865  0.8264
 8642SOL    HW226740   5.467   0.966   1.598  0.1526 -0.5575  0.3370
 8643SOL     OW26741   3.704   5.622   2.784 -0.3055  0.4416 -0.3638
 8643SOL    HW126742   3.671   5.662   2.703  1.0846  3.2921  0.4118
 8643SOL    HW226743   3.760   5.551   2.754 -1.1143  0.4048 -1.8524
 8644SOL     OW26744   4.795   5.624   3.475 -0.0265 -0.1069 -1.0605
 8644SOL    HW126745   4.832   5.644   3.560  1.0686 -2.7142 -0.8892
 8644SOL    HW226746   4.833   5.688   3.416 -0.2288  1.2481  0.2591
 8645SOL     OW26747   1.372   4.122   1.965 -0.3416  0.1528  1.0115
 8645SOL    HW126748   1.304   4.142   1.902  0.7689  1.4680  0.1950
 8645SOL    HW226749   1.401   4.034   1.943  0.1678  0.6782 -0.4420
 8646SOL     OW26750   6.977   0.490   3.510 -0.3223 -0.1924  0.0750
 8646SOL    HW126751   7.060   0.536   3.496  0.0395 -0.7437  0.3561
 8646SOL    HW226752   6.923   0.552   3.559  0.1178 -0.0202  0.3471
 8647SOL     OW26753   0.286   3.915   7.895  0.1095 -0.0578 -0.4154
 8647SOL    HW126754   0.307   3.973   7.968 -0.1318  0.2391 -0.5837
 8647SOL    HW226755   0.248   3.972   7.829 -0.1525 -0.4113 -0.5697
 8648SOL     OW26756   6.993   5.446   5.170 -0.0492 -0.5347 -0.1614
 8648SOL    HW126757   6.991   5.498   5.090  0.1737  0.0246  0.1935
 8648SOL    HW226758   7.037   5.502   5.234 -0.2486 -0.9681  0.3593
 8649SOL     OW26759   4.004   7.281   2.986  0.1433  0.0614 -0.5536
 8649SOL    HW126760   3.939   7.239   3.043 -0.9072  1.4717 -0.6679
 8649SOL    HW226761   3.992   7.238   2.902 -0.7755  0.4247 -0.6185
 8650SOL     OW26762   6.331   2.792   6.786  0.2043  0.2510  0.0791
 8650SOL    HW126763   6.307   2.729   6.853 -0.9388 -0.4162 -0.9378
 8650SOL    HW226764   6.310   2.749   6.703 -2.3576  2.6483 -0.6005
 8651SOL     OW26765   1.862   1.714   6.466  0.3306 -0.2698  0.1702
 8651SOL    HW126766   1.912   1.658   6.527 -0.9526  0.0534  1.5592
 8651SOL    HW226767   1.811   1.653   6.413  0.1131 -0.4897  0.6298
 8652SOL     OW26768   3.052   6.923   7.376 -0.6386  0.0268 -0.1403
 8652SOL    HW126769   3.034   6.888   7.464  1.4449  2.8273  1.5157
 8652SOL    HW226770   2.992   6.996   7.367 -0.3828  0.1619 -0.7484
 8653SOL     OW26771   2.982   4.942   6.735 -0.0490 -0.1706  0.0437
 8653SOL    HW126772   2.907   4.900   6.778 -0.6127  0.3008 -0.4683
 8653SOL    HW226773   3.029   4.871   6.693  0.7794 -0.7205  1.8220
 8654SOL     OW26774   7.522   1.006   4.964 -0.3247  0.0305  0.0670
 8654SOL    HW126775   7.506   1.085   4.912 -1.0413  0.4176  0.8614
 8654SOL    HW226776   7.577   0.951   4.908 -0.2627  0.8663 -0.7014
 8655SOL     OW26777   5.578   5.764   5.426 -0.0711  0.2257  0.2297
 8655SOL    HW126778   5.656   5.784   5.374 -0.4436 -0.7366 -0.7227
 8655SOL    HW226779   5.579   5.827   5.498  1.7082  0.0691  0.3454
 8656SOL     OW26780   3.109   0.418   4.100 -0.5247 -0.3011 -0.3013
 8656SOL    HW126781   3.058   0.447   4.175  0.5155  1.5321 -0.2468
 8656SOL    HW226782   3.131   0.499   4.053  1.1828 -1.1431 -1.0367
 8657SOL     OW26783   2.006   6.884   2.752  0.4516  0.7691  0.0724
 8657SOL    HW126784   1.938   6.895   2.818  0.9342  1.8861  0.3897
 8657SOL    HW226785   2.040   6.795   2.766 -0.1433  0.6384  0.6621
 8658SOL     OW26786   7.321   3.938   6.072 -0.5829  0.2019  0.8543
 8658SOL    HW126787   7.382   3.930   6.146 -2.3037  0.8407  2.3793
 8658SOL    HW226788   7.238   3.906   6.106 -0.7387 -2.2987 -1.7468
 8659SOL     OW26789   1.486   7.338   3.985  0.2946 -0.1050  0.0017
 8659SOL    HW126790   1.441   7.264   3.946  1.0749 -0.8486  0.4875
 8659SOL    HW226791   1.455   7.414   3.937 -0.7085 -0.7233 -0.3232
 8660SOL     OW26792   2.975   1.949   0.628 -0.0065 -0.5122 -0.3761
 8660SOL    HW126793   2.967   1.866   0.581 -2.7382  0.1510 -1.1480
 8660SOL    HW226794   2.953   2.016   0.564 -0.1815  0.6539  0.8679
 8661SOL     OW26795   2.298   2.191   5.634  0.3512  0.1727  0.1690
 8661SOL    HW126796   2.292   2.256   5.704 -0.5107  0.6585 -0.3423
 8661SOL    HW226797   2.322   2.110   5.678  1.2103  0.7830  0.8420
 8662SOL     OW26798   0.548   6.302   0.051  0.2121  0.2584  0.3627
 8662SOL    HW126799   0.605   6.228   0.032  1.3097  0.9770  0.7978
 8662SOL    HW226800   0.608   6.371   0.081 -0.8842  1.0263  0.8044
 8663SOL     OW26801   6.009   5.441   2.231 -0.4821 -0.5641  0.3456
 8663SOL    HW126802   5.937   5.435   2.168 -0.1717 -0.0081 -0.0564
 8663SOL    HW226803   5.968   5.423   2.316 -0.9740 -0.8948  0.0394
 8664SOL     OW26804   3.878   4.986   3.990 -0.3905  0.6116 -0.1822
 8664SOL    HW126805   3.954   4.954   4.040  0.0352  1.5208 -0.2319
 8664SOL    HW226806   3.816   5.016   4.057 -0.3177  0.7192 -0.1618
 8665SOL     OW26807   7.649   2.884   4.695 -0.4508 -0.3470 -0.2353
 8665SOL    HW126808   7.689   2.798   4.687 -1.9607 -1.4553  3.1256
 8665SOL    HW226809   7.657   2.906   4.788 -0.8388  2.8006 -0.8676
 8666SOL     OW26810   3.251   6.703   6.020  0.0098  0.2060  0.1790
 8666SOL    HW126811   3.307   6.760   6.073  1.6316 -1.8311  0.6747
 8666SOL    HW226812   3.268   6.615   6.053 -0.8281 -0.8231 -2.0719
 8667SOL     OW26813   1.587   3.864   7.024  0.5227 -0.2593 -0.5729
 8667SOL    HW126814   1.548   3.943   7.062 -1.0698 -0.6414 -1.3685
 8667SOL    HW226815   1.632   3.895   6.946  0.6895 -0.0043 -0.3750
 8668SOL     OW26816   0.046   3.976   6.709 -0.2165 -0.8594 -0.1478
 8668SOL    HW126817   0.060   3.893   6.753  1.1724  0.2600  1.5566
 8668SOL    HW226818  -0.048   3.992   6.716 -0.5349 -2.4092 -0.7607
 8669SOL     OW26819   1.105   3.783   4.314  0.1610 -0.5944 -0.3432
 8669SOL    HW126820   1.057   3.715   4.266 -0.0958  0.6300 -1.8767
 8669SOL    HW226821   1.048   3.806   4.387 -1.8284  1.0952 -2.3416
 8670SOL     OW26822   6.875   6.031   0.104  0.0455 -0.1113  0.2288
 8670SOL    HW126823   6.932   6.032   0.027 -0.5425  0.8009 -0.1917
 8670SOL    HW226824   6.919   6.087   0.168 -0.1583  0.2325  0.0658
 8671SOL     OW26825   4.130   4.492   3.325 -0.1392 -0.3330  0.0601
 8671SOL    HW126826   4.168   4.565   3.374  0.9493  0.1135 -1.4135
 8671SOL    HW226827   4.176   4.415   3.359  0.9926  0.0342 -0.6050
 8672SOL     OW26828   1.440   1.151   6.392 -0.0326 -0.2387  0.1668
 8672SOL    HW126829   1.468   1.195   6.472 -0.6469  1.1929 -0.3773
 8672SOL    HW226830   1.521   1.123   6.350  0.3509  0.1010  0.6782
 8673SOL     OW26831   5.319   0.250   6.383 -0.4640  0.1619  0.3692
 8673SOL    HW126832   5.270   0.198   6.447 -0.3182  0.0450  0.3850
 8673SOL    HW226833   5.258   0.320   6.358 -0.5528  0.1558  0.5679
 8674SOL     OW26834   4.397   1.602   3.985 -0.2023 -0.4739  0.3931
 8674SOL    HW126835   4.488   1.617   4.010 -0.2988 -1.3123  1.2555
 8674SOL    HW226836   4.348   1.672   4.028  0.1626  0.6732 -1.0125
 8675SOL     OW26837   5.470   5.648   3.491  1.2940  0.2609 -0.1596
 8675SOL    HW126838   5.392   5.604   3.523 -0.8081  1.2933 -3.6356
 8675SOL    HW226839   5.484   5.720   3.553 -1.0488  0.6079  0.0043
 8676SOL     OW26840   3.678   2.712   5.748  0.4046  0.2237  0.0380
 8676SOL    HW126841   3.675   2.798   5.708  0.7265  0.8403  1.3121
 8676SOL    HW226842   3.770   2.686   5.743  0.1085 -0.5992 -1.4634
 8677SOL     OW26843   1.782   1.965   3.777  0.0349  0.0303  0.6497
 8677SOL    HW126844   1.809   1.883   3.735 -3.1719 -1.2414  0.8854
 8677SOL    HW226845   1.703   1.942   3.825 -0.8623  3.2567  0.8510
 8678SOL     OW26846   2.691   4.475   2.946 -0.0950  0.5628  0.2839
 8678SOL    HW126847   2.748   4.508   2.876 -0.4346 -1.3369 -0.9112
 8678SOL    HW226848   2.752   4.437   3.009  0.1024  0.6613  0.1584
 8679SOL     OW26849   1.342   3.279   0.059 -0.4211 -0.3155 -0.4156
 8679SOL    HW126850   1.401   3.320   0.122 -1.4099  0.4205  0.0405
 8679SOL    HW226851   1.322   3.193   0.097  0.0380 -0.4051 -0.3777
 8680SOL     OW26852   5.020   0.915   1.144 -0.1143  0.1194  0.0924
 8680SOL    HW126853   5.109   0.944   1.164  0.2217 -1.6801  1.2921
 8680SOL    HW226854   5.030   0.861   1.065 -0.1019 -0.2374  0.3356
 8681SOL     OW26855   4.437   3.102   6.181  0.6241  0.3702 -0.3082
 8681SOL    HW126856   4.513   3.150   6.146  0.4810  0.4937 -0.4509
 8681SOL    HW226857   4.474   3.043   6.247  0.5422  2.4045  1.6365
 8682SOL     OW26858   7.437   5.518   4.770  0.2671 -0.4696 -0.5435
 8682SOL    HW126859   7.518   5.568   4.771  0.7656 -1.2797 -0.2005
 8682SOL    HW226860   7.463   5.430   4.742 -0.4483 -0.7916 -0.2235
 8683SOL     OW26861   3.520   5.975   0.734 -0.1086  0.0225 -0.0354
 8683SOL    HW126862   3.497   5.948   0.645  0.8066  1.3398 -0.6822
 8683SOL    HW226863   3.492   6.066   0.740  1.1947  0.4032  0.5084
 8684SOL     OW26864   6.059   0.766   2.274 -0.0738 -0.0875  0.4267
 8684SOL    HW126865   6.109   0.685   2.261 -1.0230 -0.6626  0.2889
 8684SOL    HW226866   6.034   0.792   2.185  1.0648  0.8995  0.3896
 8685SOL     OW26867   6.455   1.729   6.185 -0.2919  0.2207  0.5180
 8685SOL    HW126868   6.444   1.824   6.183 -1.9917  0.0887  2.2561
 8685SOL    HW226869   6.424   1.699   6.099  0.4648  1.2434 -0.1157
 8686SOL     OW26870   6.846   3.287   0.876  0.4277  0.9046  0.1327
 8686SOL    HW126871   6.850   3.194   0.897 -2.2090  0.5690 -0.6999
 8686SOL    HW226872   6.769   3.319   0.922 -0.7185  1.8851 -2.3595
 8687SOL     OW26873   2.749   7.817   3.740  0.9723  0.2308  0.1838
 8687SOL    HW126874   2.815   7.780   3.798  2.4233  0.6107 -1.1949
 8687SOL    HW226875   2.771   7.783   3.654 -1.1412 -0.2989 -0.1720
 8688SOL     OW26876   4.671   4.042   1.536  0.3013  0.0552 -0.0079
 8688SOL    HW126877   4.663   3.947   1.528  1.4776 -0.2190  1.7677
 8688SOL    HW226878   4.586   4.071   1.568 -0.3888 -0.2608 -1.4941
 8689SOL     OW26879   0.657   6.808   6.221  0.3201  0.0929  0.1222
 8689SOL    HW126880   0.671   6.859   6.301  2.7004  2.1471 -1.5223
 8689SOL    HW226881   0.627   6.871   6.157  2.9265 -0.5513 -1.8421
 8690SOL     OW26882   7.146   7.027   2.169 -0.0762  0.3333 -0.0076
 8690SOL    HW126883   7.229   6.981   2.154 -0.2749 -0.7112  1.9181
 8690SOL    HW226884   7.085   6.985   2.109  0.5727  0.4922 -0.7924
 8691SOL     OW26885   2.555   2.354   3.889 -0.3151 -0.2882  0.5937
 8691SOL    HW126886   2.605   2.293   3.835  0.5760  2.0329 -1.2833
 8691SOL    HW226887   2.616   2.381   3.958 -0.1188 -0.2094  0.3923
 8692SOL     OW26888   5.597   0.020   3.081 -0.2540  0.0699 -0.1998
 8692SOL    HW126889   5.614   0.108   3.115 -0.8325  0.1074 -0.0084
 8692SOL    HW226890   5.529   0.032   3.014  1.3935  0.1061 -1.9293
 8693SOL     OW26891   6.767   4.018   2.903  0.1095  0.1485  0.2124
 8693SOL    HW126892   6.747   4.006   2.810  1.2826 -0.4086  0.0214
 8693SOL    HW226893   6.700   3.968   2.949  0.6638 -1.1871 -0.4005
 8694SOL     OW26894   6.586   1.073   5.579 -0.1238 -0.7483 -0.1843
 8694SOL    HW126895   6.641   1.041   5.650  0.1546 -0.6265 -0.3430
 8694SOL    HW226896   6.565   0.994   5.528 -3.0938 -1.3892  1.8957
 8695SOL     OW26897   5.800   0.721   0.336 -0.3500  0.0920 -0.4797
 8695SOL    HW126898   5.888   0.756   0.349 -0.0198 -0.5577 -0.8931
 8695SOL    HW226899   5.794   0.705   0.241 -0.1774 -1.7122 -0.2174
 8696SOL     OW26900   1.809   5.377   1.329  0.1105  0.1953  0.6311
 8696SOL    HW126901   1.905   5.378   1.326  0.2347  1.2269  3.2141
 8696SOL    HW226902   1.786   5.290   1.360  0.0661 -0.9171 -2.4158
 8697SOL     OW26903   0.487   3.582   7.613 -0.6681  0.1280 -0.2831
 8697SOL    HW126904   0.572   3.553   7.645 -1.2029 -1.1697  0.0041
 8697SOL    HW226905   0.481   3.674   7.639  1.2901  0.6735 -1.6777
 8698SOL     OW26906   4.024   0.347   6.756 -0.2021  0.2379  0.2385
 8698SOL    HW126907   4.079   0.276   6.723 -0.5593  0.3191 -0.5346
 8698SOL    HW226908   3.998   0.319   6.844  0.2442 -0.2569  0.2139
 8699SOL     OW26909   2.709   4.680   5.218  0.4870  0.3820 -0.6298
 8699SOL    HW126910   2.764   4.606   5.246  0.3112 -0.0864 -1.5080
 8699SOL    HW226911   2.622   4.658   5.251 -0.1364 -1.1172 -3.1562
 8700SOL     OW26912   4.087   4.891   4.163 -0.5676 -0.2036 -0.2334
 8700SOL    HW126913   4.155   4.931   4.217 -0.0653 -0.3679 -0.7449
 8700SOL    HW226914   4.134   4.849   4.091 -1.3254  1.1377 -1.5358
 8701SOL     OW26915   0.080   5.878   4.488  0.2461  0.0555 -0.4836
 8701SOL    HW126916   0.131   5.958   4.471  0.0980  0.5346  1.2293
 8701SOL    HW226917  -0.002   5.910   4.526 -0.0716 -0.8857 -0.3739
 8702SOL     OW26918   4.610   2.849   5.239 -0.3780 -0.2774  0.5592
 8702SOL    HW126919   4.674   2.778   5.225  0.2844  0.5472 -0.6805
 8702SOL    HW226920   4.606   2.858   5.334  0.6991 -0.9400  0.6874
 8703SOL     OW26921   0.114   0.095   2.468  0.1038 -0.1715 -0.3989
 8703SOL    HW126922   0.028   0.136   2.474 -0.0522 -0.5017 -0.3523
 8703SOL    HW226923   0.115   0.030   2.538 -0.0746 -1.0219 -1.1880
 8704SOL     OW26924   3.972   3.313   1.394  0.5012  0.2957 -0.2780
 8704SOL    HW126925   4.008   3.272   1.315 -0.4904 -0.8798 -0.1292
 8704SOL    HW226926   3.877   3.313   1.379  0.5388  4.2648 -1.1238
 8705SOL     OW26927   4.776   5.215   3.306  0.1008  1.0262 -0.5355
 8705SOL    HW126928   4.723   5.180   3.235  0.3713 -0.6879  0.0763
 8705SOL    HW226929   4.716   5.220   3.381 -0.1737  2.7816 -0.8456
 8706SOL     OW26930   5.545   7.698   5.286 -0.0038  0.1571  0.3915
 8706SOL    HW126931   5.616   7.712   5.349 -2.2244 -3.2252  3.8841
 8706SOL    HW226932   5.567   7.615   5.244 -0.1285  0.8751 -1.1303
 8707SOL     OW26933   6.363   4.260   7.606 -0.2755  0.2203 -0.3115
 8707SOL    HW126934   6.452   4.226   7.595  0.0975  1.4816 -1.4469
 8707SOL    HW226935   6.310   4.210   7.544 -0.6026 -1.3588  1.2177
 8708SOL     OW26936   7.240   3.869   7.817 -0.2285 -0.0554 -0.4175
 8708SOL    HW126937   7.278   3.909   7.739  2.4699  0.1282  0.9103
 8708SOL    HW226938   7.260   3.776   7.810  0.4415  0.0277  0.2466
 8709SOL     OW26939   2.365   4.665   3.744 -0.1894 -0.0168 -0.0343
 8709SOL    HW126940   2.378   4.727   3.817 -2.5341  0.1540  0.2684
 8709SOL    HW226941   2.421   4.591   3.767 -0.0038  0.5230  1.3659
 8710SOL     OW26942   6.493   6.477   0.099  0.0599 -0.3319 -0.0081
 8710SOL    HW126943   6.552   6.472   0.024  0.7322 -0.0891  0.4950
 8710SOL    HW226944   6.414   6.519   0.065  0.5706  0.2736 -0.4465
 8711SOL     OW26945   0.902   0.778   5.729  0.0067  0.6779 -0.1560
 8711SOL    HW126946   0.916   0.862   5.772 -0.0251  0.7355 -0.2578
 8711SOL    HW226947   0.990   0.748   5.706  0.2563 -0.5540  2.2057
 8712SOL     OW26948   4.613   6.149   3.329  0.9186  0.1166  0.2770
 8712SOL    HW126949   4.644   6.062   3.304 -3.5296 -1.5429  0.0896
 8712SOL    HW226950   4.615   6.200   3.248  1.1001 -0.5733 -0.1521
 8713SOL     OW26951   0.765   2.244   3.877  0.4629 -0.0835  0.2044
 8713SOL    HW126952   0.783   2.336   3.900 -1.1016  0.2822  0.0047
 8713SOL    HW226953   0.677   2.228   3.911 -0.5769 -0.5426 -2.5899
 8714SOL     OW26954   2.418   4.801   7.907 -0.4135  0.1905  0.2889
 8714SOL    HW126955   2.372   4.884   7.897 -0.4781  0.0546 -0.5289
 8714SOL    HW226956   2.457   4.806   7.995  1.2205  1.9174 -0.4937
 8715SOL     OW26957   6.695   2.310   4.082 -0.0411  0.0754 -0.4566
 8715SOL    HW126958   6.732   2.355   4.158 -0.4278 -0.9417  0.3537
 8715SOL    HW226959   6.694   2.376   4.013  1.4331  0.6728  0.0801
 8716SOL     OW26960   5.623   5.261   0.973 -0.6550  0.0850 -0.2316
 8716SOL    HW126961   5.580   5.341   0.942  0.0720  0.4174 -0.4136
 8716SOL    HW226962   5.597   5.193   0.910  1.4464  0.9208 -2.0998
 8717SOL     OW26963   2.773   3.696   2.937  0.2046  0.5669  0.2619
 8717SOL    HW126964   2.784   3.603   2.959  0.4240  0.6193  0.3759
 8717SOL    HW226965   2.802   3.702   2.846  0.0208  0.4910  0.1983
 8718SOL     OW26966   4.834   0.291   0.028 -0.0425  0.6046  0.1289
 8718SOL    HW126967   4.748   0.248   0.030 -0.8496  2.1736  0.9519
 8718SOL    HW226968   4.890   0.234   0.080 -1.0297  0.4240  1.0265
 8719SOL     OW26969   2.907   0.524   2.568  0.3007 -0.8241  0.2607
 8719SOL    HW126970   2.897   0.429   2.577  0.3069 -0.6998  1.7777
 8719SOL    HW226971   2.822   0.560   2.594 -0.2238 -0.4691 -1.8664
 8720SOL     OW26972   0.907   1.211   6.423 -0.1094 -0.3874 -0.1655
 8720SOL    HW126973   0.927   1.206   6.330 -1.6964 -0.5526 -0.5087
 8720SOL    HW226974   0.842   1.281   6.431 -1.4523 -1.6793  0.5303
 8721SOL     OW26975   1.722   5.132   6.616 -0.0166  0.4591  0.2389
 8721SOL    HW126976   1.816   5.146   6.625  0.4056 -1.2545 -1.1291
 8721SOL    HW226977   1.705   5.048   6.659 -0.6740  0.1062 -0.6777
 8722SOL     OW26978   5.024   3.940   6.581 -0.1561  0.4009 -0.2065
 8722SOL    HW126979   5.023   3.877   6.654  0.4605 -0.1075 -0.6289
 8722SOL    HW226980   5.051   4.022   6.621  1.8130 -0.2494 -0.1347
 8723SOL     OW26981   2.706   6.227   5.415 -0.1279 -0.2157  0.2827
 8723SOL    HW126982   2.770   6.178   5.364  0.7686  0.8866  0.3361
 8723SOL    HW226983   2.715   6.318   5.386 -1.2310  0.0503  0.7306
 8724SOL     OW26984   4.128   7.817   2.352  0.1306 -0.0795  0.0539
 8724SOL    HW126985   4.074   7.854   2.282  1.1225 -0.2002 -0.7910
 8724SOL    HW226986   4.175   7.745   2.310 -0.2547 -1.0086  1.1851
 8725SOL     OW26987   2.822   5.884   7.624  0.1011 -0.0577 -0.0120
 8725SOL    HW126988   2.738   5.916   7.656 -0.8089 -0.9798 -1.3910
 8725SOL    HW226989   2.880   5.960   7.626 -1.1695  0.9412 -0.3741
 8726SOL     OW26990   5.001   5.843   4.599  0.2845  0.1776 -0.4027
 8726SOL    HW126991   5.039   5.916   4.649 -1.6814  0.7287  0.3649
 8726SOL    HW226992   5.069   5.776   4.598  1.4701  1.3474  0.4379
 8727SOL     OW26993   5.407   6.198   0.085  0.0048 -0.0396  0.7152
 8727SOL    HW126994   5.381   6.116   0.127  0.0636 -1.3732 -1.7737
 8727SOL    HW226995   5.325   6.240   0.059 -0.0094  0.5085  1.6307
 8728SOL     OW26996   0.875   2.749   3.568  0.3067  0.2345 -0.7983
 8728SOL    HW126997   0.841   2.764   3.656  0.1173 -0.0566 -0.8215
 8728SOL    HW226998   0.824   2.809   3.512 -0.8201 -0.8742 -0.9664
 8729SOL     OW26999   7.380   7.011   6.700  0.7610 -0.3634 -0.0783
 8729SOL    HW127000   7.378   7.019   6.796  0.5404 -0.3109 -0.0874
 8729SOL    HW227001   7.310   6.949   6.680  1.0859 -0.7109 -0.1726
 8730SOL     OW27002   2.407   6.429   6.562 -0.2758  0.2044 -0.7760
 8730SOL    HW127003   2.429   6.440   6.655 -0.7065  2.3303 -0.9120
 8730SOL    HW227004   2.447   6.345   6.539 -0.6041 -0.6112  1.4533
 8731SOL     OW27005   1.213   4.530   4.232 -0.0234 -0.1608  0.0441
 8731SOL    HW127006   1.129   4.570   4.208 -2.0189 -2.4903  2.6519
 8731SOL    HW227007   1.254   4.594   4.290 -1.0485  0.1175  0.4899
 8732SOL     OW27008   0.081   0.705   5.155 -0.3932 -0.0207  0.7252
 8732SOL    HW127009   0.136   0.782   5.171  0.1947 -0.3433  0.2692
 8732SOL    HW227010   0.131   0.651   5.094 -1.7704  0.2675 -0.7057
 8733SOL     OW27011   7.500   0.689   7.508  0.1238  0.5777  0.1293
 8733SOL    HW127012   7.449   0.747   7.451  0.9184  0.3493 -0.8443
 8733SOL    HW227013   7.444   0.673   7.583 -0.7448  1.3117 -0.3540
 8734SOL     OW27014   7.015   0.768   5.032 -0.0305  0.4810  0.7699
 8734SOL    HW127015   6.933   0.810   5.006 -0.1913  1.0087  2.1237
 8734SOL    HW227016   7.026   0.790   5.124  1.0183 -0.6000  0.9189
 8735SOL     OW27017   0.291   3.664   7.986 -0.0148  0.0116  0.3495
 8735SOL    HW127018   0.305   3.753   7.954 -2.1280 -0.1354 -1.0963
 8735SOL    HW227019   0.227   3.626   7.925 -1.6858 -1.3765  2.8855
 8736SOL     OW27020   3.076   7.301   3.855 -0.3745 -0.6541 -0.0621
 8736SOL    HW127021   3.032   7.235   3.801  2.0194 -0.4291 -2.3848
 8736SOL    HW227022   3.145   7.336   3.799  0.5037  1.5064  2.2723
 8737SOL     OW27023   1.156   1.642   4.345  0.3141  0.1332  0.3477
 8737SOL    HW127024   1.079   1.592   4.371  0.3732 -0.3018 -0.3087
 8737SOL    HW227025   1.194   1.593   4.272  0.0036  1.4673 -0.7417
 8738SOL     OW27026   1.383   3.661   5.940  0.2217  0.4831 -0.0518
 8738SOL    HW127027   1.311   3.701   5.988  0.7457  0.1356  1.0302
 8738SOL    HW227028   1.365   3.682   5.848 -0.3128  1.8916  0.3671
 8739SOL     OW27029   5.066   1.670   7.864  0.3440  0.5188  0.3071
 8739SOL    HW127030   5.039   1.652   7.774  2.2065  0.0882 -0.1840
 8739SOL    HW227031   5.130   1.741   7.856 -2.0181  2.8781  1.6254
 8740SOL     OW27032   1.178   5.401   5.967  0.5594  0.6508  0.3693
 8740SOL    HW127033   1.091   5.368   5.944  0.1480  1.7288  0.3423
 8740SOL    HW227034   1.222   5.411   5.883 -0.5059  3.3878  0.0997
 8741SOL     OW27035   5.056   0.724   4.232 -0.9719 -0.2508  0.1394
 8741SOL    HW127036   4.963   0.735   4.213 -0.7045 -0.0992 -1.1913
 8741SOL    HW227037   5.073   0.632   4.211 -0.5788  0.0246 -0.7757
 8742SOL     OW27038   7.388   6.379   0.156 -0.4155 -0.1080  0.0588
 8742SOL    HW127039   7.372   6.322   0.232  0.6721 -1.9969 -1.0941
 8742SOL    HW227040   7.470   6.424   0.177 -0.4371 -0.1659  0.2697
 8743SOL     OW27041   5.214   5.589   3.115 -0.3780 -0.0473  0.4460
 8743SOL    HW127042   5.173   5.673   3.096 -0.2693 -0.3420 -1.2660
 8743SOL    HW227043   5.203   5.576   3.209  1.1662  2.6914  1.0441
 8744SOL     OW27044   0.326   5.814   5.591  0.2284 -0.6565  0.1008
 8744SOL    HW127045   0.238   5.850   5.588  0.0771 -1.0859 -0.5432
 8744SOL    HW227046   0.328   5.764   5.673  0.3664  0.5875  0.8863
 8745SOL     OW27047   5.757   7.345   4.266  0.1083 -0.1305  0.3956
 8745SOL    HW127048   5.737   7.416   4.205 -0.2367  0.4148  1.1221
 8745SOL    HW227049   5.790   7.390   4.345 -1.8411 -0.6641  1.5423
 8746SOL     OW27050   7.741   4.380   2.553  0.6984  0.1165 -0.4417
 8746SOL    HW127051   7.739   4.394   2.459 -0.6390  0.9524 -0.2960
 8746SOL    HW227052   7.804   4.444   2.586  2.1910 -1.0806 -0.8965
 8747SOL     OW27053   2.710   5.623   2.911 -0.0368 -0.4043 -0.3374
 8747SOL    HW127054   2.747   5.638   2.824 -1.0046  1.2615 -0.4918
 8747SOL    HW227055   2.676   5.534   2.908  1.4618 -0.9585 -1.1030
 8748SOL     OW27056   1.077   1.551   6.490 -0.5603  0.3451  0.6549
 8748SOL    HW127057   1.113   1.612   6.426  0.3803  1.7970  2.5141
 8748SOL    HW227058   1.143   1.482   6.497 -0.0138  0.8912  1.0298
 8749SOL     OW27059   4.553   3.275   5.235  0.2821  0.2778  0.1740
 8749SOL    HW127060   4.611   3.209   5.196 -0.8639 -1.1410  0.8202
 8749SOL    HW227061   4.466   3.248   5.207 -0.0820  2.3911 -0.7918
 8750SOL     OW27062   7.001   6.915   0.720 -0.3434 -0.2725  0.0873
 8750SOL    HW127063   6.951   6.906   0.639  0.6159 -0.9792 -0.4406
 8750SOL    HW227064   7.073   6.974   0.698 -0.4093  0.0014  0.5878
 8751SOL     OW27065   2.907   1.108   6.883  0.5454 -0.0374 -0.2387
 8751SOL    HW127066   2.827   1.096   6.833  0.1399  1.4011  0.0398
 8751SOL    HW227067   2.910   1.034   6.943 -1.0427  0.3538  0.3499
 8752SOL     OW27068   3.457   4.451   3.790  0.5325  0.6140 -0.2112
 8752SOL    HW127069   3.477   4.408   3.873 -1.3947 -0.2086 -0.1412
 8752SOL    HW227070   3.515   4.526   3.787  1.2378  0.1523  1.4780
 8753SOL     OW27071   5.244   1.788   5.848 -0.4841 -0.0695 -0.5565
 8753SOL    HW127072   5.298   1.720   5.808  1.7739  1.9424 -1.0567
 8753SOL    HW227073   5.262   1.781   5.942  0.6120  0.5564 -0.7165
 8754SOL     OW27074   4.125   7.425   7.088  0.0022 -0.4098 -0.3793
 8754SOL    HW127075   4.218   7.429   7.108 -0.0758 -0.8060  0.0723
 8754SOL    HW227076   4.114   7.480   7.010  0.3971  0.6908  0.3433
 8755SOL     OW27077   7.250   2.984   6.481 -0.4611  0.5465  0.0693
 8755SOL    HW127078   7.177   2.931   6.451  0.7480 -0.7983 -0.5639
 8755SOL    HW227079   7.210   3.064   6.515 -2.2808 -0.6719  0.8102
 8756SOL     OW27080   2.666   2.483   6.479 -0.4649 -0.0665  0.0523
 8756SOL    HW127081   2.576   2.495   6.448 -0.6739 -2.0560 -0.1824
 8756SOL    HW227082   2.685   2.391   6.463  1.9067  0.4963 -0.5894
 8757SOL     OW27083   4.503   1.010   0.057 -0.5433  0.3176  0.9075
 8757SOL    HW127084   4.417   1.044   0.033  0.4770  1.6471 -1.0378
 8757SOL    HW227085   4.558   1.088   0.064  0.7354 -0.5924  1.1788
 8758SOL     OW27086   1.564   2.044   6.891  0.7610  0.3758  0.1084
 8758SOL    HW127087   1.585   2.032   6.799  0.8871 -0.6349  0.2675
 8758SOL    HW227088   1.519   2.128   6.895  0.7400  0.4091 -0.8728
 8759SOL     OW27089   5.156   3.948   7.510  0.6679 -0.8720  0.1635
 8759SOL    HW127090   5.199   3.983   7.431  1.0609  0.1742  0.8314
 8759SOL    HW227091   5.110   4.023   7.548  1.2998 -1.1319  1.4664
 8760SOL     OW27092   3.369   4.107   2.944  0.2907 -0.2780 -0.2306
 8760SOL    HW127093   3.405   4.192   2.968  0.5636 -0.3138 -0.5098
 8760SOL    HW227094   3.405   4.047   3.009  0.2118 -0.2033 -0.1182
 8761SOL     OW27095   4.647   0.770   5.266 -0.0669  0.1603  0.6723
 8761SOL    HW127096   4.575   0.829   5.290  0.7904  1.0288  1.1431
 8761SOL    HW227097   4.633   0.692   5.320 -0.8522  0.1757  0.5029
 8762SOL     OW27098   3.158   7.563   6.849  0.2529 -0.4262  0.0192
 8762SOL    HW127099   3.189   7.511   6.775  0.4932 -0.1867 -0.0497
 8762SOL    HW227100   3.169   7.506   6.925  0.0030 -0.6741 -0.1273
 8763SOL     OW27101   3.066   6.306   5.980  0.1185  0.2899 -0.2896
 8763SOL    HW127102   3.069   6.278   6.072  1.5036  0.5480 -0.2552
 8763SOL    HW227103   2.982   6.353   5.973  0.0818  0.4266  0.8875
 8764SOL     OW27104   5.985   7.837   1.962 -0.6897  0.3321  0.3097
 8764SOL    HW127105   6.038   7.896   1.907 -2.1802  1.6671  0.2672
 8764SOL    HW227106   6.022   7.847   2.050  0.1153  0.0750  0.0048
 8765SOL     OW27107   0.802   6.918   3.100 -0.3748 -0.3845  0.1175
 8765SOL    HW127108   0.875   6.977   3.082  0.0469 -0.1417  2.3908
 8765SOL    HW227109   0.840   6.831   3.100  0.1809 -0.1752  2.3824
 8766SOL     OW27110   7.718   5.217   6.758 -0.0897 -0.3569 -0.3426
 8766SOL    HW127111   7.725   5.121   6.760  2.5311 -0.1870 -0.4909
 8766SOL    HW227112   7.669   5.235   6.678 -0.5231 -1.5553 -0.3665
 8767SOL     OW27113   6.140   6.458   7.892  0.1763  0.1704  0.3135
 8767SOL    HW127114   6.191   6.429   7.817  1.5401  2.2786  0.3801
 8767SOL    HW227115   6.197   6.520   7.937 -0.2538 -1.7812  3.6752
 8768SOL     OW27116   7.759   6.466   5.705  0.0814  0.0710  0.3785
 8768SOL    HW127117   7.734   6.513   5.626  1.0712 -1.2090 -0.7191
 8768SOL    HW227118   7.693   6.398   5.716 -1.7050  2.0208  2.3162
 8769SOL     OW27119   0.094   7.417   5.116  0.4917 -0.0761  0.1472
 8769SOL    HW127120   0.081   7.507   5.088 -2.8108 -0.7435 -0.6036
 8769SOL    HW227121   0.126   7.424   5.206  1.7356  1.8401 -0.4236
 8770SOL     OW27122   4.250   4.428   0.782 -0.1335  0.3673  0.9259
 8770SOL    HW127123   4.296   4.488   0.841  1.5250 -1.0467  1.1197
 8770SOL    HW227124   4.287   4.444   0.696 -1.2650  1.1525  0.5691
 8771SOL     OW27125   4.834   3.080   0.408 -0.2334 -0.4021 -0.3688
 8771SOL    HW127126   4.854   3.028   0.486 -0.4235 -0.1724 -0.1648
 8771SOL    HW227127   4.918   3.113   0.379 -0.1283 -0.7107 -0.4179
 8772SOL     OW27128   0.085   0.488   1.043 -0.0267  1.1881 -0.2154
 8772SOL    HW127129   0.072   0.422   1.111  1.3793 -0.7829 -1.7976
 8772SOL    HW227130  -0.003   0.523   1.026 -1.2341 -2.1655 -1.2108
 8773SOL     OW27131   0.526   6.912   3.121  0.2709  0.2959  0.3386
 8773SOL    HW127132   0.617   6.896   3.098 -0.1216 -1.2478 -0.1941
 8773SOL    HW227133   0.481   6.830   3.100 -1.1602  0.8952  1.0041
 8774SOL     OW27134   0.660   6.534   6.948 -0.0757  0.3987 -0.0193
 8774SOL    HW127135   0.647   6.629   6.953  1.9793  0.7819 -1.6126
 8774SOL    HW227136   0.584   6.502   6.900  0.2187  1.4974 -1.2447
 8775SOL     OW27137   2.234   0.682   0.649 -0.0950  0.0508 -0.2311
 8775SOL    HW127138   2.149   0.701   0.689 -0.1473  0.4981 -0.5559
 8775SOL    HW227139   2.212   0.631   0.570 -0.2289  2.2125 -1.6306
 8776SOL     OW27140   1.899   2.919   6.249  0.1758  0.1632 -0.1859
 8776SOL    HW127141   1.966   2.850   6.258 -0.2120 -0.1827  0.0840
 8776SOL    HW227142   1.819   2.871   6.228 -0.1783  0.5017  0.3908
 8777SOL     OW27143   6.598   0.150   7.360  0.9882  0.7858  0.3325
 8777SOL    HW127144   6.546   0.171   7.283 -1.5179  1.7755  2.2222
 8777SOL    HW227145   6.575   0.059   7.381  1.0701  0.7659  0.3353
 8778SOL     OW27146   1.177   1.402   2.538 -0.2916 -0.1497 -0.1831
 8778SOL    HW127147   1.225   1.361   2.609  1.0516 -0.0178 -0.9834
 8778SOL    HW227148   1.112   1.458   2.581  1.9731  1.6601  0.9926
 8779SOL     OW27149   1.830   0.640   4.950  0.3070  0.2574 -0.5471
 8779SOL    HW127150   1.817   0.557   4.904 -1.0500 -0.8061  1.6929
 8779SOL    HW227151   1.919   0.634   4.986  0.3937  0.0125 -0.7957
 8780SOL     OW27152   4.219   3.152   0.763 -0.4599 -0.1252  0.2391
 8780SOL    HW127153   4.269   3.229   0.736  1.1402 -1.2543 -0.0965
 8780SOL    HW227154   4.261   3.080   0.717 -0.1496 -1.5825  2.7344
 8781SOL     OW27155   4.339   4.603   1.936 -0.0958  0.4391  0.0919
 8781SOL    HW127156   4.274   4.660   1.976 -0.8324  1.6991 -2.7466
 8781SOL    HW227157   4.413   4.603   1.997 -1.3470  1.8477  1.6510
 8782SOL     OW27158   2.753   6.788   0.084 -0.1748  0.1253 -0.9709
 8782SOL    HW127159   2.829   6.737   0.057 -0.7504 -0.5852 -1.2659
 8782SOL    HW227160   2.702   6.728   0.138  0.0799  0.9788  0.2479
 8783SOL     OW27161   7.425   7.925   4.825 -0.0011  0.0961 -0.3745
 8783SOL    HW127162   7.372   7.998   4.859  1.8037  0.4925  1.7034
 8783SOL    HW227163   7.392   7.848   4.871 -0.5427 -0.0820 -1.0565
 8784SOL     OW27164   2.607   6.525   2.720  0.0619  0.2084  0.1935
 8784SOL    HW127165   2.666   6.465   2.765 -0.3076 -0.2807  0.0246
 8784SOL    HW227166   2.636   6.525   2.629 -0.1969 -0.0301  0.1107
 8785SOL     OW27167   1.377   6.551   3.914  0.2504 -0.5118 -0.4975
 8785SOL    HW127168   1.380   6.536   4.009 -0.3347  0.1108 -0.3755
 8785SOL    HW227169   1.329   6.476   3.879  0.5629 -0.7993 -0.3181
 8786SOL     OW27170   7.091   6.850   4.762  0.2227  0.2509 -0.3584
 8786SOL    HW127171   7.182   6.844   4.732  0.0643  2.3339 -1.3564
 8786SOL    HW227172   7.039   6.854   4.682 -0.6326  0.4178  0.1962
 8787SOL     OW27173   3.794   0.652   7.943 -0.4403 -0.1468  0.2012
 8787SOL    HW127174   3.879   0.653   7.898 -1.7852 -0.5441 -2.4222
 8787SOL    HW227175   3.792   0.733   7.993  0.6991  0.7662 -1.2121
 8788SOL     OW27176   3.111   0.835   7.584 -0.1765  0.1443  0.0634
 8788SOL    HW127177   3.193   0.838   7.633  0.3961  0.4214 -0.8994
 8788SOL    HW227178   3.108   0.918   7.537 -1.8670  0.8965  1.4521
 8789SOL     OW27179   0.279   3.410   4.676 -0.8044 -0.5786  0.0085
 8789SOL    HW127180   0.374   3.406   4.689 -1.0159 -0.5047  1.6027
 8789SOL    HW227181   0.264   3.356   4.598  0.8147  1.3891 -1.7367
 8790SOL     OW27182   2.240   1.443   7.273 -0.4757 -0.3479 -0.0612
 8790SOL    HW127183   2.305   1.373   7.266 -1.9758 -1.6302 -1.6182
 8790SOL    HW227184   2.220   1.466   7.182 -2.5727 -0.3442  0.3777
 8791SOL     OW27185   6.663   5.214   6.648 -0.7204  0.1639 -0.5743
 8791SOL    HW127186   6.672   5.246   6.738 -0.4780  1.4889 -1.0522
 8791SOL    HW227187   6.610   5.135   6.656 -0.6874  0.2577  0.7375
 8792SOL     OW27188   1.423   2.411   3.963  0.5662  0.1368  0.3657
 8792SOL    HW127189   1.433   2.496   4.006  0.4360 -0.2032  1.0808
 8792SOL    HW227190   1.513   2.383   3.943  0.5104  1.3541 -1.6983
 8793SOL     OW27191   2.528   2.727   7.230  0.4848 -0.6255 -0.6775
 8793SOL    HW127192   2.569   2.679   7.301  0.8104  0.5131 -0.0885
 8793SOL    HW227193   2.534   2.819   7.256 -2.2209 -0.4107 -0.6648
 8794SOL     OW27194   1.502   4.930   3.852  0.2464  0.2541 -0.6981
 8794SOL    HW127195   1.447   4.910   3.776 -0.5637 -0.3636  0.0322
 8794SOL    HW227196   1.441   4.969   3.915  0.7189 -0.1597  0.0153
 8795SOL     OW27197   6.229   0.870   5.498  0.5244  0.0911 -0.3593
 8795SOL    HW127198   6.177   0.841   5.423  1.5669 -0.8219 -0.7371
 8795SOL    HW227199   6.165   0.888   5.566 -0.3449 -0.2133 -1.0902
 8796SOL     OW27200   5.438   2.864   3.938 -0.0339 -0.2980  0.6762
 8796SOL    HW127201   5.419   2.879   4.031  0.3030 -1.5835  0.9628
 8796SOL    HW227202   5.533   2.874   3.931 -0.1035  0.1588  0.3996
 8797SOL     OW27203   4.010   6.427   6.651  0.4981  0.3066 -0.0462
 8797SOL    HW127204   4.030   6.368   6.579 -2.1165  0.7114 -1.1662
 8797SOL    HW227205   4.083   6.415   6.713  1.2155 -2.3274 -1.3111
 8798SOL     OW27206   1.678   3.736   3.490 -0.1989  0.3116 -0.0941
 8798SOL    HW127207   1.670   3.641   3.499  1.4315  0.3090  1.4719
 8798SOL    HW227208   1.686   3.751   3.396  0.8946 -1.2126 -0.2553
 8799SOL     OW27209   5.093   4.252   2.826  0.0032 -0.3583  0.2303
 8799SOL    HW127210   5.092   4.157   2.814  0.9914 -0.2759 -0.5675
 8799SOL    HW227211   5.064   4.288   2.742 -1.1128  0.0358  0.7744
 8800SOL     OW27212   2.022   7.083   4.824 -0.2903 -0.0685 -0.2305
 8800SOL    HW127213   2.075   7.159   4.849 -1.2586  0.8274 -0.8437
 8800SOL    HW227214   2.075   7.008   4.849  0.4874  0.8075  0.8195
 8801SOL     OW27215   1.477   5.871   0.576 -0.1299 -0.3398 -0.2310
 8801SOL    HW127216   1.400   5.817   0.557 -0.1536  0.2136 -1.7478
 8801SOL    HW227217   1.551   5.813   0.561 -0.1807 -0.2011 -1.0068
 8802SOL     OW27218   7.282   6.661   2.901 -0.9237 -0.2835 -0.2631
 8802SOL    HW127219   7.339   6.674   2.826 -1.4299 -1.8411 -0.9209
 8802SOL    HW227220   7.206   6.715   2.883  0.5846  2.3899  0.9556
 8803SOL     OW27221   0.201   4.189   5.927 -0.4522  0.3324 -0.6158
 8803SOL    HW127222   0.184   4.266   5.873  0.1216  0.2952 -0.8495
 8803SOL    HW227223   0.294   4.195   5.948 -0.6513  0.3139  0.3138
 8804SOL     OW27224   4.620   7.488   4.394  0.3043  0.2322  0.4982
 8804SOL    HW127225   4.702   7.448   4.423  0.1937  0.9382  1.8245
 8804SOL    HW227226   4.598   7.443   4.312 -0.0886 -2.7934  2.1938
 8805SOL     OW27227   3.208   0.214   2.465  0.3206  0.9248 -0.3126
 8805SOL    HW127228   3.283   0.177   2.511 -0.2295 -0.6970 -0.6996
 8805SOL    HW227229   3.136   0.211   2.528  0.6887  3.0606  0.2727
 8806SOL     OW27230   3.243   3.926   0.931  0.0426 -0.6205  0.3064
 8806SOL    HW127231   3.183   3.851   0.929 -1.9844  0.9572  0.7008
 8806SOL    HW227232   3.209   3.983   1.000  0.5812  1.4578 -1.0931
 8807SOL     OW27233   7.905   5.173   4.118 -0.7996  0.4083  0.1561
 8807SOL    HW127234   7.987   5.212   4.085 -0.2758 -0.6594  0.1673
 8807SOL    HW227235   7.839   5.198   4.053 -0.2556  0.4071 -0.4057
 8808SOL     OW27236   5.529   0.727   6.590 -0.1504 -0.5766 -0.0743
 8808SOL    HW127237   5.526   0.724   6.495 -1.0893 -1.3142 -0.0205
 8808SOL    HW227238   5.497   0.814   6.613 -0.5900 -0.6539 -0.4030
 8809SOL     OW27239   3.323   3.240   6.557 -0.0272  0.3700 -0.4064
 8809SOL    HW127240   3.303   3.272   6.645  2.0659  0.2901  0.1193
 8809SOL    HW227241   3.303   3.147   6.561  2.0862 -0.0622  0.6416
 8810SOL     OW27242   2.518   5.194   7.866 -0.1662  0.1531  0.2068
 8810SOL    HW127243   2.493   5.160   7.952 -0.3241  0.2298  0.1911
 8810SOL    HW227244   2.605   5.232   7.880 -0.5572  0.9519  0.5392
 8811SOL     OW27245   6.684   7.215   6.227 -0.0332  0.0019  0.0122
 8811SOL    HW127246   6.620   7.228   6.158  1.1657  0.7857 -0.9826
 8811SOL    HW227247   6.768   7.237   6.186  0.6828  0.6022  1.7464
 8812SOL     OW27248   2.498   3.984   4.219 -0.2203 -0.2765  0.0583
 8812SOL    HW127249   2.449   3.902   4.221 -1.8376  0.6882  2.3582
 8812SOL    HW227250   2.453   4.041   4.282  2.4450  1.4697  0.4898
 8813SOL     OW27251   6.955   0.217   3.596  0.4934  0.1076  0.2086
 8813SOL    HW127252   7.003   0.162   3.535  0.3169  1.0536 -0.8107
 8813SOL    HW227253   6.945   0.301   3.550  1.0192  1.0992  1.8275
 8814SOL     OW27254   6.736   1.623   4.486 -0.4167  0.4890  0.0592
 8814SOL    HW127255   6.819   1.583   4.461  0.1626  0.9755  1.1496
 8814SOL    HW227256   6.692   1.556   4.539 -1.7761 -0.6553 -2.4320
 8815SOL     OW27257   6.584   7.370   7.618  0.4597 -0.2163 -0.1387
 8815SOL    HW127258   6.547   7.431   7.681  0.1265 -0.4020 -0.1563
 8815SOL    HW227259   6.523   7.371   7.544 -1.8242 -3.7358  1.5852
 8816SOL     OW27260   1.316   3.646   4.848  0.0391  0.5153  0.4355
 8816SOL    HW127261   1.292   3.600   4.929 -0.3915 -0.5977 -0.3296
 8816SOL    HW227262   1.351   3.730   4.879  0.7383 -0.2663  1.8360
 8817SOL     OW27263   0.605   4.902   6.361  0.1557  0.4428  0.3069
 8817SOL    HW127264   0.571   4.845   6.431 -0.0633 -0.2366 -0.3441
 8817SOL    HW227265   0.700   4.893   6.367  0.1358  0.3573  0.4962
 8818SOL     OW27266   0.472   2.843   1.684  0.1067 -0.1216  0.3019
 8818SOL    HW127267   0.396   2.823   1.738  0.5767 -0.3875  0.8635
 8818SOL    HW227268   0.518   2.912   1.732 -0.0166  0.3672 -0.2619
 8819SOL     OW27269   5.351   5.600   4.743  0.6167 -0.4545  0.1329
 8819SOL    HW127270   5.418   5.631   4.681  0.4707  0.0603  0.2298
 8819SOL    HW227271   5.268   5.613   4.697  0.4300  0.9103  0.8309
 8820SOL     OW27272   4.486   0.158   2.398 -0.3790  0.0267  0.1987
 8820SOL    HW127273   4.576   0.124   2.391  0.8135  2.5696  2.3654
 8820SOL    HW227274   4.438   0.087   2.442  0.6611 -1.1598 -0.5251
 8821SOL     OW27275   0.251   2.706   3.339  0.1881 -0.1406  0.3913
 8821SOL    HW127276   0.231   2.622   3.298 -2.5705  0.2581  0.8037
 8821SOL    HW227277   0.213   2.700   3.427  2.6867  0.4270  1.5808
 8822SOL     OW27278   0.222   1.039   6.142 -0.1239  0.1727 -0.0202
 8822SOL    HW127279   0.261   1.113   6.189  1.0058 -0.2934 -0.2169
 8822SOL    HW227280   0.153   1.078   6.090  0.3006  1.0612  0.0724
 8823SOL     OW27281   4.192   6.561   7.712  0.3072  0.2268  0.2538
 8823SOL    HW127282   4.266   6.623   7.715  0.1850  0.3395  1.0316
 8823SOL    HW227283   4.118   6.610   7.748 -0.3914  0.4249 -1.3974
 8824SOL     OW27284   4.676   3.390   6.728 -0.1427 -0.2835  0.3794
 8824SOL    HW127285   4.704   3.448   6.799 -4.8857  0.1050  2.1138
 8824SOL    HW227286   4.650   3.450   6.657  0.3679 -0.5181 -0.0098
 8825SOL     OW27287   3.727   7.592   0.616 -0.0282 -0.0162  0.1256
 8825SOL    HW127288   3.660   7.601   0.684  1.0870  1.2986  1.0629
 8825SOL    HW227289   3.711   7.505   0.579  0.1465 -1.2937  2.9236
 8826SOL     OW27290   2.957   2.604   6.826  0.1583 -0.7693  0.1900
 8826SOL    HW127291   2.935   2.662   6.898  0.4086  0.6077 -0.8259
 8826SOL    HW227292   2.872   2.571   6.795 -0.1643  0.8293 -0.6724
 8827SOL     OW27293   1.378   2.254   3.405 -0.3597  0.2217  0.1356
 8827SOL    HW127294   1.398   2.263   3.499 -0.2506 -0.7325  0.2123
 8827SOL    HW227295   1.326   2.174   3.400  2.3889 -1.5762 -0.9936
 8828SOL     OW27296   3.334   4.636   4.150  0.2344 -0.5990  0.4848
 8828SOL    HW127297   3.264   4.628   4.085 -0.0370  1.7041  0.4390
 8828SOL    HW227298   3.374   4.721   4.131  0.7696 -0.3215  2.7278
 8829SOL     OW27299   3.145   4.795   5.842 -0.0349  0.1723  0.1104
 8829SOL    HW127300   3.240   4.792   5.834 -0.1089 -0.8717 -0.4458
 8829SOL    HW227301   3.122   4.714   5.887 -0.6775  0.3117  0.0360
 8830SOL     OW27302   7.108   4.509   5.230  0.4325 -0.0779  0.3950
 8830SOL    HW127303   7.029   4.459   5.247 -0.1126 -0.2755 -2.4655
 8830SOL    HW227304   7.102   4.585   5.287 -0.7110 -1.2320  1.8283
 8831SOL     OW27305   2.782   4.982   1.796 -0.1098  0.2631 -0.2801
 8831SOL    HW127306   2.861   5.024   1.830 -0.7650  0.6203  0.8444
 8831SOL    HW227307   2.717   5.053   1.791 -1.1770 -0.5292  1.4786
 8832SOL     OW27308   4.489   5.801   0.232 -0.4835 -0.1075 -1.2221
 8832SOL    HW127309   4.464   5.815   0.141 -0.0639  0.5749 -1.2372
 8832SOL    HW227310   4.488   5.706   0.243 -0.0631 -0.2157 -2.0787
 8833SOL     OW27311   6.104   2.850   0.623 -0.3767 -0.5024  0.3268
 8833SOL    HW127312   6.183   2.841   0.569 -0.7350 -1.3237 -0.0772
 8833SOL    HW227313   6.134   2.893   0.703  0.3396 -0.1296 -0.1409
 8834SOL     OW27314   5.377   7.959   0.388 -0.4519  0.1356 -0.0096
 8834SOL    HW127315   5.337   7.884   0.432 -0.2792  0.3895  0.5827
 8834SOL    HW227316   5.467   7.961   0.420 -0.1596 -0.0201 -0.8116
 8835SOL     OW27317   0.213   3.183   5.399 -0.8660  0.0111  0.0438
 8835SOL    HW127318   0.265   3.261   5.386  1.2399 -1.2801  0.5136
 8835SOL    HW227319   0.205   3.143   5.312 -0.2521 -0.3008  0.1323
 8836SOL     OW27320   6.749   2.587   0.882 -0.0892  0.1567  0.1026
 8836SOL    HW127321   6.702   2.612   0.802 -0.5447 -1.3295 -0.0945
 8836SOL    HW227322   6.840   2.608   0.863 -0.2626  0.2609 -0.6337
 8837SOL     OW27323   6.553   1.120   2.798 -0.2567 -0.8176 -0.3259
 8837SOL    HW127324   6.629   1.124   2.857  0.5032  1.0789 -1.3888
 8837SOL    HW227325   6.546   1.208   2.761 -2.3882 -1.2302 -1.0130
 8838SOL     OW27326   0.589   3.665   1.568  0.5318  0.1057  0.3743
 8838SOL    HW127327   0.536   3.604   1.516  1.4608 -0.8338  0.5119
 8838SOL    HW227328   0.612   3.615   1.646  1.0759  0.7281  0.6130
 8839SOL     OW27329   3.782   4.930   0.654  0.2294 -0.7038  0.2235
 8839SOL    HW127330   3.871   4.957   0.632  0.4101  0.7545  2.6038
 8839SOL    HW227331   3.746   5.005   0.702 -1.2314 -2.4777  1.9440
 8840SOL     OW27332   1.238   1.474   0.715  0.5002  0.1486 -0.0045
 8840SOL    HW127333   1.158   1.487   0.765  0.0467 -3.6540  0.4082
 8840SOL    HW227334   1.221   1.518   0.631 -2.3823 -1.2557 -0.2324
 8841SOL     OW27335   1.458   1.406   4.607 -0.7620 -0.4413  0.5485
 8841SOL    HW127336   1.537   1.437   4.564 -0.5408 -0.1425  1.1544
 8841SOL    HW227337   1.421   1.484   4.649 -1.2043 -0.6404  0.5353
 8842SOL     OW27338   5.476   2.911   1.992 -0.2605  0.5767  0.7018
 8842SOL    HW127339   5.412   2.952   2.050 -0.8705  0.1316  0.3380
 8842SOL    HW227340   5.480   2.820   2.022 -1.1362  0.1584 -0.4482
 8843SOL     OW27341   4.551   2.608   4.705  0.0085  0.8504  0.4953
 8843SOL    HW127342   4.587   2.596   4.793  0.9533  0.8768  0.1199
 8843SOL    HW227343   4.494   2.532   4.692 -0.2748  0.9405  1.2004
 8844SOL     OW27344   7.980   5.218   5.441  0.2909  0.4251  0.2761
 8844SOL    HW127345   8.066   5.247   5.411  0.6548  0.8199  1.6900
 8844SOL    HW227346   7.974   5.127   5.413  0.1840  1.0672 -1.9157
 8845SOL     OW27347   1.939   2.968   3.280 -0.4515 -0.5509  0.2626
 8845SOL    HW127348   1.987   2.892   3.249  0.3281 -0.3930  1.0936
 8845SOL    HW227349   1.945   3.031   3.207  0.3657 -0.6281  0.2635
 8846SOL     OW27350   5.343   2.495   5.739  0.1062 -0.7394 -0.4356
 8846SOL    HW127351   5.257   2.472   5.775  0.3315  1.1678  1.4027
 8846SOL    HW227352   5.397   2.514   5.815  2.3755 -2.5008 -1.5409
 8847SOL     OW27353   4.593   7.608   1.900 -0.2248  0.0924 -0.3133
 8847SOL    HW127354   4.674   7.657   1.890  0.2234 -0.4717  0.4223
 8847SOL    HW227355   4.594   7.544   1.828 -0.4463  0.6626 -0.8239
 8848SOL     OW27356   6.420   1.362   7.238 -0.5237  0.1113  0.1240
 8848SOL    HW127357   6.378   1.290   7.190 -1.4145  0.0235  1.0107
 8848SOL    HW227358   6.405   1.341   7.330  1.5824  0.0359  0.4718
 8849SOL     OW27359   3.547   3.563   7.487 -0.0003 -0.3648  0.8541
 8849SOL    HW127360   3.565   3.470   7.482  1.1706 -0.0893 -0.1375
 8849SOL    HW227361   3.584   3.590   7.571  2.0114 -0.2889 -0.0434
 8850SOL     OW27362   5.624   7.624   7.131  0.3380  0.1205 -0.1032
 8850SOL    HW127363   5.634   7.529   7.128  0.3676  0.1413 -0.6171
 8850SOL    HW227364   5.635   7.646   7.224 -1.2394 -0.5606  0.2609
 8851SOL     OW27365   3.184   5.841   5.741 -0.2361 -0.6715 -0.3238
 8851SOL    HW127366   3.195   5.870   5.651 -0.0636  0.4167  0.0348
 8851SOL    HW227367   3.172   5.922   5.791 -1.7086 -1.3460  0.4360
 8852SOL     OW27368   5.447   0.641   7.649 -0.6683  0.2559 -0.5212
 8852SOL    HW127369   5.434   0.643   7.744  0.5943 -1.1704 -0.3023
 8852SOL    HW227370   5.377   0.584   7.617 -0.4407 -0.1366 -0.3245
 8853SOL     OW27371   2.729   7.303   2.849 -0.0121 -0.4796  0.0443
 8853SOL    HW127372   2.747   7.224   2.900  1.4302  0.3116  0.8023
 8853SOL    HW227373   2.657   7.279   2.791  0.4349 -2.3598  0.2493
 8854SOL     OW27374   0.003   5.470   0.801  0.1934  0.1581  0.0176
 8854SOL    HW127375   0.079   5.500   0.750  1.2870 -1.0731  0.8882
 8854SOL    HW227376  -0.069   5.471   0.738  1.3273 -0.4582 -1.3260
 8855SOL     OW27377   2.501   5.347   1.246 -0.0413  0.0455 -0.1278
 8855SOL    HW127378   2.477   5.439   1.235  2.4948  0.7242 -0.2599
 8855SOL    HW227379   2.578   5.335   1.191 -1.0411 -2.4890 -1.0417
 8856SOL     OW27380   2.505   5.130   2.584 -0.1650 -0.6890 -0.6906
 8856SOL    HW127381   2.557   5.101   2.509  2.8523  1.1318  0.6325
 8856SOL    HW227382   2.510   5.057   2.646  0.2096 -0.7961 -0.8490
 8857SOL     OW27383   0.736   2.111   3.577  0.3960  0.1436  0.0290
 8857SOL    HW127384   0.828   2.106   3.551  0.2381  0.0640 -0.5213
 8857SOL    HW227385   0.738   2.141   3.668  0.9271  1.1941 -0.3213
 8858SOL     OW27386   3.270   3.050   3.350 -0.1952 -0.4287 -0.6918
 8858SOL    HW127387   3.256   3.089   3.436 -0.9855 -1.3620 -0.3887
 8858SOL    HW227388   3.224   2.966   3.354  1.5791 -1.4451 -1.2847
 8859SOL     OW27389   0.852   7.622   6.759 -0.0300 -0.1532 -0.3000
 8859SOL    HW127390   0.794   7.625   6.836  0.7210 -0.2985  0.2720
 8859SOL    HW227391   0.792   7.617   6.684 -0.7709  0.2732  0.2594
 8860SOL     OW27392   1.226   2.707   2.222  0.3187 -0.1494  0.0623
 8860SOL    HW127393   1.206   2.794   2.187  0.6966  0.5392  1.5359
 8860SOL    HW227394   1.318   2.693   2.202 -0.1212 -0.8862 -1.5590
 8861SOL     OW27395   1.028   7.272   4.437  0.5459  0.3784  0.3688
 8861SOL    HW127396   0.969   7.211   4.393  0.6156  0.6628 -0.1188
 8861SOL    HW227397   1.047   7.339   4.372  0.4825  0.9203  0.8987
 8862SOL     OW27398   3.316   7.467   6.624 -0.0305  0.1226  0.0374
 8862SOL    HW127399   3.258   7.397   6.594 -1.3373  1.5589 -0.8755
 8862SOL    HW227400   3.389   7.466   6.562 -0.7590  0.4879 -0.8385
 8863SOL     OW27401   4.375   7.987   3.670 -0.0094 -0.1419 -0.6232
 8863SOL    HW127402   4.325   8.069   3.663  0.7899  0.2893 -1.3446
 8863SOL    HW227403   4.363   7.945   3.585  0.3567 -0.3263 -0.5828
 8864SOL     OW27404   2.521   0.551   4.948 -0.1204  0.0346  0.4710
 8864SOL    HW127405   2.550   0.639   4.972  2.6663 -0.2702 -1.5147
 8864SOL    HW227406   2.441   0.537   4.999  1.2809  2.3631  3.4106
 8865SOL     OW27407   0.951   7.154   0.281  0.0435 -0.2275 -0.3777
 8865SOL    HW127408   0.954   7.087   0.213  0.0117  0.1761 -0.7823
 8865SOL    HW227409   0.866   7.197   0.269  0.8167  1.0927 -1.2967
 8866SOL     OW27410   7.254   0.900   2.076 -0.4852 -0.1548 -0.1687
 8866SOL    HW127411   7.348   0.881   2.076  0.0706  2.3478 -2.5444
 8866SOL    HW227412   7.224   0.871   2.163  2.5568 -0.5140  0.8286
 8867SOL     OW27413   2.685   5.390   7.501  0.2897 -0.1641  0.0217
 8867SOL    HW127414   2.625   5.453   7.460  1.4305  0.2348 -1.0689
 8867SOL    HW227415   2.745   5.444   7.552  0.3685 -0.4843  0.2676
 8868SOL     OW27416   0.047   0.222   0.222  0.2632 -0.2057 -0.6350
 8868SOL    HW127417   0.081   0.148   0.173  0.3059 -0.4297 -0.2681
 8868SOL    HW227418   0.118   0.247   0.281 -0.1377 -0.5690  0.0092
 8869SOL     OW27419   5.536   7.552   3.459  0.3099  0.6431 -0.1091
 8869SOL    HW127420   5.442   7.564   3.473  0.0774 -0.2402 -0.9110
 8869SOL    HW227421   5.557   7.472   3.506  0.9372  1.5485  1.1959
 8870SOL     OW27422   4.914   2.114   7.458 -0.3451 -0.3845 -0.3411
 8870SOL    HW127423   4.952   2.078   7.538  1.4210 -0.0392 -1.0004
 8870SOL    HW227424   4.848   2.176   7.489 -0.2729 -0.8775  0.8428
 8871SOL     OW27425   1.345   2.140   2.565 -0.1066 -0.0781 -0.2841
 8871SOL    HW127426   1.276   2.113   2.625  0.6173 -0.2778  0.4754
 8871SOL    HW227427   1.387   2.058   2.538 -1.0486 -0.0636 -1.8345
 8872SOL     OW27428   3.830   7.120   4.236  0.3900  0.0942 -0.0786
 8872SOL    HW127429   3.807   7.044   4.289  1.9876 -1.3124 -1.3241
 8872SOL    HW227430   3.772   7.115   4.160  0.8377 -0.1961 -0.4089
 8873SOL     OW27431   6.785   6.648   6.843 -0.0052  0.1241 -0.1087
 8873SOL    HW127432   6.701   6.613   6.874  0.1042 -0.1501 -0.1254
 8873SOL    HW227433   6.766   6.681   6.756 -0.3428  0.9974  0.2877
 8874SOL     OW27434   3.404   0.103   2.627  0.2250  0.2505  0.3415
 8874SOL    HW127435   3.362   0.061   2.702 -0.8989 -1.8228 -1.3995
 8874SOL    HW227436   3.494   0.070   2.629  0.0199 -0.3079  0.3884
 8875SOL     OW27437   4.155   3.718   3.294 -0.3525 -0.1289  0.3419
 8875SOL    HW127438   4.111   3.714   3.209  0.1828 -2.9187  0.1285
 8875SOL    HW227439   4.246   3.739   3.273  0.4992 -3.8325 -0.1705
 8876SOL     OW27440   4.099   7.155   0.922  0.3307 -0.3557 -0.2024
 8876SOL    HW127441   4.017   7.106   0.916  0.5766 -0.6799 -1.0150
 8876SOL    HW227442   4.162   7.102   0.872  0.7636  0.4432 -0.5129
 8877SOL     OW27443   5.606   4.710   5.585 -1.0915 -0.2305  0.3792
 8877SOL    HW127444   5.652   4.635   5.548  0.4431  0.7480  0.2399
 8877SOL    HW227445   5.580   4.762   5.509  0.0891  0.6456  0.5587
 8878SOL     OW27446   7.915   2.938   7.857 -0.4646 -0.4305 -0.5830
 8878SOL    HW127447   7.871   3.020   7.881  0.3565 -0.1603  0.0107
 8878SOL    HW227448   7.844   2.876   7.842 -1.0624  0.1044  0.0059
 8879SOL     OW27449   6.787   1.446   6.012 -0.1347 -0.3804  0.8126
 8879SOL    HW127450   6.787   1.509   5.939 -0.5523 -1.2968  0.0087
 8879SOL    HW227451   6.704   1.399   6.003  0.7759 -1.9755  0.5841
 8880SOL     OW27452   4.800   4.490   0.851 -0.8137  0.4091 -0.0128
 8880SOL    HW127453   4.774   4.571   0.807  1.8615  1.3092 -0.0555
 8880SOL    HW227454   4.843   4.438   0.783 -0.2281  0.0842  0.5942
 8881SOL     OW27455   5.699   1.309   4.613  0.6719  0.2602 -0.3296
 8881SOL    HW127456   5.665   1.220   4.621 -0.3618  0.8562  2.4574
 8881SOL    HW227457   5.649   1.349   4.542  1.6762 -1.5847 -2.1166
 8882SOL     OW27458   1.450   5.141   5.047 -0.0562  0.2449 -0.2887
 8882SOL    HW127459   1.368   5.170   5.007 -0.4991 -0.6746 -0.0728
 8882SOL    HW227460   1.439   5.047   5.058  0.9962  0.1321 -0.1628
 8883SOL     OW27461   1.831   1.934   5.780  0.2525  0.2139 -0.0098
 8883SOL    HW127462   1.852   2.028   5.780 -0.7660  0.4878 -2.8040
 8883SOL    HW227463   1.741   1.930   5.748 -0.0480 -1.6639  1.0428
 8884SOL     OW27464   5.211   1.987   0.423 -0.1209 -0.1278 -0.2198
 8884SOL    HW127465   5.175   2.075   0.422 -0.4377 -0.2679 -1.2549
 8884SOL    HW227466   5.303   1.999   0.398  0.1395  0.0292  0.7637
 8885SOL     OW27467   5.420   2.283   1.872  0.1329 -0.7550  0.4517
 8885SOL    HW127468   5.503   2.262   1.916 -0.7300 -1.4089  1.7883
 8885SOL    HW227469   5.379   2.197   1.857  0.2191 -0.5165 -1.2759
 8886SOL     OW27470   3.507   7.607   5.371 -0.2300 -0.2189 -0.7269
 8886SOL    HW127471   3.571   7.545   5.336  0.9096 -0.5991  1.9056
 8886SOL    HW227472   3.433   7.553   5.398 -2.1636  0.2992 -4.5669
 8887SOL     OW27473   6.307   3.922   3.330 -0.2512  0.2643 -0.3489
 8887SOL    HW127474   6.340   3.835   3.307 -0.3746  0.8066 -2.7341
 8887SOL    HW227475   6.383   3.980   3.318  0.1356  0.3795  2.2941
 8888SOL     OW27476   7.580   1.118   1.058 -0.1818  0.1417 -0.5215
 8888SOL    HW127477   7.676   1.122   1.063 -0.2491  1.3191  0.0081
 8888SOL    HW227478   7.550   1.181   1.123 -1.3306 -0.5988 -0.3187
 8889SOL     OW27479   1.865   4.418   7.470  0.0423  0.0807  0.3238
 8889SOL    HW127480   1.855   4.511   7.450 -0.1073  0.0911  0.4403
 8889SOL    HW227481   1.776   4.388   7.490 -0.0030 -0.2326 -0.3431
 8890SOL     OW27482   7.705   4.992   3.198 -0.7107 -0.2080 -0.0499
 8890SOL    HW127483   7.729   4.928   3.265 -1.8837  0.5857  1.1671
 8890SOL    HW227484   7.662   4.941   3.130 -0.7155 -0.8561  0.4322
 8891SOL     OW27485   7.694   2.435   5.125 -0.2180  0.0331  0.7420
 8891SOL    HW127486   7.742   2.370   5.178  1.3808  1.3637  0.9637
 8891SOL    HW227487   7.607   2.397   5.114  0.1572 -1.3590  2.3388
 8892SOL     OW27488   0.860   0.610   1.476 -0.1005  0.1166  0.0549
 8892SOL    HW127489   0.951   0.623   1.451 -0.8427  1.6059 -1.9821
 8892SOL    HW227490   0.828   0.541   1.417 -0.2875 -0.3952  0.7535
 8893SOL     OW27491   6.246   7.847   1.648 -0.1816 -0.4617 -0.1675
 8893SOL    HW127492   6.154   7.871   1.653 -0.0232 -0.2047  2.3257
 8893SOL    HW227493   6.261   7.794   1.727  1.9395  0.0921 -0.1609
 8894SOL     OW27494   6.563   3.679   6.058  0.7508 -0.4362 -0.3121
 8894SOL    HW127495   6.551   3.637   5.973 -1.1535  0.0373 -0.2970
 8894SOL    HW227496   6.476   3.710   6.082  1.5828  0.9312  1.0339
 8895SOL     OW27497   6.188   6.910   7.863 -0.0412 -0.2015 -0.3219
 8895SOL    HW127498   6.104   6.951   7.884  0.3971  0.7983 -0.5399
 8895SOL    HW227499   6.239   6.978   7.821  0.7203 -0.9421 -0.6133
 8896SOL     OW27500   6.847   0.266   0.674 -0.0354 -0.0303  0.0572
 8896SOL    HW127501   6.799   0.183   0.677 -2.1500  1.0185 -2.5630
 8896SOL    HW227502   6.851   0.288   0.581  0.0138  3.0953  0.7394
 8897SOL     OW27503   6.864   2.637   0.531  0.0532 -0.5702  0.2909
 8897SOL    HW127504   6.933   2.702   0.516 -0.6942  0.3684  0.8736
 8897SOL    HW227505   6.785   2.678   0.495 -0.3906 -1.2169  0.5373
 8898SOL     OW27506   0.849   5.948   1.708 -0.2264 -0.5395 -0.2570
 8898SOL    HW127507   0.894   5.984   1.632  0.2950 -0.3497  0.1332
 8898SOL    HW227508   0.778   6.010   1.726  0.5792  0.2285  0.3283
 8899SOL     OW27509   5.015   7.352   3.804 -0.3633 -0.6692 -0.3819
 8899SOL    HW127510   5.045   7.437   3.771  0.0253 -0.9253 -0.6862
 8899SOL    HW227511   4.966   7.314   3.731 -0.6698 -0.6377 -0.1902
 8900SOL     OW27512   1.651   0.426   3.578 -0.1673  0.0344  0.0716
 8900SOL    HW127513   1.641   0.348   3.524 -2.6127  1.4801 -1.6896
 8900SOL    HW227514   1.662   0.393   3.667  1.2842 -2.3361 -0.9363
 8901SOL     OW27515   2.501   6.955   1.410 -0.5917  0.1092 -0.1868
 8901SOL    HW127516   2.440   6.887   1.438 -1.7897  1.4605  0.5220
 8901SOL    HW227517   2.448   7.014   1.355  0.2823  0.8069 -0.2890
 8902SOL     OW27518   4.902   3.745   7.767 -0.8777  0.0649 -0.6450
 8902SOL    HW127519   4.858   3.826   7.791 -1.1635 -0.4223  0.4904
 8902SOL    HW227520   4.995   3.767   7.771 -0.9507  0.3102 -0.2125
 8903SOL     OW27521   3.794   6.678   1.679 -0.0158 -0.4782 -0.2789
 8903SOL    HW127522   3.850   6.625   1.621 -0.5241  0.2602 -1.4605
 8903SOL    HW227523   3.726   6.712   1.621 -1.0350 -0.4288  0.9326
 8904SOL     OW27524   3.224   4.018   2.058  0.2243  0.2955  0.2129
 8904SOL    HW127525   3.203   3.933   2.096  0.9688 -0.1671 -0.4224
 8904SOL    HW227526   3.240   4.075   2.134  0.8616 -0.4115  0.6066
 8905SOL     OW27527   7.990   3.820   0.284  0.4833  0.0016 -0.3208
 8905SOL    HW127528   7.927   3.877   0.327  0.2950  0.5191 -1.2727
 8905SOL    HW227529   7.954   3.806   0.196 -0.1957 -2.7145  0.3429
 8906SOL     OW27530   6.931   1.641   1.821 -0.5110 -0.0337  0.2478
 8906SOL    HW127531   6.962   1.572   1.880  3.6664  1.0205 -0.5186
 8906SOL    HW227532   6.938   1.721   1.872  0.5174  0.5445 -0.7696
 8907SOL     OW27533   4.715   2.524   6.588  0.1272 -0.2057 -0.1228
 8907SOL    HW127534   4.808   2.512   6.572 -0.3820 -3.2024 -1.0249
 8907SOL    HW227535   4.704   2.508   6.681  0.4850  0.2092 -0.0024
 8908SOL     OW27536   1.365   0.092   5.737  0.3424  0.1053  0.2862
 8908SOL    HW127537   1.276   0.098   5.701  0.2088  0.7839  0.7143
 8908SOL    HW227538   1.422   0.110   5.663  0.1585 -1.5793 -0.2692
 8909SOL     OW27539   4.288   6.265   2.543  0.0335 -0.1753  0.1958
 8909SOL    HW127540   4.221   6.213   2.500  1.5505 -2.0456  0.0051
 8909SOL    HW227541   4.342   6.298   2.471 -0.1495  0.5710  0.3991
 8910SOL     OW27542   0.341   2.408   0.275 -0.1607 -0.1979 -0.3068
 8910SOL    HW127543   0.313   2.481   0.329  0.5892 -0.7661  0.8568
 8910SOL    HW227544   0.291   2.333   0.308  0.8592 -0.7001  0.1119
 8911SOL     OW27545   1.125   2.140   3.363 -0.5435 -0.0384 -0.7736
 8911SOL    HW127546   1.062   2.100   3.424  2.1474 -1.7349  1.0259
 8911SOL    HW227547   1.120   2.234   3.382 -0.7843 -0.3976  1.0902
 8912SOL     OW27548   4.217   3.551   1.436  0.2853  0.1797 -0.7527
 8912SOL    HW127549   4.182   3.555   1.347  1.5683  0.9016 -1.2334
 8912SOL    HW227550   4.262   3.635   1.448  1.0400 -0.3540  0.1891
 8913SOL     OW27551   3.059   1.884   2.732 -0.0090  0.8487 -0.5229
 8913SOL    HW127552   3.141   1.892   2.683 -0.3018 -0.6510 -1.2933
 8913SOL    HW227553   3.055   1.964   2.784  3.8283 -0.7059  2.3928
 8914SOL     OW27554   2.858   3.000   0.791  0.5047  0.2930 -0.0525
 8914SOL    HW127555   2.892   2.973   0.706 -0.4912  0.8365 -0.6266
 8914SOL    HW227556   2.840   3.093   0.782  0.2011  0.3125  0.6840
 8915SOL     OW27557   0.096   1.115   0.540  0.4307 -0.5984  0.5335
 8915SOL    HW127558   0.065   1.198   0.505  0.9847 -1.6449 -2.5643
 8915SOL    HW227559   0.189   1.131   0.559  0.3437 -0.2886  0.7103
 8916SOL     OW27560   0.511   3.694   5.082 -0.1884  0.1846 -0.3572
 8916SOL    HW127561   0.606   3.699   5.069  0.0132  1.6492  1.5796
 8916SOL    HW227562   0.491   3.601   5.069  2.0630 -0.8038  2.5678
 8917SOL     OW27563   7.113   7.332   3.052 -0.0234  0.5184 -0.4000
 8917SOL    HW127564   7.138   7.379   2.973 -0.3878  0.0184 -0.8181
 8917SOL    HW227565   7.194   7.321   3.102  0.3442  0.1327 -1.0824
 8918SOL     OW27566   4.144   5.414   4.010  0.5404 -0.4402 -0.2897
 8918SOL    HW127567   4.062   5.376   3.980  0.5951  0.4463 -1.5944
 8918SOL    HW227568   4.145   5.396   4.104 -1.3643 -0.0604 -0.1721
 8919SOL     OW27569   1.857   5.883   4.285  0.1822 -0.0116  0.3107
 8919SOL    HW127570   1.921   5.954   4.293  0.1892 -0.0887  0.9735
 8919SOL    HW227571   1.899   5.821   4.226 -0.1206  0.8594 -0.8228
 8920SOL     OW27572   6.394   0.857   0.051  0.2949 -0.1688 -0.1719
 8920SOL    HW127573   6.419   0.936   0.100  2.2124 -0.4818 -0.6049
 8920SOL    HW227574   6.367   0.795   0.118  4.3266 -1.1137  0.7243
 8921SOL     OW27575   0.344   4.968   3.916 -0.1804  0.3948  0.4493
 8921SOL    HW127576   0.354   5.004   4.004 -0.2665 -0.0983  0.6585
 8921SOL    HW227577   0.367   4.876   3.925  0.5911  0.5186 -0.2018
 8922SOL     OW27578   2.735   3.886   2.614  0.2487 -0.2754  0.0300
 8922SOL    HW127579   2.736   3.792   2.600  0.6591 -0.1039 -1.1703
 8922SOL    HW227580   2.727   3.923   2.526  0.8846  0.8205  0.4211
 8923SOL     OW27581   2.468   2.740   2.208 -0.2050  0.1250  0.0206
 8923SOL    HW127582   2.494   2.830   2.190 -1.7724  0.6970  0.5647
 8923SOL    HW227583   2.377   2.735   2.178 -0.8120 -0.6637  1.9628
 8924SOL     OW27584   3.389   3.885   1.828 -0.3093 -0.3422 -0.0790
 8924SOL    HW127585   3.474   3.926   1.842 -0.0947 -0.7808 -0.0891
 8924SOL    HW227586   3.326   3.947   1.865  0.0544 -0.2609  0.4119
 8925SOL     OW27587   7.793   1.543   3.768  0.2937 -0.6636 -0.1889
 8925SOL    HW127588   7.866   1.601   3.787 -0.5760  0.2617  0.4209
 8925SOL    HW227589   7.721   1.602   3.743 -0.8984 -1.3965  1.4022
 8926SOL     OW27590   5.707   5.402   3.042  0.0499 -0.1467 -0.2062
 8926SOL    HW127591   5.647   5.474   3.021  0.6679  1.2201  2.5035
 8926SOL    HW227592   5.650   5.333   3.075 -0.4694 -0.6737 -2.1191
 8927SOL     OW27593   5.250   1.403   2.055  0.5724  0.3782 -0.1602
 8927SOL    HW127594   5.302   1.343   2.110 -1.3952 -0.0384  1.3025
 8927SOL    HW227595   5.274   1.490   2.086 -0.4555  0.1477  1.3208
 8928SOL     OW27596   3.926   0.886   7.770  0.4361  0.3656 -0.1485
 8928SOL    HW127597   3.893   0.859   7.685 -1.2647 -1.8402  1.1442
 8928SOL    HW227598   4.008   0.837   7.781 -0.3841 -0.9397  0.3124
 8929SOL     OW27599   5.827   1.548   2.790 -0.0200 -0.6329  0.0564
 8929SOL    HW127600   5.845   1.589   2.706 -1.0958  1.3484  0.7642
 8929SOL    HW227601   5.739   1.511   2.781 -0.2095 -0.2616  0.3546
 8930SOL     OW27602   6.482   1.508   5.431 -0.1114  0.3087 -0.5630
 8930SOL    HW127603   6.497   1.451   5.357 -1.8022 -1.1607  0.1892
 8930SOL    HW227604   6.494   1.452   5.508  1.3654  1.7434  0.2790
 8931SOL     OW27605   5.893   4.459   1.235 -0.4256 -0.0652  0.1638
 8931SOL    HW127606   5.960   4.467   1.167 -1.1258 -0.0785 -0.5324
 8931SOL    HW227607   5.819   4.511   1.202 -1.2636 -1.1659  0.2992
 8932SOL     OW27608   0.346   3.940   4.239 -0.2775  0.0502  0.0721
 8932SOL    HW127609   0.306   3.961   4.323  2.0921  0.8092  1.0436
 8932SOL    HW227610   0.372   4.024   4.203 -0.6525 -0.3282 -1.1126
 8933SOL     OW27611   4.095   6.148   4.352  0.2790  0.1234 -0.2961
 8933SOL    HW127612   4.137   6.205   4.417 -0.5231  0.0781  0.2646
 8933SOL    HW227613   4.032   6.206   4.307  1.5188  0.4105 -1.7157
 8934SOL     OW27614   6.440   3.292   0.239  0.0889 -0.6356  0.0209
 8934SOL    HW127615   6.348   3.281   0.214  0.1409 -0.5130 -0.2289
 8934SOL    HW227616   6.444   3.379   0.280  0.2793 -0.2176 -0.8677
 8935SOL     OW27617   5.637   0.787   7.295 -0.0193 -0.1811 -0.4756
 8935SOL    HW127618   5.677   0.867   7.329  1.4048 -1.4325  0.8735
 8935SOL    HW227619   5.654   0.790   7.201  0.2724  0.9651 -0.3957
 8936SOL     OW27620   2.516   0.100   4.370  0.0716  0.0967 -0.6938
 8936SOL    HW127621   2.510   0.151   4.289  0.1664  0.1551 -0.6641
 8936SOL    HW227622   2.449   0.138   4.427  0.5939  0.6306 -0.4301
 8937SOL     OW27623   5.602   4.280   3.432 -0.0081  0.5940 -0.8759
 8937SOL    HW127624   5.537   4.294   3.501  0.3724 -0.2208 -0.3392
 8937SOL    HW227625   5.598   4.359   3.379 -0.7911  0.9422 -0.3131
 8938SOL     OW27626   7.883   7.490   3.441 -0.4792  0.0296  0.4173
 8938SOL    HW127627   7.870   7.492   3.535  0.9179  1.5760  0.6134
 8938SOL    HW227628   7.855   7.576   3.411 -1.1442 -0.5402 -0.6167
 8939SOL     OW27629   3.889   7.238   3.432  0.4919 -0.2958 -0.6664
 8939SOL    HW127630   3.949   7.273   3.367 -0.7808  0.6839 -1.3343
 8939SOL    HW227631   3.884   7.144   3.412  0.6219 -0.1125 -1.5703
 8940SOL     OW27632   5.335   2.627   7.636 -0.5581  0.3898 -0.1034
 8940SOL    HW127633   5.331   2.706   7.690 -1.1892  1.1720 -1.2573
 8940SOL    HW227634   5.269   2.569   7.673 -0.3570  0.5579  0.5202
 8941SOL     OW27635   7.420   6.755   0.065  0.4053 -0.1367  0.0701
 8941SOL    HW127636   7.456   6.727  -0.019  1.3206  1.7191 -0.1810
 8941SOL    HW227637   7.424   6.677   0.120  0.4171 -1.1912 -1.4015
 8942SOL     OW27638   7.935   6.418   1.956  0.3876 -0.0840  0.8128
 8942SOL    HW127639   7.874   6.466   2.012  1.7792  0.8162  1.5713
 8942SOL    HW227640   7.909   6.441   1.867 -1.0117 -0.5094  1.0990
 8943SOL     OW27641   3.707   0.360   2.966 -0.1396  0.1083 -0.3543
 8943SOL    HW127642   3.671   0.365   2.878  0.5613 -0.3616 -0.6694
 8943SOL    HW227643   3.640   0.399   3.022 -0.3370  0.9256 -1.1653
 8944SOL     OW27644   2.844   0.465   6.309 -0.8953 -0.0173  0.1319
 8944SOL    HW127645   2.773   0.426   6.257 -0.8946  1.0509 -0.6899
 8944SOL    HW227646   2.840   0.419   6.393 -1.5281 -1.0866 -0.4638
 8945SOL     OW27647   4.994   4.633   7.581  0.4823  0.2511  0.4893
 8945SOL    HW127648   4.910   4.631   7.535  0.2416 -0.1801  0.9502
 8945SOL    HW227649   5.049   4.690   7.527 -0.0460  0.3849  0.0875
 8946SOL     OW27650   1.292   6.621   5.144 -0.5835  0.0646 -0.3430
 8946SOL    HW127651   1.319   6.632   5.053  0.9466  3.1118  0.4117
 8946SOL    HW227652   1.196   6.618   5.140 -0.5090 -1.2372 -2.1430
 8947SOL     OW27653   6.594   2.205   2.633  0.7420 -0.0112 -0.3243
 8947SOL    HW127654   6.589   2.218   2.728 -1.9525 -3.1621  0.0415
 8947SOL    HW227655   6.527   2.263   2.597  2.6996  2.2263 -0.4853
 8948SOL     OW27656   5.889   5.569   4.335 -0.3005 -0.4550  0.0940
 8948SOL    HW127657   5.888   5.652   4.287 -1.1385 -0.9184 -0.7214
 8948SOL    HW227658   5.968   5.572   4.389 -0.6017  1.0940  0.4607
 8949SOL     OW27659   4.140   0.365   4.036  0.1122 -0.2711  0.4744
 8949SOL    HW127660   4.074   0.296   4.043  0.7263 -0.7494  1.7209
 8949SOL    HW227661   4.196   0.336   3.963 -1.2656  0.3337 -0.8311
 8950SOL     OW27662   2.951   4.007   0.092  0.5281 -0.3901  0.0264
 8950SOL    HW127663   3.004   4.085   0.108  2.7542 -1.7693 -0.3537
 8950SOL    HW227664   2.962   3.988  -0.001 -2.5329  0.5974 -0.5909
 8951SOL     OW27665   4.643   4.086   5.652  0.2291  0.3359 -0.0590
 8951SOL    HW127666   4.656   4.175   5.620  0.0722  0.5034  0.3337
 8951SOL    HW227667   4.608   4.097   5.741  0.2368 -0.1164  0.0051
 8952SOL     OW27668   5.656   1.322   6.956  0.5746  0.5118  0.7087
 8952SOL    HW127669   5.730   1.275   6.918  1.2425  1.4875  0.7628
 8952SOL    HW227670   5.592   1.327   6.885 -0.2356 -1.9711  1.2315
 8953SOL     OW27671   1.776   4.022   1.785  0.2310 -0.3775 -0.4551
 8953SOL    HW127672   1.798   4.112   1.807 -0.6264 -0.0013 -1.1069
 8953SOL    HW227673   1.758   3.980   1.869  0.4419  0.1144 -0.1667
 8954SOL     OW27674   1.967   5.051   1.634  0.0580 -0.1823 -0.3677
 8954SOL    HW127675   1.971   5.003   1.552  0.2962 -3.3288  1.3794
 8954SOL    HW227676   1.890   5.015   1.679 -1.6246  3.3557 -0.2934
 8955SOL     OW27677   1.632   2.077   4.170 -0.0469 -0.4088  0.0211
 8955SOL    HW127678   1.566   2.009   4.161  0.3921 -1.1975  2.4965
 8955SOL    HW227679   1.711   2.039   4.131 -0.5558 -0.1284 -1.3326
 8956SOL     OW27680   2.741   0.094   4.968 -0.5474  0.2360 -0.5924
 8956SOL    HW127681   2.662   0.111   4.916 -0.5774  0.1190 -0.5865
 8956SOL    HW227682   2.778   0.180   4.985  0.6837  0.1657 -2.6787
 8957SOL     OW27683   6.151   7.461   2.845 -0.0828  0.2101  0.0858
 8957SOL    HW127684   6.206   7.402   2.897  0.0543  0.5079  0.2809
 8957SOL    HW227685   6.120   7.527   2.908 -2.0570 -0.9325  0.3481
 8958SOL     OW27686   4.148   6.300   7.904 -0.1596  0.2576  0.4862
 8958SOL    HW127687   4.113   6.389   7.898  0.3174  0.4162  0.0229
 8958SOL    HW227688   4.072   6.243   7.888 -0.3735  0.5918  0.3115
 8959SOL     OW27689   2.309   1.833   5.757 -0.0764 -0.2261 -0.5725
 8959SOL    HW127690   2.316   1.828   5.852  1.8286  2.1363 -0.5257
 8959SOL    HW227691   2.215   1.843   5.741 -0.3691 -0.0150  1.1150
 8960SOL     OW27692   2.485   5.304   6.628  0.1819  0.6068 -0.4667
 8960SOL    HW127693   2.560   5.364   6.626  0.1189  0.6820 -0.5337
 8960SOL    HW227694   2.523   5.220   6.655  0.0205  1.0200  1.0985
 8961SOL     OW27695   2.835   5.605   6.444  0.4566  0.0656 -0.9810
 8961SOL    HW127696   2.839   5.685   6.498  2.1266 -0.2632 -0.6028
 8961SOL    HW227697   2.896   5.545   6.486 -0.3398 -1.2106 -1.6304
 8962SOL     OW27698   5.105   1.161   5.986  0.1975 -0.0659 -0.7318
 8962SOL    HW127699   5.057   1.189   6.064 -1.1619 -1.1014 -1.1856
 8962SOL    HW227700   5.091   1.067   5.981  1.5280 -0.2390 -1.3926
 8963SOL     OW27701   1.613   4.027   4.754  0.1555  0.2406 -0.4275
 8963SOL    HW127702   1.593   3.975   4.831 -0.2520 -0.0906 -0.7585
 8963SOL    HW227703   1.705   4.007   4.734 -0.4240 -1.5073 -1.4441
 8964SOL     OW27704   4.831   3.338   2.966 -0.2859 -0.2561 -0.1202
 8964SOL    HW127705   4.780   3.401   2.914  1.2718 -0.5477 -2.0299
 8964SOL    HW227706   4.828   3.257   2.916 -0.8574 -1.2616  1.5072
 8965SOL     OW27707   2.850   3.828   3.155 -0.0260 -0.2139  0.2488
 8965SOL    HW127708   2.834   3.776   3.076  1.8790 -0.3170 -0.0909
 8965SOL    HW227709   2.799   3.783   3.223 -2.0237  0.1071 -0.9684
 8966SOL     OW27710   2.911   2.586   7.559 -0.5813  0.6226 -0.1295
 8966SOL    HW127711   2.963   2.642   7.501 -0.8618 -0.9676 -1.9674
 8966SOL    HW227712   2.969   2.512   7.579 -1.0578  0.3748  0.3397
 8967SOL     OW27713   5.987   4.494   2.154  0.1883 -0.3667  0.6684
 8967SOL    HW127714   5.993   4.570   2.095 -0.2800 -0.9837 -0.1918
 8967SOL    HW227715   5.928   4.522   2.223 -0.5091 -0.1645 -0.0013
 8968SOL     OW27716   1.163   7.450   1.012 -0.2627  0.6145 -0.0188
 8968SOL    HW127717   1.176   7.401   0.931 -0.7405 -1.7393  1.3024
 8968SOL    HW227718   1.252   7.476   1.038 -0.0517  0.8631 -0.9462
 8969SOL     OW27719   5.579   3.886   0.773  0.2249 -0.0812 -0.2333
 8969SOL    HW127720   5.671   3.863   0.782  1.2237  4.4004  1.8199
 8969SOL    HW227721   5.537   3.852   0.852  1.0377  2.0362  1.1259
 8970SOL     OW27722   1.082   1.021   6.244 -0.8091 -0.4750  0.0452
 8970SOL    HW127723   1.017   0.966   6.202 -0.7636 -0.3926 -0.1382
 8970SOL    HW227724   1.066   1.109   6.208  1.1073 -0.9468 -2.0543
 8971SOL     OW27725   5.925   2.361   1.725  0.6164  0.1546 -0.3060
 8971SOL    HW127726   5.959   2.304   1.656  1.1935  0.8193 -0.5779
 8971SOL    HW227727   5.831   2.365   1.709  0.3491 -1.9002  0.6021
 8972SOL     OW27728   5.611   2.999   1.106  0.3593 -0.1769 -0.1547
 8972SOL    HW127729   5.700   3.024   1.083  0.3907  0.5879  0.7520
 8972SOL    HW227730   5.615   2.979   1.200 -0.4243 -0.1318 -0.1075
 8973SOL     OW27731   5.220   0.066   7.516  0.1815  0.2032 -0.2077
 8973SOL    HW127732   5.242   0.059   7.423 -1.7076 -2.0425 -0.5415
 8973SOL    HW227733   5.160   0.140   7.520  1.5910  1.3769 -0.4970
 8974SOL     OW27734   5.261   7.405   5.935  0.6552  0.1019  0.2717
 8974SOL    HW127735   5.291   7.330   5.884  0.8554  0.2518  0.1699
 8974SOL    HW227736   5.165   7.397   5.935  0.7394 -1.3506  2.0585
 8975SOL     OW27737   5.911   2.386   0.759  0.2206  0.5905 -0.4063
 8975SOL    HW127738   5.852   2.402   0.686  1.2067  0.5793 -1.2265
 8975SOL    HW227739   5.998   2.407   0.724  0.4947  2.6313  1.4179
 8976SOL     OW27740   3.202   2.211   4.277 -0.3507 -0.1302 -0.1634
 8976SOL    HW127741   3.283   2.261   4.283  0.9700 -2.0645 -1.3003
 8976SOL    HW227742   3.229   2.120   4.289 -2.3181 -0.8078 -0.7113
 8977SOL     OW27743   3.684   1.227   5.114  0.0195  0.6115  0.4654
 8977SOL    HW127744   3.714   1.299   5.169 -0.9419  1.0097  0.4838
 8977SOL    HW227745   3.589   1.239   5.109 -0.0358 -0.1035 -0.3073
 8978SOL     OW27746   1.243   6.312   3.314 -0.0493 -0.1366 -0.2392
 8978SOL    HW127747   1.194   6.230   3.319 -0.6170  0.2961  1.5128
 8978SOL    HW227748   1.335   6.285   3.307 -0.4062 -0.9290 -2.0351
 8979SOL     OW27749   7.705   4.131   3.497 -0.3615  0.0600 -0.3157
 8979SOL    HW127750   7.738   4.070   3.431  2.5856  1.9363 -0.6798
 8979SOL    HW227751   7.655   4.196   3.447  2.3673  1.8179 -0.8676
 8980SOL     OW27752   2.336   4.681   2.842  0.2810 -0.0904  0.1581
 8980SOL    HW127753   2.243   4.669   2.863  0.6945 -1.1673  1.3897
 8980SOL    HW227754   2.346   4.640   2.756 -0.4271  0.2379 -0.0895
 8981SOL     OW27755   0.156   5.987   6.416  0.3513 -0.4224  0.7362
 8981SOL    HW127756   0.145   6.081   6.404  0.7678 -0.0248  3.1960
 8981SOL    HW227757   0.070   5.955   6.444  0.4798 -0.5886  0.9483
 8982SOL     OW27758   0.211   6.303   7.670 -0.2830 -0.2241  0.2430
 8982SOL    HW127759   0.117   6.287   7.678 -0.6177  0.2833 -2.4460
 8982SOL    HW227760   0.218   6.395   7.647  0.9147 -0.1476  0.8784
 8983SOL     OW27761   5.934   6.974   3.993  0.3496  0.0086 -0.0596
 8983SOL    HW127762   5.975   7.060   3.979  1.4683 -0.1337  2.2017
 8983SOL    HW227763   5.920   6.941   3.904  0.0610  2.4387 -0.9803
 8984SOL     OW27764   1.060   1.771   5.395 -0.7376 -0.2437  0.0399
 8984SOL    HW127765   1.093   1.704   5.336 -0.7334 -0.0948 -0.1262
 8984SOL    HW227766   1.056   1.728   5.481 -0.5496 -0.3979 -0.0283
 8985SOL     OW27767   3.688   7.262   3.002  0.1531 -0.2329  0.6417
 8985SOL    HW127768   3.709   7.304   2.919 -0.3936  0.1927  0.7172
 8985SOL    HW227769   3.667   7.171   2.979 -0.3787 -0.0175  0.2691
 8986SOL     OW27770   6.967   7.260   0.399 -0.8176  0.2280 -0.0716
 8986SOL    HW127771   6.904   7.330   0.379 -0.1290  1.1760  1.0098
 8986SOL    HW227772   6.969   7.256   0.495  1.5506  0.9513 -0.0596
 8987SOL     OW27773   4.045   5.234   7.876 -0.8072  0.0103 -0.3261
 8987SOL    HW127774   3.973   5.181   7.910 -1.1877  0.0228 -1.1115
 8987SOL    HW227775   4.010   5.324   7.875 -0.2007  0.2735  0.9011
 8988SOL     OW27776   3.449   4.456   2.711 -0.4335  0.1870  0.0463
 8988SOL    HW127777   3.455   4.514   2.787  1.4912  0.6901 -0.4604
 8988SOL    HW227778   3.395   4.504   2.649 -0.7920  0.4085  0.5206
 8989SOL     OW27779   5.191   5.731   3.359  0.1392 -0.3504 -0.1647
 8989SOL    HW127780   5.271   5.765   3.317 -0.4870  1.6945  0.2091
 8989SOL    HW227781   5.208   5.741   3.453  0.3230 -2.0433 -0.0008
 8990SOL     OW27782   1.428   4.606   3.548  0.3224  0.3612 -0.5234
 8990SOL    HW127783   1.368   4.562   3.488  0.7536  1.1873 -1.5762
 8990SOL    HW227784   1.515   4.590   3.512  0.6877 -0.2795  0.6347
 8991SOL     OW27785   7.344   7.554   2.543  0.0463  0.3796  0.1976
 8991SOL    HW127786   7.253   7.565   2.572 -0.2290 -0.5866 -0.3021
 8991SOL    HW227787   7.396   7.575   2.621 -0.6019  0.8272  0.5175
 8992SOL     OW27788   5.354   2.374   6.155 -0.2172  0.3875 -0.1848
 8992SOL    HW127789   5.286   2.335   6.208  1.9089 -2.0899  0.8373
 8992SOL    HW227790   5.354   2.323   6.074  0.2635  0.4856 -0.2530
 8993SOL     OW27791   7.783   3.552   2.815 -0.4902  0.0355  0.1185
 8993SOL    HW127792   7.843   3.626   2.818 -1.0915  0.5102  0.3973
 8993SOL    HW227793   7.722   3.567   2.887 -0.2133 -1.0762  0.6006
 8994SOL     OW27794   3.852   7.911   3.320  0.0617  0.1245 -0.8999
 8994SOL    HW127795   3.897   7.928   3.403 -0.6577 -0.8170 -0.2986
 8994SOL    HW227796   3.799   7.990   3.306 -1.2590 -0.4711  0.5285
 8995SOL     OW27797   0.465   3.831   3.077  0.1052  0.5780 -0.3230
 8995SOL    HW127798   0.502   3.746   3.054  1.1368  1.1668 -0.8330
 8995SOL    HW227799   0.499   3.849   3.165  1.9968  1.6581 -1.2589
 8996SOL     OW27800   0.156   5.360   1.927  0.6352 -0.2964 -0.0175
 8996SOL    HW127801   0.200   5.444   1.913 -0.7684  0.4621  0.0690
 8996SOL    HW227802   0.133   5.360   2.019  0.2350 -0.5860 -0.1166
 8997SOL     OW27803   0.553   1.644   4.799 -0.2915 -0.3194  0.0889
 8997SOL    HW127804   0.576   1.682   4.884  1.5465 -1.0847 -0.0209
 8997SOL    HW227805   0.505   1.713   4.753  2.5309  1.7576  0.0691
 8998SOL     OW27806   7.336   4.330   5.613 -0.0358 -0.4267 -0.1481
 8998SOL    HW127807   7.389   4.317   5.535 -0.4843  0.9308 -0.6961
 8998SOL    HW227808   7.296   4.245   5.630 -0.2798 -0.6155 -1.6508
 8999SOL     OW27809   0.805   4.932   1.137  0.2603 -0.9370  0.0882
 8999SOL    HW127810   0.725   4.954   1.185 -0.3244 -1.3455 -0.6958
 8999SOL    HW227811   0.774   4.882   1.061  1.2278 -0.7411 -0.4317
 9000SOL     OW27812   6.276   6.628   0.101  0.1711 -0.3822 -0.8421
 9000SOL    HW127813   6.221   6.601   0.175  1.6961 -1.6987 -0.1714
 9000SOL    HW227814   6.311   6.714   0.127  2.3694 -1.7564  0.9196
 9001SOL     OW27815   0.047   7.681   5.027  0.3486 -0.1752  0.2092
 9001SOL    HW127816   0.130   7.701   4.983 -0.1024  0.2600 -0.4586
 9001SOL    HW227817  -0.020   7.712   4.966 -0.2953  0.9420  1.4542
 9002SOL     OW27818   1.036   4.539   5.699  0.3594 -0.3554  0.5569
 9002SOL    HW127819   1.122   4.506   5.725 -0.2363 -0.0958  3.0258
 9002SOL    HW227820   0.975   4.473   5.732 -0.6684  1.8303  3.2441
 9003SOL     OW27821   7.204   6.025   7.377  0.0667 -0.0365  0.0630
 9003SOL    HW127822   7.263   5.991   7.310 -1.0091 -1.8969  0.0145
 9003SOL    HW227823   7.179   5.948   7.428 -2.3719  0.6720  0.0216
 9004SOL     OW27824   3.949   4.180   4.435  0.0547  0.4925 -0.5023
 9004SOL    HW127825   3.951   4.269   4.400 -1.0693 -0.0667 -2.0213
 9004SOL    HW227826   3.891   4.186   4.512 -3.1876  0.3436 -2.8200
 9005SOL     OW27827   4.014   2.752   6.428 -0.3336  0.2849 -0.5398
 9005SOL    HW127828   4.090   2.717   6.474  0.5956 -1.4841 -3.2601
 9005SOL    HW227829   4.030   2.731   6.336 -4.4890 -0.9037 -1.1238
 9006SOL     OW27830   4.845   6.761   7.222 -0.2976  0.0474 -0.4544
 9006SOL    HW127831   4.817   6.704   7.294  1.3921 -1.1259 -0.6920
 9006SOL    HW227832   4.923   6.806   7.255 -0.5413  0.8280 -0.9276
 9007SOL     OW27833   7.560   5.594   5.784 -0.1034 -0.1183  0.3486
 9007SOL    HW127834   7.481   5.644   5.804 -0.3708 -0.4123  0.0239
 9007SOL    HW227835   7.630   5.660   5.779 -0.2313  0.0836  1.1560
 9008SOL     OW27836   4.325   1.542   6.224  0.8627 -0.1306 -0.1222
 9008SOL    HW127837   4.319   1.619   6.166  1.6623 -0.1879 -0.2920
 9008SOL    HW227838   4.303   1.468   6.167  2.1031 -0.2365 -0.4834
 9009SOL     OW27839   5.517   1.087   7.754 -0.0080 -0.5758  0.4615
 9009SOL    HW127840   5.535   1.071   7.661 -0.2061 -1.4997  0.5800
 9009SOL    HW227841   5.454   1.159   7.754  0.3721 -0.2398 -0.1029
 9010SOL     OW27842   1.300   5.900   6.522 -0.1901 -0.0264 -0.2076
 9010SOL    HW127843   1.274   5.962   6.454  0.4557  0.8259  0.3178
 9010SOL    HW227844   1.395   5.906   6.527 -0.1768 -0.5365  0.3474
 9011SOL     OW27845   4.625   2.853   2.908 -0.2291  0.1582  0.2971
 9011SOL    HW127846   4.612   2.902   2.827 -0.3638 -0.9789 -0.3713
 9011SOL    HW227847   4.592   2.765   2.889 -0.1556 -0.1536  1.5471
 9012SOL     OW27848   5.434   2.970   7.077 -1.7203 -0.4649  0.1765
 9012SOL    HW127849   5.525   2.999   7.069 -1.8773  0.0225  0.1766
 9012SOL    HW227850   5.441   2.876   7.094 -1.2388 -0.5794 -0.6240
 9013SOL     OW27851   7.630   4.050   6.999 -0.2579 -0.3052  0.2480
 9013SOL    HW127852   7.574   4.118   7.036  0.6506  0.9430 -0.6603
 9013SOL    HW227853   7.718   4.087   7.000 -0.0502 -0.6942 -2.1048
 9014SOL     OW27854   5.567   6.689   2.032  0.2743  0.0996 -1.0331
 9014SOL    HW127855   5.592   6.598   2.018 -0.3603 -0.4606  1.3235
 9014SOL    HW227856   5.648   6.739   2.020  0.4129 -0.6303 -3.3867
 9015SOL     OW27857   7.666   2.586   3.879  0.1354  0.0094  0.5646
 9015SOL    HW127858   7.590   2.546   3.922  0.6871 -0.8049  0.7850
 9015SOL    HW227859   7.688   2.660   3.934 -1.3690  1.1089 -0.2557
 9016SOL     OW27860   4.383   6.685   4.521  0.0600 -0.9128  0.3915
 9016SOL    HW127861   4.381   6.623   4.594  0.7931 -0.7416  0.5697
 9016SOL    HW227862   4.331   6.760   4.551  0.1779 -0.9352  0.6574
 9017SOL     OW27863   4.145   0.452   2.639  0.6697 -0.2596  0.7900
 9017SOL    HW127864   4.162   0.365   2.602 -0.4824 -1.0778  2.1368
 9017SOL    HW227865   4.059   0.476   2.604  1.4167  0.7767 -0.3594
 9018SOL     OW27866   6.049   6.886   1.491  0.0618 -0.3895 -0.2948
 9018SOL    HW127867   6.085   6.962   1.445 -2.3400  0.8986 -0.1470
 9018SOL    HW227868   5.977   6.922   1.543  0.0738 -2.4909  1.2326
 9019SOL     OW27869   1.746   4.862   5.148 -0.5334  0.2498  0.4504
 9019SOL    HW127870   1.681   4.876   5.218 -1.6501 -1.1032 -0.2805
 9019SOL    HW227871   1.730   4.773   5.119  1.4168  0.0409 -0.0383
 9020SOL     OW27872   2.712   4.298   0.876  0.3239 -0.0207  0.0078
 9020SOL    HW127873   2.791   4.351   0.870  0.9780 -1.1545 -1.9284
 9020SOL    HW227874   2.643   4.352   0.838  0.7066 -0.0138 -0.6789
 9021SOL     OW27875   2.299   0.167   6.464 -0.1043  0.4109 -0.1937
 9021SOL    HW127876   2.317   0.201   6.552  0.1709  1.0958 -0.5079
 9021SOL    HW227877   2.381   0.128   6.436  0.5443  2.3974 -1.1214
 9022SOL     OW27878   1.841   5.997   6.741 -0.2651 -0.2094 -0.1848
 9022SOL    HW127879   1.912   6.015   6.803 -1.4950  0.8611  0.9479
 9022SOL    HW227880   1.867   6.042   6.661  1.4813 -1.8405 -0.5658
 9023SOL     OW27881   6.931   0.042   4.053  0.3881 -0.2401 -0.3701
 9023SOL    HW127882   6.902   0.071   3.967 -2.8203 -0.3441  0.6084
 9023SOL    HW227883   6.953   0.122   4.100  0.3363 -0.0471 -0.6736
 9024SOL     OW27884   3.007   7.700   5.177 -0.1749  0.4134 -0.1610
 9024SOL    HW127885   3.097   7.668   5.173 -0.6098 -0.8138 -0.4368
 9024SOL    HW227886   3.012   7.790   5.145  0.7686 -0.0571 -1.3780
 9025SOL     OW27887   4.197   7.220   7.682  0.1887  0.5883 -0.3615
 9025SOL    HW127888   4.185   7.249   7.773  2.1411  1.0231 -0.2334
 9025SOL    HW227889   4.168   7.129   7.683 -1.9340  1.2175  0.1784
 9026SOL     OW27890   4.547   7.840   1.287  0.0049  0.0752 -0.3039
 9026SOL    HW127891   4.456   7.863   1.304  0.3377 -0.0838  1.7740
 9026SOL    HW227892   4.596   7.921   1.303  0.0881  0.5526 -2.8434
 9027SOL     OW27893   6.145   4.329   5.282 -0.0874 -0.5729 -0.3135
 9027SOL    HW127894   6.100   4.246   5.295  0.2041 -0.7057 -0.1686
 9027SOL    HW227895   6.078   4.395   5.298 -0.0196 -0.7566  0.7288
 9028SOL     OW27896   3.976   4.430   0.774  0.4475 -0.2811  0.2125
 9028SOL    HW127897   3.942   4.435   0.864  0.5971  0.8461  0.2183
 9028SOL    HW227898   4.070   4.449   0.783  0.7302 -1.5497 -0.0203
 9029SOL     OW27899   6.023   7.240   5.290 -0.4861  0.4107  0.5063
 9029SOL    HW127900   6.055   7.316   5.243  0.3790 -1.0147 -1.2787
 9029SOL    HW227901   6.102   7.189   5.310 -1.1433 -0.5647  0.7045
 9030SOL     OW27902   0.401   3.493   7.134  0.6226 -0.3163  0.0042
 9030SOL    HW127903   0.362   3.410   7.160  0.4235 -0.3971 -0.5569
 9030SOL    HW227904   0.443   3.525   7.214 -0.4222 -0.3183  0.5771
 9031SOL     OW27905   3.393   4.876   3.703 -0.1239 -0.1016  0.3575
 9031SOL    HW127906   3.337   4.937   3.655 -0.9348 -0.7530  0.4629
 9031SOL    HW227907   3.357   4.789   3.683  0.9937 -0.5376  0.2408
 9032SOL     OW27908   7.132   5.730   2.169 -0.1226  1.1383 -0.3269
 9032SOL    HW127909   7.137   5.723   2.074  1.0979 -0.0114 -0.1930
 9032SOL    HW227910   7.193   5.800   2.191 -1.7186  2.6157 -0.5175
 9033SOL     OW27911   7.557   5.505   7.260 -0.0520  0.2996 -0.3736
 9033SOL    HW127912   7.541   5.412   7.277 -2.0534  1.0437  2.0238
 9033SOL    HW227913   7.573   5.510   7.166 -0.1322 -2.4370 -0.5572
 9034SOL     OW27914   4.914   3.624   0.502  0.3159 -0.5002  0.0251
 9034SOL    HW127915   4.843   3.615   0.438  0.5012 -0.1575 -0.2335
 9034SOL    HW227916   4.963   3.701   0.472 -0.0723  0.1449  1.0370
 9035SOL     OW27917   1.950   6.190   5.572 -0.4945  0.3978 -0.7767
 9035SOL    HW127918   1.948   6.285   5.564  0.6325  0.4989 -0.0132
 9035SOL    HW227919   1.985   6.160   5.488 -1.0060  0.6382 -1.0801
 9036SOL     OW27920   6.570   0.480   1.223 -0.0186  0.5496  0.0798
 9036SOL    HW127921   6.657   0.444   1.239  0.7203  1.4784 -1.6268
 9036SOL    HW227922   6.511   0.405   1.226  1.4309 -0.7871 -2.8938
 9037SOL     OW27923   6.219   5.025   5.440 -0.0848 -0.1757 -0.1716
 9037SOL    HW127924   6.171   4.943   5.428 -0.3356 -0.3332  1.7469
 9037SOL    HW227925   6.267   5.036   5.358 -2.5200 -0.5762 -1.7184
 9038SOL     OW27926   4.309   7.452   1.608  0.1235  0.4271  0.0850
 9038SOL    HW127927   4.358   7.381   1.566 -1.1412 -0.9846  0.9268
 9038SOL    HW227928   4.271   7.501   1.535 -1.7998 -1.8142 -0.5044
 9039SOL     OW27929   7.976   2.060   3.888  0.3859  0.0838  0.0454
 9039SOL    HW127930   7.914   2.133   3.886 -1.1654 -1.2262 -1.7057
 9039SOL    HW227931   7.965   2.017   3.803  3.2791 -0.5525 -0.0588
 9040SOL     OW27932   2.841   3.521   7.389  0.1606  0.1594  0.2528
 9040SOL    HW127933   2.924   3.522   7.436  0.4275 -1.8208 -0.1229
 9040SOL    HW227934   2.786   3.584   7.435  1.6236  0.9238  0.9651
 9041SOL     OW27935   0.552   4.451   1.661 -0.2800  0.7861 -0.2540
 9041SOL    HW127936   0.516   4.429   1.575  0.2873  0.4207 -0.4062
 9041SOL    HW227937   0.521   4.540   1.679 -1.5450  0.3427 -0.2139
 9042SOL     OW27938   2.369   6.319   7.254 -0.4447  0.1921 -0.1213
 9042SOL    HW127939   2.306   6.348   7.187 -0.0227  0.7323 -0.2884
 9042SOL    HW227940   2.334   6.353   7.336  1.3606  3.4201 -0.6128
 9043SOL     OW27941   7.481   2.795   3.945  0.0704 -0.4267  0.2724
 9043SOL    HW127942   7.412   2.774   3.882 -0.5188  1.3400  0.3093
 9043SOL    HW227943   7.444   2.863   4.000  1.4920 -0.1641  0.9292
 9044SOL     OW27944   4.145   0.647   1.706 -0.2825  0.5397 -0.0607
 9044SOL    HW127945   4.208   0.590   1.662  0.3178  0.1593  1.2429
 9044SOL    HW227946   4.173   0.736   1.686  0.7503  0.3697  0.6002
 9045SOL     OW27947   1.079   6.142   4.352 -0.3433  0.1623  0.9895
 9045SOL    HW127948   0.985   6.131   4.346 -0.1143 -0.8284 -1.4110
 9045SOL    HW227949   1.095   6.234   4.330 -0.6014 -0.1975 -0.7584
 9046SOL     OW27950   4.440   0.636   1.819  0.1184 -0.0205  0.5106
 9046SOL    HW127951   4.416   0.608   1.730 -1.1149  1.7705  0.2535
 9046SOL    HW227952   4.403   0.569   1.876 -1.9280  0.5048 -0.1505
 9047SOL     OW27953   5.535   6.348   4.077  0.0543 -0.8944  0.9552
 9047SOL    HW127954   5.589   6.364   4.155  0.5095  1.1222  0.2551
 9047SOL    HW227955   5.446   6.337   4.111 -0.1106  2.0722  1.6430
 9048SOL     OW27956   5.845   4.399   6.823  0.8047 -0.4273 -0.1352
 9048SOL    HW127957   5.906   4.366   6.889  1.2770 -1.4747 -1.0871
 9048SOL    HW227958   5.770   4.340   6.829  0.3228  0.2205  0.3006
 9049SOL     OW27959   0.200   7.048   2.373 -0.3177  0.0932  0.1604
 9049SOL    HW127960   0.295   7.057   2.363 -0.2028  1.1444  1.8715
 9049SOL    HW227961   0.186   7.052   2.468 -2.3245  3.0641 -0.1869
 9050SOL     OW27962   0.123   1.890   7.178 -0.5435 -0.1834 -0.3760
 9050SOL    HW127963   0.028   1.888   7.183 -0.4906  0.2498  0.9001
 9050SOL    HW227964   0.152   1.857   7.263  0.4545 -1.4031 -1.1636
 9051SOL     OW27965   4.627   3.843   5.962  0.9786 -0.8686  0.0859
 9051SOL    HW127966   4.585   3.791   6.032 -1.2597  0.6310 -0.0801
 9051SOL    HW227967   4.701   3.885   6.005  0.3415 -0.9277  1.2718
 9052SOL     OW27968   1.485   5.040   5.626  0.2087  0.0286  0.2634
 9052SOL    HW127969   1.475   4.963   5.682  1.8559  1.3566  2.4784
 9052SOL    HW227970   1.580   5.054   5.620  0.0799  0.1200 -2.6620
 9053SOL     OW27971   4.513   2.525   1.029 -0.1914 -0.3541  0.4248
 9053SOL    HW127972   4.469   2.442   1.009 -0.0193 -0.5151  0.7064
 9053SOL    HW227973   4.507   2.533   1.125  0.5125 -0.4452  0.4785
 9054SOL     OW27974   1.970   1.836   3.629 -0.4143  0.2219  0.1454
 9054SOL    HW127975   1.941   1.851   3.539 -0.5608 -1.8565 -0.1632
 9054SOL    HW227976   2.019   1.754   3.626  0.9617  0.9552  1.6697
 9055SOL     OW27977   0.148   1.379   4.090 -0.0595 -0.7332 -0.4343
 9055SOL    HW127978   0.053   1.369   4.090 -0.1769 -0.2683  2.6974
 9055SOL    HW227979   0.181   1.291   4.109  0.0478 -0.5765  0.1192
 9056SOL     OW27980   3.469   0.633   1.063  0.5459 -0.1112 -0.2611
 9056SOL    HW127981   3.425   0.633   0.978 -1.1389  0.2727  0.5880
 9056SOL    HW227982   3.517   0.550   1.065  1.3761  0.2892 -1.9577
 9057SOL     OW27983   2.869   1.047   7.670  0.3196  0.3513  0.0360
 9057SOL    HW127984   2.927   1.123   7.665 -1.7478  2.1305  1.6874
 9057SOL    HW227985   2.831   1.039   7.583  1.9356  0.0625 -0.6465
 9058SOL     OW27986   3.564   7.295   4.234  0.0967  0.0126 -0.4761
 9058SOL    HW127987   3.654   7.329   4.242 -0.4009  1.4326 -0.7836
 9058SOL    HW227988   3.523   7.319   4.317 -0.1094 -0.3361 -0.4767
 9059SOL     OW27989   1.163   1.260   6.542 -0.0135  0.0477 -0.6520
 9059SOL    HW127990   1.190   1.179   6.499  0.4589  1.1637 -2.4884
 9059SOL    HW227991   1.070   1.267   6.524 -0.0105  0.0208 -0.6779
 9060SOL     OW27992   3.462   3.772   2.690  0.1086 -0.2269  0.0268
 9060SOL    HW127993   3.494   3.755   2.779 -0.0357  0.5707  0.2320
 9060SOL    HW227994   3.382   3.823   2.703 -0.2657 -0.6641 -0.5433
 9061SOL     OW27995   1.300   0.212   3.398  0.1328  0.3127  0.3546
 9061SOL    HW127996   1.353   0.221   3.478 -0.6373 -0.3381  0.9471
 9061SOL    HW227997   1.343   0.141   3.350 -0.6630 -0.7771  1.2216
 9062SOL     OW27998   2.097   2.890   4.331  0.2965 -0.1264  0.4010
 9062SOL    HW127999   2.166   2.851   4.385  0.2420 -0.3173  0.3313
 9062SOL    HW228000   2.016   2.873   4.379  0.3213  0.3016  0.5982
 9063SOL     OW28001   2.285   1.283   6.022 -0.5268  0.6755 -0.0604
 9063SOL    HW128002   2.229   1.299   5.946  1.3628  1.1872 -1.3598
 9063SOL    HW228003   2.340   1.361   6.028  2.0147 -1.0312 -0.5299
 9064SOL     OW28004   3.039   0.987   1.551 -0.6529 -0.1598  0.9641
 9064SOL    HW128005   3.013   1.076   1.575 -1.9302  0.5413 -2.6540
 9064SOL    HW228006   2.958   0.946   1.523  0.1177 -2.1610  1.6125
 9065SOL     OW28007   3.104   2.065   2.365  0.2726  0.0257 -0.5247
 9065SOL    HW128008   3.091   1.974   2.339  0.5498 -0.3322  0.5860
 9065SOL    HW228009   3.082   2.115   2.286 -1.0521 -0.9304 -0.7781
 9066SOL     OW28010   3.602   2.289   6.323 -0.4710  0.4304 -0.2875
 9066SOL    HW128011   3.568   2.269   6.410  0.0378  1.5502  0.1699
 9066SOL    HW228012   3.572   2.216   6.268  0.2473 -0.9084  1.0881
 9067SOL     OW28013   2.272   4.059   7.009 -0.4651  0.3594  0.0757
 9067SOL    HW128014   2.213   4.134   7.010 -1.5713 -0.4916  1.4684
 9067SOL    HW228015   2.347   4.087   7.062 -0.5246  0.7520 -0.0490
 9068SOL     OW28016   7.758   2.559   2.631  0.2140  0.0137  0.2567
 9068SOL    HW128017   7.823   2.587   2.566  1.2146 -1.2938  0.6823
 9068SOL    HW228018   7.687   2.520   2.579  1.2667 -1.5494 -0.0269
 9069SOL     OW28019   1.451   6.863   7.200 -0.0755  0.2544 -0.8841
 9069SOL    HW128020   1.437   6.957   7.208 -0.4173  0.1221  0.0612
 9069SOL    HW228021   1.543   6.854   7.172 -0.5563  0.9338 -2.7428
 9070SOL     OW28022   3.869   4.286   1.026  0.0446 -0.8558  0.4315
 9070SOL    HW128023   3.964   4.292   1.025  0.0354 -0.6666  0.8551
 9070SOL    HW228024   3.842   4.332   1.105 -0.2754 -2.8450  1.5136
 9071SOL     OW28025   4.675   0.691   6.305 -0.1587 -0.3522 -0.0933
 9071SOL    HW128026   4.734   0.701   6.231  0.8191 -0.0431  0.7101
 9071SOL    HW228027   4.683   0.773   6.354 -0.4230 -0.7344  0.6103
 9072SOL     OW28028   0.537   0.248   7.168 -0.0194  0.3165 -0.2644
 9072SOL    HW128029   0.463   0.194   7.193 -0.5073  0.5975 -1.0801
 9072SOL    HW228030   0.548   0.310   7.241 -0.8733  0.5682 -0.3515
 9073SOL     OW28031   0.720   1.791   7.887  0.1824 -0.7623  0.3336
 9073SOL    HW128032   0.806   1.749   7.884  1.0033  0.9385 -0.7413
 9073SOL    HW228033   0.706   1.812   7.979  1.9441  0.9796  0.2222
 9074SOL     OW28034   5.837   1.136   4.305 -0.8998  0.2803  0.1030
 9074SOL    HW128035   5.803   1.072   4.368 -0.1269  0.5783  0.8352
 9074SOL    HW228036   5.781   1.126   4.228  0.2916 -2.5539 -0.4737
 9075SOL     OW28037   6.351   5.136   6.003  0.7781 -0.7300  0.5852
 9075SOL    HW128038   6.421   5.076   5.980  0.2858 -1.3112  0.6023
 9075SOL    HW228039   6.371   5.163   6.093  0.7301 -1.2654  0.7616
 9076SOL     OW28040   6.560   6.229   7.669 -0.0011  1.0654  0.2956
 9076SOL    HW128041   6.634   6.271   7.624 -0.2785  0.1380 -1.0477
 9076SOL    HW228042   6.598   6.198   7.751  1.1644  0.4181 -0.4649
 9077SOL     OW28043   2.997   2.134   4.066 -0.4260  0.3314 -0.3255
 9077SOL    HW128044   3.001   2.225   4.095 -0.7435  0.1679  0.2385
 9077SOL    HW228045   3.084   2.099   4.084 -0.4000  0.4357 -0.2480
 9078SOL     OW28046   3.104   0.722   0.861  0.5125 -0.5397  0.2856
 9078SOL    HW128047   3.184   0.674   0.838  0.5611 -0.3961  0.1524
 9078SOL    HW228048   3.117   0.749   0.952 -0.2726 -2.3045  0.9390
 9079SOL     OW28049   3.166   2.038   3.752 -0.2537  0.1915  0.0037
 9079SOL    HW128050   3.232   2.081   3.807  0.9913 -0.6126 -0.8330
 9079SOL    HW228051   3.118   1.982   3.812  1.6752 -1.3596  0.1607
 9080SOL     OW28052   2.214   2.842   0.896  0.2827 -0.5085  0.0753
 9080SOL    HW128053   2.248   2.862   0.809 -1.2822 -0.9070 -0.6456
 9080SOL    HW228054   2.263   2.765   0.923  0.9744 -0.2207 -0.3394
 9081SOL     OW28055   3.058   5.294   2.344  1.1280  0.1532 -0.3833
 9081SOL    HW128056   3.083   5.223   2.285  1.2878  0.2457 -0.4281
 9081SOL    HW228057   3.131   5.300   2.406  0.9119 -0.0147 -0.1099
 9082SOL     OW28058   7.564   2.777   5.848  0.0299  0.3761 -0.0001
 9082SOL    HW128059   7.647   2.786   5.895 -0.1932  0.5234  0.3667
 9082SOL    HW228060   7.505   2.737   5.911 -0.4376  1.1312  0.0517
 9083SOL     OW28061   3.331   3.298   1.307 -0.2022  0.6269 -0.0592
 9083SOL    HW128062   3.388   3.224   1.328 -2.6235 -1.4664 -0.6538
 9083SOL    HW228063   3.341   3.358   1.381  1.7293 -0.2853  0.4618
 9084SOL     OW28064   7.631   3.861   5.925 -0.0244 -0.1255  0.6196
 9084SOL    HW128065   7.674   3.904   5.852  2.8998 -2.0392  1.0827
 9084SOL    HW228066   7.665   3.905   6.003 -1.5346  0.5591  0.9045
 9085SOL     OW28067   0.004   4.617   3.048 -0.0286 -0.0269 -0.5337
 9085SOL    HW128068   0.037   4.571   2.970  2.6860  1.1565 -0.1296
 9085SOL    HW228069  -0.003   4.709   3.021  0.3917  0.3041  0.4666
 9086SOL     OW28070   0.179   4.865   4.656  0.0352  0.3068 -0.1615
 9086SOL    HW128071   0.260   4.863   4.708 -0.2682  2.4141  0.4608
 9086SOL    HW228072   0.207   4.843   4.567  1.2258  0.5723  0.1387
 9087SOL     OW28073   1.830   3.646   4.345 -0.9197  0.1532 -0.0822
 9087SOL    HW128074   1.913   3.605   4.320  0.4383  0.5802  3.4429
 9087SOL    HW228075   1.778   3.574   4.381 -1.9154 -0.0148 -1.8040
 9088SOL     OW28076   4.966   6.727   3.739 -0.2946  0.3977 -0.0754
 9088SOL    HW128077   4.941   6.808   3.782  2.6571  0.6354  1.3206
 9088SOL    HW228078   5.019   6.754   3.664  0.5348 -0.2109  0.2812
 9089SOL     OW28079   7.558   2.279   7.989  0.8162  0.6096 -0.1457
 9089SOL    HW128080   7.600   2.194   7.975 -0.8023 -0.2770  0.3067
 9089SOL    HW228081   7.591   2.333   7.917  1.3709 -0.5856 -0.8115
 9090SOL     OW28082   0.237   2.269   2.677  0.1574  0.4463 -0.1793
 9090SOL    HW128083   0.187   2.194   2.710  0.5301  0.1292 -0.3298
 9090SOL    HW228084   0.170   2.334   2.656 -0.2420 -0.1622 -0.8475
 9091SOL     OW28085   1.301   4.720   4.429  0.1394  0.2814 -0.1106
 9091SOL    HW128086   1.259   4.768   4.359 -1.0445  2.5385  2.0601
 9091SOL    HW228087   1.233   4.708   4.495  1.1678 -1.9371  0.6186
 9092SOL     OW28088   7.601   7.970   1.887 -0.2158  0.3962 -0.0761
 9092SOL    HW128089   7.620   7.929   1.971  1.0673  0.3570 -0.3631
 9092SOL    HW228090   7.515   8.009   1.897  0.5684  1.7188  1.7686
 9093SOL     OW28091   0.700   4.104   3.140 -0.4618  0.7525 -0.1077
 9093SOL    HW128092   0.777   4.157   3.119 -0.9243  1.8324  0.8561
 9093SOL    HW228093   0.654   4.093   3.056  1.9886 -1.9670 -1.1515
 9094SOL     OW28094   4.171   4.698   6.348 -0.0923 -0.0128 -0.3461
 9094SOL    HW128095   4.177   4.726   6.439  1.4420 -1.0907 -0.0988
 9094SOL    HW228096   4.183   4.603   6.350  0.5252  0.0110 -1.6996
 9095SOL     OW28097   0.396   7.349   3.815 -0.4253 -0.5026  0.3966
 9095SOL    HW128098   0.396   7.345   3.910 -0.4251  0.3553  0.4362
 9095SOL    HW228099   0.439   7.268   3.787  0.8500 -0.0965  1.1525
 9096SOL     OW28100   5.844   2.607   4.884  0.9950  0.4818  0.4582
 9096SOL    HW128101   5.787   2.592   4.808  0.6991  0.0840  0.7519
 9096SOL    HW228102   5.818   2.693   4.917  1.8377  1.1150 -0.5045
 9097SOL     OW28103   3.108   1.839   5.891  0.0260  0.5099  0.1156
 9097SOL    HW128104   3.203   1.831   5.903 -0.2810 -1.0254  1.8714
 9097SOL    HW228105   3.077   1.874   5.975 -0.6949  3.6933 -1.4172
 9098SOL     OW28106   6.809   5.221   2.256 -0.3123  0.1091  0.4713
 9098SOL    HW128107   6.851   5.135   2.248  0.1685  0.3299  0.5712
 9098SOL    HW228108   6.862   5.278   2.201 -0.6531  0.3326  0.3781
 9099SOL     OW28109   0.853   7.128   7.564  0.1666  0.6607  0.2748
 9099SOL    HW128110   0.835   7.048   7.515  0.3346  1.5738 -1.3010
 9099SOL    HW228111   0.947   7.140   7.556  0.0735  1.2752  0.1170
 9100SOL     OW28112   1.485   6.020   2.366  0.4926  0.1944 -0.2653
 9100SOL    HW128113   1.494   5.952   2.299 -0.1763 -0.0697 -0.0976
 9100SOL    HW228114   1.394   6.013   2.394  0.9804 -0.2133  1.2399
 9101SOL     OW28115   7.959   0.046   5.258  0.3513 -0.1360  0.3768
 9101SOL    HW128116   7.864   0.053   5.269  0.2283 -0.2830 -0.5765
 9101SOL    HW228117   7.975  -0.049   5.258  0.4324 -0.1208 -0.0235
 9102SOL     OW28118   7.685   5.691   1.427 -0.2316 -0.9776  0.1049
 9102SOL    HW128119   7.604   5.661   1.470 -1.1545  0.1385 -0.8154
 9102SOL    HW228120   7.723   5.754   1.487 -3.0437  2.8054 -1.9035
 9103SOL     OW28121   1.080   5.282   6.310  0.3723 -0.4793 -0.1960
 9103SOL    HW128122   1.073   5.359   6.366  1.3817 -0.5474  0.0298
 9103SOL    HW228123   1.169   5.286   6.275 -1.0522  1.0961 -4.0030
 9104SOL     OW28124   2.534   7.575   6.178 -0.5882 -0.6618 -0.7013
 9104SOL    HW128125   2.461   7.530   6.221  0.7893  0.0614  2.5301
 9104SOL    HW228126   2.551   7.651   6.233  1.2031  0.3874 -2.6238
 9105SOL     OW28127   2.584   5.536   3.890  0.1265  0.3663 -0.2735
 9105SOL    HW128128   2.519   5.466   3.882  0.4946  0.1802 -1.9601
 9105SOL    HW228129   2.550   5.593   3.958 -2.5030  1.0127 -2.0556
 9106SOL     OW28130   7.132   6.901   6.414  0.2342 -0.2355 -0.0397
 9106SOL    HW128131   7.175   6.839   6.473 -0.4053 -0.7192 -0.0729
 9106SOL    HW228132   7.069   6.848   6.365  1.6999 -0.0997 -2.1495
 9107SOL     OW28133   2.337   1.401   6.306 -0.3041 -0.4475 -0.8032
 9107SOL    HW128134   2.390   1.353   6.369  0.5592  0.4108 -0.8685
 9107SOL    HW228135   2.393   1.410   6.229 -1.3700 -1.5409 -1.7403
 9108SOL     OW28136   7.761   7.800   5.324 -0.1094 -0.4286  0.1296
 9108SOL    HW128137   7.852   7.769   5.319  0.2507  0.4366  1.1215
 9108SOL    HW228138   7.745   7.839   5.238  0.6053 -0.2036  0.0925
 9109SOL     OW28139   4.945   2.834   7.668  0.1385 -0.8021 -0.1805
 9109SOL    HW128140   5.013   2.878   7.616 -0.2612 -1.2808 -1.1052
 9109SOL    HW228141   4.865   2.847   7.618 -0.0576 -2.2294 -0.2541
 9110SOL     OW28142   7.518   7.164   1.989 -0.5451  0.7435  0.2510
 9110SOL    HW128143   7.514   7.070   1.974 -0.8682  0.5932  1.2134
 9110SOL    HW228144   7.601   7.191   1.951 -0.9358  0.2461 -0.9617
 9111SOL     OW28145   3.861   7.932   7.993 -0.3375  0.6588  0.0377
 9111SOL    HW128146   3.879   7.845   7.957  0.5123  0.0233  1.9542
 9111SOL    HW228147   3.767   7.931   8.010 -0.0474 -0.5324  1.6694
 9112SOL     OW28148   7.222   0.730   4.888  0.4886 -0.0103 -0.0382
 9112SOL    HW128149   7.239   0.820   4.862  0.6644 -0.0752 -0.1532
 9112SOL    HW228150   7.155   0.736   4.956 -1.4466  0.0405 -1.8885
 9113SOL     OW28151   0.820   4.561   2.666 -0.1544 -0.1449  0.5548
 9113SOL    HW128152   0.745   4.619   2.656  0.6123  1.1253  2.0874
 9113SOL    HW228153   0.790   4.492   2.725 -0.7288 -0.7376 -0.4190
 9114SOL     OW28154   5.950   5.463   7.778  0.3279  0.2165  0.0555
 9114SOL    HW128155   6.039   5.480   7.806  0.1425 -1.5879  1.9088
 9114SOL    HW228156   5.895   5.498   7.848 -0.1660 -3.9779  1.9383
 9115SOL     OW28157   6.255   4.643   7.656  0.2585 -0.4234  0.2204
 9115SOL    HW128158   6.253   4.704   7.582 -2.5200 -1.8006 -0.8980
 9115SOL    HW228159   6.339   4.598   7.647  0.0859 -0.3820 -1.9596
 9116SOL     OW28160   4.073   6.552   7.117  0.6490 -0.2669  0.6741
 9116SOL    HW128161   3.980   6.549   7.136  0.6712  2.2827  1.3149
 9116SOL    HW228162   4.083   6.622   7.052  2.1549 -0.2606  0.8803
 9117SOL     OW28163   6.821   2.809   6.915  0.1635  0.6548  1.0915
 9117SOL    HW128164   6.902   2.859   6.927 -0.5748  2.6421 -1.6821
 9117SOL    HW228165   6.756   2.858   6.965  0.1084  0.5826  1.0902
 9118SOL     OW28166   5.738   7.093   1.164  0.0228  0.0367 -0.1628
 9118SOL    HW128167   5.799   7.165   1.180 -0.1921  0.4397 -1.1229
 9118SOL    HW228168   5.690   7.084   1.246 -0.2223  1.2685 -0.1569
 9119SOL     OW28169   4.523   0.027   4.988  0.4768 -0.7616  0.0959
 9119SOL    HW128170   4.478   0.045   4.905 -0.1994 -2.8376 -0.0330
 9119SOL    HW228171   4.608   0.069   4.978  0.1728 -0.4538 -1.4219
 9120SOL     OW28172   7.959   2.375   6.869  0.0035  0.4463  0.4386
 9120SOL    HW128173   7.950   2.355   6.962  0.8910 -0.7006  0.2917
 9120SOL    HW228174   8.036   2.432   6.863  0.5246 -0.2692  0.3041
 9121SOL     OW28175   2.652   1.043   4.609 -0.0780  0.2800  0.0218
 9121SOL    HW128176   2.630   1.110   4.544  2.0991 -0.7982 -1.8876
 9121SOL    HW228177   2.597   0.968   4.586  0.5655 -0.0407 -0.4845
 9122SOL     OW28178   1.108   7.876   6.508  0.8046  0.3917  0.3570
 9122SOL    HW128179   1.060   7.867   6.591  0.1829  0.4847  0.0121
 9122SOL    HW228180   1.125   7.786   6.481  0.4833  0.3492  0.2881
 9123SOL     OW28181   5.794   2.894   3.627 -0.7438 -0.1378 -0.1049
 9123SOL    HW128182   5.864   2.901   3.563 -0.1829 -0.1513  0.4985
 9123SOL    HW228183   5.746   2.815   3.603  1.2966 -1.8399  1.2990
 9124SOL     OW28184   2.326   6.816   1.116 -0.2607  0.3557  0.0832
 9124SOL    HW128185   2.412   6.775   1.128  0.7244  1.5978 -2.4217
 9124SOL    HW228186   2.328   6.893   1.174 -0.7846 -1.1265  2.1312
 9125SOL     OW28187   1.661   4.621   5.045 -0.2585 -0.2129  0.4849
 9125SOL    HW128188   1.733   4.577   5.001 -0.7294  0.4642 -0.9873
 9125SOL    HW228189   1.621   4.553   5.100 -0.5443 -1.4418 -1.2160
 9126SOL     OW28190   3.038   7.754   5.797 -0.0047 -0.4304 -0.4977
 9126SOL    HW128191   3.015   7.667   5.767 -0.6000 -0.4585  0.0444
 9126SOL    HW228192   3.047   7.746   5.892 -0.7283  0.2458 -0.3635
 9127SOL     OW28193   1.575   4.551   1.533  0.4909 -0.3788  0.3905
 9127SOL    HW128194   1.517   4.570   1.607  0.3532 -2.4228  0.8336
 9127SOL    HW228195   1.517   4.521   1.463  0.9201 -1.5145  0.5179
 9128SOL     OW28196   4.788   6.465   1.315  0.2252 -0.1191  0.6714
 9128SOL    HW128197   4.803   6.491   1.224  1.4071 -0.1212  0.8635
 9128SOL    HW228198   4.693   6.459   1.322  0.1391 -0.4370 -0.6484
 9129SOL     OW28199   3.275   3.439   7.182  0.3262  0.3663 -0.4844
 9129SOL    HW128200   3.276   3.509   7.246  2.9477 -0.6119  0.6351
 9129SOL    HW228201   3.295   3.482   7.099  0.8473  1.1019  0.0204
 9130SOL     OW28202   2.289   0.010   7.194  0.0557  0.2109  0.9105
 9130SOL    HW128203   2.359  -0.020   7.136 -0.3404  2.8374 -1.0693
 9130SOL    HW228204   2.313  -0.023   7.280  2.2752 -1.2559 -0.2134
 9131SOL     OW28205   5.446   5.085   2.418  0.1329 -0.6298 -0.1960
 9131SOL    HW128206   5.523   5.122   2.376  0.0280 -0.6377 -0.3947
 9131SOL    HW228207   5.403   5.159   2.459  0.3374 -0.6519  0.0582
 9132SOL     OW28208   1.818   2.166   6.102 -0.4061  0.2115  0.1427
 9132SOL    HW128209   1.825   2.072   6.115  1.6852  0.1153 -1.3680
 9132SOL    HW228210   1.729   2.180   6.070 -1.7591 -0.8437  3.3167
 9133SOL     OW28211   5.164   4.017   5.530 -0.0637 -0.6014  0.3571
 9133SOL    HW128212   5.167   4.042   5.622 -1.0418 -1.0259  0.5008
 9133SOL    HW228213   5.097   4.073   5.491  2.4957  1.7901 -0.7839
 9134SOL     OW28214   0.018   4.802   6.350 -0.4352  0.3467  0.1963
 9134SOL    HW128215   0.084   4.740   6.320 -1.1929 -0.4249  0.1025
 9134SOL    HW228216  -0.021   4.761   6.428 -0.8610  0.7465  0.2000
 9135SOL     OW28217   5.595   2.732   7.153  0.4053  0.5592  0.0403
 9135SOL    HW128218   5.571   2.648   7.115  1.2328  0.8730 -1.1957
 9135SOL    HW228219   5.568   2.725   7.244 -1.5416 -0.2228 -0.5846
 9136SOL     OW28220   1.627   1.770   4.644 -0.0887  0.7417  0.0310
 9136SOL    HW128221   1.622   1.694   4.586  2.5336  1.6297 -1.4993
 9136SOL    HW228222   1.542   1.813   4.635 -1.3832 -1.7066  0.4893
 9137SOL     OW28223   4.033   3.782   1.771  0.1777  0.1686  0.2039
 9137SOL    HW128224   4.011   3.710   1.711  1.5965 -0.6292  0.6273
 9137SOL    HW228225   3.964   3.847   1.757  0.5163  0.0182 -2.3537
 9138SOL     OW28226   5.984   3.962   2.216  0.2198  0.1003 -0.2346
 9138SOL    HW128227   5.943   3.881   2.184  0.0043 -1.0793  2.8962
 9138SOL    HW228228   5.922   4.031   2.190 -0.8771 -1.0143 -0.6729
 9139SOL     OW28229   7.252   2.926   7.183 -0.3985 -0.3479 -0.5130
 9139SOL    HW128230   7.320   2.886   7.238 -1.2799 -0.1305  0.7304
 9139SOL    HW228231   7.288   3.012   7.159 -1.2116  0.7341  2.0617
 9140SOL     OW28232   5.451   6.609   2.407  0.1629 -0.2952  0.0374
 9140SOL    HW128233   5.401   6.552   2.464  1.9801  0.6044  2.6296
 9140SOL    HW228234   5.535   6.564   2.394  1.1987  1.2360  1.2293
 9141SOL     OW28235   1.276   2.912   1.546  0.2107 -0.0072  0.2654
 9141SOL    HW128236   1.349   2.973   1.541  0.1846  0.0323  0.3574
 9141SOL    HW228237   1.202   2.959   1.507  0.3424 -0.2163 -0.2413
 9142SOL     OW28238   0.408   2.097   2.257 -0.6426 -0.2591 -0.0297
 9142SOL    HW128239   0.386   2.114   2.165  0.6588  0.4294 -0.2268
 9142SOL    HW228240   0.503   2.109   2.262 -0.5583 -1.2619  1.2052
 9143SOL     OW28241   6.384   7.228   2.902 -0.2403 -0.1312  0.4992
 9143SOL    HW128242   6.466   7.276   2.894 -0.0217 -0.6199 -0.1481
 9143SOL    HW228243   6.398   7.146   2.855 -2.0879  1.0369 -2.2093
 9144SOL     OW28244   1.564   3.890   0.521 -0.3724  0.7518  0.2089
 9144SOL    HW128245   1.521   3.895   0.606  0.3440 -1.1744  0.7135
 9144SOL    HW228246   1.493   3.874   0.459 -0.6739  0.0497  0.7230
 9145SOL     OW28247   7.701   7.073   1.555 -0.7524  0.2344 -0.1153
 9145SOL    HW128248   7.628   7.116   1.511 -0.7841 -1.2810 -1.6200
 9145SOL    HW228249   7.778   7.122   1.527 -0.8700 -0.1748 -1.1896
 9146SOL     OW28250   3.643   1.646   2.516 -0.0309  0.2725  0.5170
 9146SOL    HW128251   3.610   1.561   2.488  0.7892  0.1466 -0.0930
 9146SOL    HW228252   3.732   1.629   2.546 -0.4778  0.6130  2.1101
 9147SOL     OW28253   4.853   0.391   5.243 -0.0556  0.2322  0.0432
 9147SOL    HW128254   4.916   0.322   5.225  0.3322  0.4553  0.5591
 9147SOL    HW228255   4.871   0.458   5.177  1.7824  1.3304  1.6305
 9148SOL     OW28256   7.955   4.692   3.388 -0.0646 -0.8216 -0.7882
 9148SOL    HW128257   7.991   4.689   3.477  0.1130 -0.5679 -0.8528
 9148SOL    HW228258   7.980   4.778   3.355  0.1769 -1.0573 -1.2144
 9149SOL     OW28259   7.575   6.560   7.197 -0.4880  0.2893  0.2859
 9149SOL    HW128260   7.574   6.538   7.103 -0.1958  1.0305  0.1053
 9149SOL    HW228261   7.501   6.618   7.209 -0.0397  0.8518  0.3502
 9150SOL     OW28262   7.113   2.436   1.353  0.7729 -0.4633  0.0103
 9150SOL    HW128263   7.084   2.490   1.279 -0.9468 -0.6382  0.5352
 9150SOL    HW228264   7.086   2.485   1.430  0.5447 -1.3500  0.4996
 9151SOL     OW28265   6.499   3.552   6.602  0.2218  0.3980 -0.4597
 9151SOL    HW128266   6.506   3.469   6.556 -0.6310 -1.1975  2.1616
 9151SOL    HW228267   6.406   3.574   6.600  0.1882  0.3694  0.3399
 9152SOL     OW28268   0.538   2.586   1.699 -0.4432  0.2470 -0.0940
 9152SOL    HW128269   0.524   2.673   1.662 -1.6047  0.0579 -0.1128
 9152SOL    HW228270   0.633   2.574   1.696 -0.1658  1.9512  0.8973
 9153SOL     OW28271   2.762   0.569   0.152  0.2738  0.5983  0.1168
 9153SOL    HW128272   2.727   0.527   0.231 -2.1767  0.2569 -1.0975
 9153SOL    HW228273   2.684   0.599   0.105  1.7751  2.0776 -1.4741
 9154SOL     OW28274   4.826   7.376   7.356  0.6923  0.0865 -0.7314
 9154SOL    HW128275   4.757   7.310   7.350  1.5181 -0.8176 -0.4550
 9154SOL    HW228276   4.779   7.459   7.356 -0.6833 -0.5576  3.1887
 9155SOL     OW28277   1.460   1.278   0.507  0.2524  0.5789 -0.2841
 9155SOL    HW128278   1.441   1.284   0.601  0.7583  0.0905 -0.1497
 9155SOL    HW228279   1.438   1.365   0.473 -0.4557  0.5926  0.1884
 9156SOL     OW28280   4.010   2.739   3.196  0.2886 -0.2223 -0.4232
 9156SOL    HW128281   4.040   2.746   3.105 -0.0632 -1.3844 -0.6350
 9156SOL    HW228282   3.928   2.690   3.191 -0.4185  0.8430  0.4003
 9157SOL     OW28283   5.506   1.086   5.088 -0.3517 -0.2958  0.3623
 9157SOL    HW128284   5.421   1.080   5.131  0.2045  0.0264  1.5195
 9157SOL    HW228285   5.507   1.172   5.046  0.1932  0.5244  2.0443
 9158SOL     OW28286   2.958   1.319   6.290 -0.2640  0.3262 -0.7229
 9158SOL    HW128287   2.885   1.370   6.255 -1.2010 -1.8875 -2.0662
 9158SOL    HW228288   2.986   1.265   6.217  1.3088 -0.4357  0.4289
 9159SOL     OW28289   1.125   2.741   0.032 -0.2186  0.2584  0.2030
 9159SOL    HW128290   1.171   2.659   0.015  1.9198  1.3550  0.5554
 9159SOL    HW228291   1.120   2.785  -0.053  0.7613  0.8203  0.4261
 9160SOL     OW28292   7.586   5.976   4.312 -0.2094 -0.6858 -0.1678
 9160SOL    HW128293   7.676   5.992   4.285 -0.8233  0.2077 -1.7577
 9160SOL    HW228294   7.543   6.061   4.303 -1.3267 -1.2049  0.1517
 9161SOL     OW28295   4.373   2.981   6.490 -0.3586  0.4049  0.4738
 9161SOL    HW128296   4.439   3.047   6.508 -0.4759  0.7128 -0.1765
 9161SOL    HW228297   4.397   2.946   6.404 -0.7675  0.1854  0.4459
 9162SOL     OW28298   6.886   6.556   2.904 -0.3325  0.2131  0.2160
 9162SOL    HW128299   6.912   6.465   2.919  0.3231  0.0939 -1.5240
 9162SOL    HW228300   6.816   6.572   2.967  0.4732 -1.0795  1.4553
 9163SOL     OW28301   2.370   2.527   3.804  0.1649  0.1041  0.2124
 9163SOL    HW128302   2.381   2.495   3.715 -1.6703  1.0489 -0.3825
 9163SOL    HW228303   2.438   2.483   3.854  0.8434 -0.8855 -1.5395
 9164SOL     OW28304   0.457   4.578   2.885 -0.4566 -0.3314  0.3938
 9164SOL    HW128305   0.399   4.641   2.928  1.0252  0.1832  1.6946
 9164SOL    HW228306   0.442   4.496   2.932 -1.1724 -0.5556 -0.2156
 9165SOL     OW28307   4.253   1.600   3.513  0.0010  0.6941  0.0224
 9165SOL    HW128308   4.226   1.539   3.444 -1.1166 -0.2469  1.2409
 9165SOL    HW228309   4.194   1.674   3.504 -1.1687 -0.0976  0.8765
 9166SOL     OW28310   6.236   4.808   7.879  0.1279  0.0189 -0.0385
 9166SOL    HW128311   6.229   4.753   7.800  1.5405 -0.4870  0.1700
 9166SOL    HW228312   6.228   4.897   7.846  0.3280 -0.2039 -0.7069
 9167SOL     OW28313   3.485   6.552   6.801 -0.2718  0.3478 -0.0096
 9167SOL    HW128314   3.454   6.626   6.748 -2.4922 -1.5189 -1.3934
 9167SOL    HW228315   3.567   6.526   6.760 -1.7852 -0.8428 -2.3639
 9168SOL     OW28316   0.380   5.587   7.816  0.1456  0.1483 -0.2557
 9168SOL    HW128317   0.384   5.662   7.757 -0.7014  3.1290  3.2283
 9168SOL    HW228318   0.287   5.578   7.836  0.7119  1.6443  3.4261
 9169SOL     OW28319   7.321   6.728   3.186  0.6764  0.4069 -0.1837
 9169SOL    HW128320   7.318   6.713   3.092  0.9876 -0.8710 -0.0000
 9169SOL    HW228321   7.346   6.643   3.223 -0.3004  0.6716  1.1131
 9170SOL     OW28322   0.095   3.748   5.409  0.1944 -0.2015  0.6344
 9170SOL    HW128323   0.180   3.790   5.396 -0.2874  0.2577 -1.1123
 9170SOL    HW228324   0.037   3.789   5.345 -0.7359 -2.1949  0.1359
 9171SOL     OW28325   7.414   7.626   7.766  0.3433 -0.5157 -0.3694
 9171SOL    HW128326   7.428   7.715   7.733  1.4205 -0.1904  0.9280
 9171SOL    HW228327   7.425   7.634   7.861 -0.4295 -1.8737 -0.1598
 9172SOL     OW28328   2.396   3.855   7.680  0.3623 -0.1227 -0.0652
 9172SOL    HW128329   2.302   3.843   7.664  0.4099 -1.5161  0.6230
 9172SOL    HW228330   2.439   3.797   7.617  0.7435 -0.0247  0.1019
 9173SOL     OW28331   7.321   3.668   2.953  0.0753  0.9104 -0.4521
 9173SOL    HW128332   7.249   3.727   2.933 -0.3734  0.4644 -0.1589
 9173SOL    HW228333   7.340   3.624   2.869 -1.2765 -0.3764 -0.1023
 9174SOL     OW28334   4.919   2.185   2.654 -0.2196  0.3343  0.3260
 9174SOL    HW128335   4.929   2.220   2.742  1.3748 -0.3318  0.4293
 9174SOL    HW228336   4.986   2.230   2.602  0.2386 -0.7774 -0.0706
 9175SOL     OW28337   0.760   3.790   2.269  0.1331 -0.0132 -0.0710
 9175SOL    HW128338   0.827   3.731   2.234  0.4458 -0.7687  1.7372
 9175SOL    HW228339   0.687   3.782   2.208  0.1265 -2.4280  0.1899
 9176SOL     OW28340   4.231   7.516   5.718 -0.5242  0.2559 -0.4451
 9176SOL    HW128341   4.280   7.468   5.785 -1.5567  0.7739  0.6871
 9176SOL    HW228342   4.294   7.580   5.684 -0.0518  0.1173  0.1511
 9177SOL     OW28343   1.180   0.284   7.796 -0.4001 -0.3415  0.2466
 9177SOL    HW128344   1.145   0.347   7.859  1.1869  0.6929  0.1405
 9177SOL    HW228345   1.181   0.331   7.713  0.2572 -0.6991  0.0459
 9178SOL     OW28346   7.031   6.418   0.144 -0.1620  0.4855 -0.3677
 9178SOL    HW128347   7.072   6.485   0.198 -1.4472  0.2427  0.9470
 9178SOL    HW228348   7.089   6.409   0.068  1.3785  1.2349  0.6951
 9179SOL     OW28349   7.145   3.840   4.750 -0.4605  0.5711  0.1834
 9179SOL    HW128350   7.077   3.840   4.817 -1.1030 -0.7293 -0.4442
 9179SOL    HW228351   7.213   3.897   4.785 -1.9415  2.0481  0.7425
 9180SOL     OW28352   2.783   4.544   6.002 -0.1457 -0.6620  0.1043
 9180SOL    HW128353   2.804   4.601   5.928 -1.3740  0.0077  0.2446
 9180SOL    HW228354   2.726   4.598   6.057  0.0710 -1.4512  1.1009
 9181SOL     OW28355   2.757   6.824   5.912  0.2369  0.1988  0.0965
 9181SOL    HW128356   2.664   6.838   5.932  0.2706  0.2302  0.2241
 9181SOL    HW228357   2.802   6.833   5.995  0.1026 -2.0708  0.4528
 9182SOL     OW28358   4.638   1.575   6.530  0.0346 -0.7036 -0.0035
 9182SOL    HW128359   4.594   1.626   6.462  0.0213  0.0324  0.5592
 9182SOL    HW228360   4.726   1.612   6.535  0.1275 -0.9454  0.1836
 9183SOL     OW28361   6.371   0.245   1.477  0.0702 -0.0832 -0.6431
 9183SOL    HW128362   6.415   0.289   1.404  1.3837  0.7494  0.6291
 9183SOL    HW228363   6.374   0.152   1.453  1.8553  0.0238 -0.9585
 9184SOL     OW28364   7.174   1.750   1.484 -0.2462 -0.5629 -0.1384
 9184SOL    HW128365   7.216   1.835   1.500 -0.0571 -1.2110  3.2225
 9184SOL    HW228366   7.092   1.772   1.440  0.8710  1.1672 -1.4286
 9185SOL     OW28367   6.709   3.279   1.427 -0.6137  0.0199 -0.3345
 9185SOL    HW128368   6.620   3.294   1.394 -0.0532  0.6318 -1.5794
 9185SOL    HW228369   6.695   3.246   1.516 -2.0247  2.7337  0.5096
 9186SOL     OW28370   0.144   2.573   1.640  0.0690  0.2178  0.3293
 9186SOL    HW128371   0.070   2.579   1.579 -0.3681 -0.6003  0.7688
 9186SOL    HW228372   0.218   2.547   1.586 -0.2520 -0.1960  0.0830
 9187SOL     OW28373   6.188   6.381   2.035  0.3729  0.1364  0.6676
 9187SOL    HW128374   6.246   6.457   2.032  0.9609 -0.3211  0.3266
 9187SOL    HW228375   6.241   6.309   2.000  0.4544 -0.8358  2.7168
 9188SOL     OW28376   4.042   2.288   6.925  0.3747 -0.4908 -0.4048
 9188SOL    HW128377   3.973   2.336   6.879 -1.1702 -0.1765  2.1480
 9188SOL    HW228378   4.069   2.347   6.995  1.4881 -1.6313  0.1315
 9189SOL     OW28379   7.819   6.388   4.207  0.1631  0.0158 -0.0557
 9189SOL    HW128380   7.803   6.481   4.196 -0.9850 -0.5502 -4.0470
 9189SOL    HW228381   7.842   6.357   4.120 -0.6915 -3.6396  0.9262
 9190SOL     OW28382   7.269   5.867   2.733 -0.5801  0.2777 -0.4291
 9190SOL    HW128383   7.311   5.833   2.653  1.1005  1.5621 -0.1040
 9190SOL    HW228384   7.328   5.841   2.804 -0.4967  1.7919  0.0676
 9191SOL     OW28385   7.666   5.868   4.042  0.3577  0.2082 -0.2787
 9191SOL    HW128386   7.702   5.945   4.086 -0.1884  0.2220  0.1510
 9191SOL    HW228387   7.669   5.890   3.948  0.6944  0.5384 -0.1905
 9192SOL     OW28388   2.482   3.756   6.315 -0.1011 -0.2544 -0.3114
 9192SOL    HW128389   2.455   3.701   6.241  0.5765  1.7749 -2.1497
 9192SOL    HW228390   2.405   3.809   6.335  0.0734  0.0415 -0.4029
 9193SOL     OW28391   3.226   7.172   2.642 -0.2960  0.2748  0.0058
 9193SOL    HW128392   3.138   7.208   2.652 -0.3869  0.2461 -0.6862
 9193SOL    HW228393   3.213   7.080   2.621 -0.1634  0.6746 -1.9636
 9194SOL     OW28394   2.190   6.300   6.182 -0.2685 -0.0994 -0.6505
 9194SOL    HW128395   2.152   6.221   6.221 -1.0175 -0.2623 -1.6867
 9194SOL    HW228396   2.156   6.372   6.235  0.6554 -0.4745  0.4897
 9195SOL     OW28397   3.684   2.312   2.550  0.3087 -0.0927  0.3003
 9195SOL    HW128398   3.768   2.329   2.506  0.3937  1.3204  0.9807
 9195SOL    HW228399   3.621   2.365   2.502  0.2857  0.9365  1.4521
 9196SOL     OW28400   6.077   3.429   2.876 -0.4256 -0.3714  0.4357
 9196SOL    HW128401   6.088   3.476   2.958 -0.3366 -0.1366  0.2870
 9196SOL    HW228402   6.016   3.358   2.898 -0.2739 -0.4085  0.7435
 9197SOL     OW28403   3.123   4.509   2.223  0.2017 -0.2862 -0.4351
 9197SOL    HW128404   3.183   4.471   2.287 -0.7727 -0.2730  0.5072
 9197SOL    HW228405   3.036   4.499   2.263 -0.2889  0.8632 -1.1821
 9198SOL     OW28406   3.485   6.421   5.271  0.0789  0.6187 -0.0111
 9198SOL    HW128407   3.413   6.369   5.235  1.0283  0.2267 -1.3951
 9198SOL    HW228408   3.485   6.501   5.217  0.3645  0.8362  0.3098
 9199SOL     OW28409   2.108   2.007   7.405  0.1198  0.2989  0.2641
 9199SOL    HW128410   2.154   1.945   7.462 -0.2841  0.2985  0.5952
 9199SOL    HW228411   2.015   1.995   7.428 -0.1563 -0.6277 -1.3007
 9200SOL     OW28412   2.859   0.882   6.484  0.0182 -0.4928 -0.6951
 9200SOL    HW128413   2.867   0.930   6.566 -0.0371  1.8865 -2.0252
 9200SOL    HW228414   2.895   0.796   6.503 -1.3577 -0.4991  2.2223
 9201SOL     OW28415   7.620   3.661   0.001 -0.2060  0.7766 -0.3115
 9201SOL    HW128416   7.656   3.678   0.088  0.4844  1.9447 -0.8210
 9201SOL    HW228417   7.536   3.617   0.018  0.7591 -0.6617  0.9003
 9202SOL     OW28418   2.191   7.958   7.860 -0.1559 -0.1660  0.7805
 9202SOL    HW128419   2.278   7.984   7.829  0.1591 -1.0015  0.9728
 9202SOL    HW228420   2.207   7.889   7.924 -1.0924 -1.9592 -0.9027
 9203SOL     OW28421   0.200   3.688   4.548  0.3683  0.1329  0.2941
 9203SOL    HW128422   0.231   3.608   4.506  0.2419 -0.8008  1.9493
 9203SOL    HW228423   0.251   3.694   4.629 -3.1712 -1.0470  2.7178
 9204SOL     OW28424   2.267   2.033   3.496 -0.2028  0.1610 -0.4428
 9204SOL    HW128425   2.285   1.943   3.525 -0.8331  0.3082  0.4415
 9204SOL    HW228426   2.191   2.024   3.438 -0.6960  0.1978  0.1891
 9205SOL     OW28427   5.542   6.467   2.975  0.3495 -0.6135  0.3860
 9205SOL    HW128428   5.503   6.409   3.040  0.2775 -0.2943  0.6313
 9205SOL    HW228429   5.590   6.409   2.916 -1.0427 -1.0790 -0.3060
 9206SOL     OW28430   4.003   4.025   7.239 -0.3838 -0.0593 -0.6574
 9206SOL    HW128431   4.007   3.963   7.311 -1.7782  0.4328 -0.1360
 9206SOL    HW228432   3.950   3.981   7.172 -0.6257  0.2008 -0.6410
 9207SOL     OW28433   2.857   4.465   5.284 -0.0251 -0.2516 -0.0173
 9207SOL    HW128434   2.858   4.446   5.190 -1.0581  1.8922 -0.4867
 9207SOL    HW228435   2.944   4.438   5.314  0.2920 -1.0324 -1.5606
 9208SOL     OW28436   6.272   7.391   4.468 -0.1868 -0.4290  0.2498
 9208SOL    HW128437   6.206   7.342   4.420  1.0132 -1.3343 -0.4927
 9208SOL    HW228438   6.350   7.386   4.414  1.4537 -2.2702  2.7033
 9209SOL     OW28439   6.513   6.034   0.875  0.2046 -0.2239 -0.3519
 9209SOL    HW128440   6.528   5.962   0.814  1.1447  0.4238 -0.9073
 9209SOL    HW228441   6.587   6.030   0.935  0.0212 -0.0075 -0.1121
 9210SOL     OW28442   2.970   6.037   3.753 -0.3578  0.0421  0.3858
 9210SOL    HW128443   2.901   6.066   3.813 -1.6744 -0.5301 -0.8210
 9210SOL    HW228444   3.003   6.118   3.713  0.5783  0.4313  1.9245
 9211SOL     OW28445   5.167   5.159   1.243  0.4953 -0.3052  0.7899
 9211SOL    HW128446   5.181   5.068   1.216  1.4861 -0.5625  2.1065
 9211SOL    HW228447   5.075   5.162   1.269  0.2299 -0.7145 -0.0840
 9212SOL     OW28448   4.952   1.123   5.322  0.0937 -0.2596 -0.4068
 9212SOL    HW128449   4.866   1.137   5.362  0.4546 -0.0936  0.3072
 9212SOL    HW228450   4.940   1.148   5.231 -0.8636 -1.1034 -0.5294
 9213SOL     OW28451   6.081   0.323   0.697  0.3914  0.5666  0.0302
 9213SOL    HW128452   6.128   0.316   0.780 -0.1368 -2.1188  0.1474
 9213SOL    HW228453   6.125   0.262   0.638 -1.0561  0.2333 -0.7561
 9214SOL     OW28454   3.304   0.742   4.398 -0.4519 -0.1929 -0.4140
 9214SOL    HW128455   3.287   0.649   4.388 -0.2679 -0.0670 -2.1522
 9214SOL    HW228456   3.398   0.751   4.381 -0.1212  0.0907  1.4809
 9215SOL     OW28457   3.503   2.424   6.743  0.3007  0.2265 -0.0311
 9215SOL    HW128458   3.506   2.366   6.667  0.7843 -0.7296  0.7071
 9215SOL    HW228459   3.471   2.368   6.815  0.7412  0.8743  0.6790
 9216SOL     OW28460   6.772   1.940   0.885  0.3446  0.1818 -0.4210
 9216SOL    HW128461   6.778   1.936   0.980 -0.4364 -1.5427 -0.4399
 9216SOL    HW228462   6.851   1.989   0.858  1.8074 -1.3679  0.9521
 9217SOL     OW28463   7.500   7.165   7.844  0.1264  0.0172 -0.0638
 9217SOL    HW128464   7.467   7.223   7.913  1.1613 -1.4226  1.6888
 9217SOL    HW228465   7.514   7.223   7.769 -2.5382  1.3403  0.3992
 9218SOL     OW28466   4.425   2.952   2.503 -0.0409 -0.8203 -0.0146
 9218SOL    HW128467   4.403   2.905   2.584 -0.7899 -0.1452  0.1756
 9218SOL    HW228468   4.433   2.883   2.437 -0.9035 -1.2418  0.3171
 9219SOL     OW28469   6.655   2.474   7.122 -0.4000  0.2680 -0.5896
 9219SOL    HW128470   6.635   2.567   7.129  0.3419  0.4810 -1.1456
 9219SOL    HW228471   6.591   2.431   7.179  0.6781  1.2897  1.4716
 9220SOL     OW28472   5.419   6.083   7.620  0.4686 -0.8171 -0.1033
 9220SOL    HW128473   5.363   6.103   7.545 -0.4122 -0.1327  0.7170
 9220SOL    HW228474   5.506   6.115   7.595 -0.2467  1.2289 -0.0575
 9221SOL     OW28475   4.295   1.754   6.412 -0.9564 -0.4187  0.0712
 9221SOL    HW128476   4.322   1.715   6.495 -1.4128  0.4431  0.6276
 9221SOL    HW228477   4.315   1.687   6.347 -2.7096 -2.0128  1.1296
 9222SOL     OW28478   4.692   4.324   4.787  0.5431 -0.8063 -0.2888
 9222SOL    HW128479   4.777   4.317   4.830  0.1043  0.6901  0.8899
 9222SOL    HW228480   4.692   4.254   4.722  2.6068 -0.9187 -0.2032
 9223SOL     OW28481   6.694   6.900   2.026  0.2925 -0.2800  0.4899
 9223SOL    HW128482   6.671   6.893   1.934 -0.5038 -1.4506  0.7708
 9223SOL    HW228483   6.615   6.934   2.069  1.0542  1.4470  0.5718
 9224SOL     OW28484   0.531   4.209   1.000 -0.1865  0.4821  0.4532
 9224SOL    HW128485   0.550   4.222   0.907  0.9785 -1.3553  0.4027
 9224SOL    HW228486   0.565   4.287   1.043  0.2685  0.8448 -0.5462
 9225SOL     OW28487   7.987   1.791   0.645 -0.3403 -0.2146 -0.0552
 9225SOL    HW128488   8.029   1.725   0.589 -0.4973 -0.4555  0.1115
 9225SOL    HW228489   7.914   1.746   0.685  0.1427 -0.2201  0.8374
 9226SOL     OW28490   6.241   3.016   4.175 -0.5574 -0.1832 -0.0883
 9226SOL    HW128491   6.299   3.018   4.099 -0.7078 -0.8669 -0.2311
 9226SOL    HW228492   6.239   3.106   4.208  2.1294 -0.5351  1.1171
 9227SOL     OW28493   5.121   5.703   0.038  0.1892 -0.8013 -0.1963
 9227SOL    HW128494   5.051   5.686  -0.025 -2.3591 -1.0648  2.5856
 9227SOL    HW228495   5.138   5.796   0.029 -2.2926 -0.2023  0.7654
 9228SOL     OW28496   5.233   3.384   2.429 -0.3984  0.1166 -0.3550
 9228SOL    HW128497   5.319   3.370   2.467  0.4671  0.8505 -1.9814
 9228SOL    HW228498   5.197   3.460   2.475 -0.4855 -0.6097  0.8013
 9229SOL     OW28499   2.030   0.712   2.077  0.4871  0.5503 -0.0818
 9229SOL    HW128500   2.005   0.626   2.112  0.5096  0.3902 -0.4626
 9229SOL    HW228501   2.039   0.698   1.983 -0.4314  1.1810 -0.2688
 9230SOL     OW28502   5.119   4.490   0.693 -0.1295  0.6252 -0.1039
 9230SOL    HW128503   5.106   4.456   0.604 -2.2225 -1.2183  0.8748
 9230SOL    HW228504   5.209   4.524   0.692  0.2766 -0.3866 -2.6034
 9231SOL     OW28505   6.906   3.600   2.967  0.4502 -0.8476 -0.8308
 9231SOL    HW128506   6.930   3.687   3.001 -1.5021 -1.3262  2.0022
 9231SOL    HW228507   6.989   3.553   2.961  1.1040 -0.0973  1.6634
 9232SOL     OW28508   0.673   5.946   3.379 -0.3060 -0.5052  0.1143
 9232SOL    HW128509   0.644   5.942   3.470  1.0276  0.1470  0.5824
 9232SOL    HW228510   0.731   5.871   3.369  1.3925  0.7266  0.4891
 9233SOL     OW28511   1.599   3.590   5.618  0.2003  0.4806 -0.0078
 9233SOL    HW128512   1.628   3.659   5.558  0.0262  1.2498  0.7874
 9233SOL    HW228513   1.523   3.627   5.662  0.3503 -0.0667  0.7103
 9234SOL     OW28514   7.049   0.061   4.983  0.5801  0.2333  0.1219
 9234SOL    HW128515   7.032  -0.016   4.928 -0.4910  0.5207  0.0448
 9234SOL    HW228516   7.117   0.109   4.936 -0.4004  0.5335 -1.0326
 9235SOL     OW28517   2.949   7.069   0.224  0.4481  0.4008 -0.2108
 9235SOL    HW128518   2.896   7.021   0.287 -1.6775  1.6440 -0.9858
 9235SOL    HW228519   2.995   7.135   0.276  0.4084 -0.0010  0.3301
 9236SOL     OW28520   2.431   2.211   6.375  1.0917 -0.0067 -0.0100
 9236SOL    HW128521   2.429   2.306   6.367 -1.3389  0.0249  0.6431
 9236SOL    HW228522   2.523   2.190   6.390  1.4451  2.3493  1.2918
 9237SOL     OW28523   4.305   5.017   1.791  0.1372 -0.2783 -0.4398
 9237SOL    HW128524   4.221   4.989   1.756 -0.8994  1.4692  0.5242
 9237SOL    HW228525   4.289   5.027   1.885  0.8059  2.0787 -0.5319
 9238SOL     OW28526   5.138   1.077   7.349 -0.0913 -0.5423 -0.1017
 9238SOL    HW128527   5.106   0.988   7.359  0.2929 -0.7170 -0.3949
 9238SOL    HW228528   5.072   1.121   7.296 -1.1429 -0.1649  1.5091
 9239SOL     OW28529   5.519   4.279   2.238  0.0624 -0.3620  0.5201
 9239SOL    HW128530   5.523   4.374   2.227 -1.3969 -0.5604 -2.1186
 9239SOL    HW228531   5.455   4.266   2.308 -1.5182  0.5183 -0.7472
 9240SOL     OW28532   0.476   0.253   6.520 -0.0200 -0.0587 -0.2921
 9240SOL    HW128533   0.561   0.249   6.475  0.7890 -1.1179  1.2545
 9240SOL    HW228534   0.426   0.180   6.483 -0.0281  0.1786 -0.7556
 9241SOL     OW28535   0.608   5.123   2.470  0.2907 -0.2129 -0.1690
 9241SOL    HW128536   0.625   5.211   2.504 -1.6415  0.3806 -0.6407
 9241SOL    HW228537   0.633   5.128   2.378 -2.3700  0.7111 -0.9072
 9242SOL     OW28538   3.876   3.097   5.769  0.2978  0.1825  0.5511
 9242SOL    HW128539   3.852   3.176   5.721  0.1376 -0.0016  0.3218
 9242SOL    HW228540   3.818   3.030   5.734 -0.4254  0.2383  1.6421
 9243SOL     OW28541   1.620   6.920   6.552 -0.4972 -0.5590  0.2897
 9243SOL    HW128542   1.559   6.862   6.505  0.2329 -0.1819 -1.1349
 9243SOL    HW228543   1.700   6.918   6.500 -0.6031  2.0747 -0.0464
 9244SOL     OW28544   2.390   7.270   2.019 -0.8528  0.3272 -0.0764
 9244SOL    HW128545   2.337   7.338   2.061  0.1933  1.0202  0.1436
 9244SOL    HW228546   2.445   7.235   2.089 -0.8337 -0.2037 -0.3544
 9245SOL     OW28547   6.110   4.959   2.382  0.4403 -0.2251  0.0773
 9245SOL    HW128548   6.020   4.942   2.411 -0.0020 -0.4137 -1.3861
 9245SOL    HW228549   6.152   5.000   2.458 -1.1205  0.6601  0.4803
 9246SOL     OW28550   1.319   6.190   2.201  0.1952  0.2315  0.1913
 9246SOL    HW128551   1.401   6.153   2.234 -0.1391 -0.8955 -0.2083
 9246SOL    HW228552   1.266   6.204   2.280  1.4185  2.6581  0.6380
 9247SOL     OW28553   1.468   3.315   3.347  0.2474 -0.0358 -0.2237
 9247SOL    HW128554   1.430   3.375   3.412  0.6421  0.5442 -0.5272
 9247SOL    HW228555   1.457   3.228   3.386 -0.3135  0.2334  0.2258
 9248SOL     OW28556   6.149   5.210   4.845  0.1092 -0.1365 -0.5930
 9248SOL    HW128557   6.149   5.302   4.872 -0.1468 -0.7165  1.4484
 9248SOL    HW228558   6.067   5.175   4.880 -0.0059 -1.0309 -1.7449
 9249SOL     OW28559   1.065   3.028   1.385 -0.4318 -0.5612 -0.4006
 9249SOL    HW128560   0.977   3.055   1.357 -0.4720  0.8965  1.0850
 9249SOL    HW228561   1.124   3.079   1.330 -0.5159  0.8770  0.8273
 9250SOL     OW28562   3.192   2.333   0.600  0.2216 -0.3289 -0.1289
 9250SOL    HW128563   3.159   2.298   0.682  0.6028 -0.7340 -0.1458
 9250SOL    HW228564   3.122   2.391   0.568  0.4034  0.4439  0.8641
 9251SOL     OW28565   3.990   1.707   0.999 -0.5715  0.2757  0.4683
 9251SOL    HW128566   4.061   1.694   1.061 -1.4979 -0.2323  1.4256
 9251SOL    HW228567   4.004   1.795   0.964  2.1230 -0.8523 -1.4136
 9252SOL     OW28568   4.434   3.469   3.914  0.0660 -0.2732  0.1222
 9252SOL    HW128569   4.506   3.532   3.916 -0.8748  0.7962  0.7207
 9252SOL    HW228570   4.357   3.521   3.892 -0.5904 -1.3548 -0.1838
 9253SOL     OW28571   4.163   1.844   5.388 -0.3863 -0.3157  0.1457
 9253SOL    HW128572   4.217   1.862   5.466 -1.5486  0.4594  0.7898
 9253SOL    HW228573   4.223   1.856   5.314  0.5221 -0.2477  0.8846
 9254SOL     OW28574   3.365   5.905   4.291 -0.4779  0.1155  0.0866
 9254SOL    HW128575   3.450   5.861   4.289  0.5883  1.9513  2.5804
 9254SOL    HW228576   3.368   5.965   4.216  1.0773  1.3114  1.0758
 9255SOL     OW28577   3.394   2.666   4.689  0.8810  0.8340  0.4568
 9255SOL    HW128578   3.300   2.658   4.707  0.9633 -0.4029  0.4153
 9255SOL    HW228579   3.402   2.744   4.634 -0.2097  0.5369 -0.1366
 9256SOL     OW28580   5.201   4.954   4.870  0.2801 -0.4884  0.5034
 9256SOL    HW128581   5.259   5.019   4.909  0.2429 -0.3783  0.3783
 9256SOL    HW228582   5.257   4.905   4.810 -0.1505  0.8685 -1.0672
 9257SOL     OW28583   2.417   6.594   0.432 -0.3081  0.1313  0.4136
 9257SOL    HW128584   2.487   6.602   0.368 -0.5516  0.3852  0.1799
 9257SOL    HW228585   2.454   6.538   0.501  0.2452  0.5636  0.4717
 9258SOL     OW28586   4.217   2.908   0.091 -0.0222 -0.7487  0.7400
 9258SOL    HW128587   4.129   2.870   0.087 -0.6554  0.6646  1.2053
 9258SOL    HW228588   4.212   2.973   0.160  0.7758  0.8990 -0.7255
 9259SOL     OW28589   3.500   4.221   7.358 -0.3565  0.2389 -0.0722
 9259SOL    HW128590   3.418   4.271   7.360 -0.8755 -0.6323  0.5753
 9259SOL    HW228591   3.556   4.265   7.423 -1.2771 -0.7866  1.4574
 9260SOL     OW28592   4.682   6.562   4.492 -0.2426 -0.3208  0.3372
 9260SOL    HW128593   4.692   6.656   4.506  0.6535 -0.7074  2.4771
 9260SOL    HW228594   4.606   6.538   4.545  0.5400 -1.0834  1.1216
 9261SOL     OW28595   1.624   0.201   3.400 -0.1776 -0.0826 -0.0102
 9261SOL    HW128596   1.655   0.134   3.460 -1.8804 -2.0524 -1.2392
 9261SOL    HW228597   1.698   0.218   3.342 -0.5842 -3.0092 -1.4497
 9262SOL     OW28598   0.725   1.785   4.293  0.2489  0.7193 -0.3194
 9262SOL    HW128599   0.634   1.793   4.321 -0.0348  2.7247 -1.7110
 9262SOL    HW228600   0.772   1.761   4.372 -1.5576 -0.8793  0.3073
 9263SOL     OW28601   4.690   4.161   3.464 -0.7539  0.0888 -0.3123
 9263SOL    HW128602   4.731   4.248   3.474 -1.2978  0.3771 -0.5896
 9263SOL    HW228603   4.627   4.156   3.536 -0.3688 -0.2821  0.0030
 9264SOL     OW28604   2.346   3.785   6.919 -0.0812  0.1599 -0.0678
 9264SOL    HW128605   2.282   3.727   6.961 -1.1860  0.7719 -0.8686
 9264SOL    HW228606   2.335   3.869   6.966 -0.0817  0.3476 -0.4015
 9265SOL     OW28607   7.375   6.403   2.932 -0.0738  0.5591 -0.2011
 9265SOL    HW128608   7.358   6.496   2.920 -1.2207  0.5307  1.0019
 9265SOL    HW228609   7.313   6.376   3.001  0.4599 -1.0118 -0.3081
 9266SOL     OW28610   0.584   1.782   5.050  0.7226 -0.2173 -0.0399
 9266SOL    HW128611   0.642   1.854   5.074 -0.9860  1.8106 -1.7551
 9266SOL    HW228612   0.576   1.730   5.130 -0.2173  3.0867  2.1430
 9267SOL     OW28613   7.352   1.871   2.034  0.0596 -0.3517  0.1178
 9267SOL    HW128614   7.412   1.943   2.013  0.6830 -1.4486 -1.9560
 9267SOL    HW228615   7.337   1.827   1.950 -1.0822 -2.0609  1.1974
 9268SOL     OW28616   1.980   7.435   2.016 -0.1028  0.7113 -0.3531
 9268SOL    HW128617   1.909   7.461   2.075 -0.9875  1.1186 -1.5727
 9268SOL    HW228618   1.968   7.490   1.939  0.4736 -0.4612 -1.2892
 9269SOL     OW28619   0.972   7.907   4.439  0.0112 -0.2561  0.8158
 9269SOL    HW128620   1.022   7.877   4.515  1.0040  1.1569  0.7425
 9269SOL    HW228621   1.035   7.906   4.367 -0.1502  1.1679  0.6446
 9270SOL     OW28622   1.755   0.690   3.517 -0.4944 -0.0584  0.0308
 9270SOL    HW128623   1.784   0.599   3.508  0.5910  0.3454 -0.6492
 9270SOL    HW228624   1.664   0.689   3.487 -0.2661 -0.7893 -0.6568
 9271SOL     OW28625   0.388   5.286   3.869 -0.4566 -0.5620 -0.1403
 9271SOL    HW128626   0.336   5.317   3.794  0.6135  0.4255 -0.4781
 9271SOL    HW228627   0.374   5.191   3.869 -3.2000 -0.2092  0.4804
 9272SOL     OW28628   3.953   4.835   7.652  0.3347 -0.3590  0.5338
 9272SOL    HW128629   3.881   4.776   7.629  0.4737 -0.9005  1.4699
 9272SOL    HW228630   4.014   4.827   7.579 -1.2898  1.3415 -1.0749
 9273SOL     OW28631   5.168   5.200   0.519 -0.0738  0.0377 -0.2243
 9273SOL    HW128632   5.171   5.142   0.443 -1.2441 -0.4770  0.1051
 9273SOL    HW228633   5.147   5.286   0.483 -2.2050 -0.4985 -0.3682
 9274SOL     OW28634   7.461   5.579   1.536 -0.0808 -0.1568 -0.4418
 9274SOL    HW128635   7.454   5.618   1.624 -0.0575 -0.3631 -0.3484
 9274SOL    HW228636   7.424   5.491   1.546  0.6515 -0.4672 -0.4478
 9275SOL     OW28637   7.717   0.460   3.990  0.5624 -0.5384  0.4651
 9275SOL    HW128638   7.781   0.504   4.046 -2.6004  3.0156  1.5336
 9275SOL    HW228639   7.695   0.379   4.037  0.3922  0.8051  2.7672
 9276SOL     OW28640   0.507   6.351   1.074  0.0750  0.3128  0.2635
 9276SOL    HW128641   0.493   6.367   1.167 -0.6225  1.2957 -0.0065
 9276SOL    HW228642   0.427   6.307   1.044 -0.3032  1.2891 -0.1746
 9277SOL     OW28643   4.560   0.393   6.964  0.3398  0.1046 -0.0234
 9277SOL    HW128644   4.630   0.390   6.899 -1.6554 -0.8258 -2.2083
 9277SOL    HW228645   4.537   0.486   6.970 -0.1150  0.0971 -1.4163
 9278SOL     OW28646   3.290   4.058   6.778  0.5411 -0.4140 -0.2040
 9278SOL    HW128647   3.382   4.065   6.802  0.6319 -3.1082  0.4384
 9278SOL    HW228648   3.243   4.099   6.850  1.1463 -1.3551  0.7396
 9279SOL     OW28649   0.486   6.962   5.821  0.4266  0.3418 -0.3847
 9279SOL    HW128650   0.394   6.983   5.805  0.9467  1.1110 -2.6033
 9279SOL    HW228651   0.531   7.047   5.824  1.1115 -0.0366  0.3816
 9280SOL     OW28652   3.973   5.669   1.726 -0.0460  0.4458 -0.0514
 9280SOL    HW128653   3.913   5.711   1.664  0.0689  0.1508 -0.3643
 9280SOL    HW228654   3.970   5.725   1.804 -1.2457  0.0774  0.1848
 9281SOL     OW28655   3.912   3.399   0.554 -0.4183  0.0002  0.8180
 9281SOL    HW128656   3.851   3.327   0.536  0.1900 -0.4893  0.6685
 9281SOL    HW228657   3.939   3.385   0.645 -0.4408  0.1451  0.8468
 9282SOL     OW28658   5.815   3.199   7.356 -0.6058  0.0632 -0.0227
 9282SOL    HW128659   5.777   3.279   7.320 -0.7967 -1.0716 -2.4486
 9282SOL    HW228660   5.896   3.228   7.398  0.8442  1.1757 -3.4427
 9283SOL     OW28661   3.753   3.267   0.958  0.4563 -0.3510  0.3707
 9283SOL    HW128662   3.817   3.279   0.889  0.6139  1.4661  0.7980
 9283SOL    HW228663   3.798   3.215   1.024  1.5882  1.0454  0.7391
 9284SOL     OW28664   4.359   5.636   5.330  0.0823  0.5330  0.2191
 9284SOL    HW128665   4.450   5.666   5.319  0.2289  0.1005  0.2530
 9284SOL    HW228666   4.365   5.566   5.394  0.0136 -0.9500 -1.3633
 9285SOL     OW28667   5.863   2.589   7.191  0.3747 -0.0133 -0.6192
 9285SOL    HW128668   5.954   2.577   7.216  0.1667 -0.2021  0.0646
 9285SOL    HW228669   5.813   2.544   7.260 -0.3621  3.1560  0.9816
 9286SOL     OW28670   4.591   3.680   0.657  0.7107 -0.5101 -0.1993
 9286SOL    HW128671   4.635   3.596   0.644 -1.0771 -1.2500 -1.5323
 9286SOL    HW228672   4.543   3.696   0.576  0.4620  1.4800  0.2976
 9287SOL     OW28673   5.425   6.754   1.153 -0.0056  0.0713 -0.5424
 9287SOL    HW128674   5.454   6.829   1.100 -0.7360  0.8668  0.1550
 9287SOL    HW228675   5.507   6.711   1.180  0.3787 -0.2195 -2.1155
 9288SOL     OW28676   1.251   2.481   7.977  0.4216 -0.0690  0.4935
 9288SOL    HW128677   1.327   2.447   7.930  0.5300 -0.3657  0.8808
 9288SOL    HW228678   1.177   2.432   7.942  0.6116 -0.9164  1.2475
 9289SOL     OW28679   1.095   0.305   0.956  0.4232 -0.8727 -0.1280
 9289SOL    HW128680   1.058   0.237   0.899  1.1373 -0.2798 -1.3194
 9289SOL    HW228681   1.028   0.321   1.021 -1.5201  0.2995 -2.3488
 9290SOL     OW28682   0.648   5.560   2.407  0.0517 -0.5605  0.1597
 9290SOL    HW128683   0.720   5.619   2.429 -0.3436 -0.0767  0.1765
 9290SOL    HW228684   0.632   5.512   2.488  0.3275 -0.6378  0.1688
 9291SOL     OW28685   2.769   2.355   4.739 -0.0237 -0.2637  0.1370
 9291SOL    HW128686   2.777   2.450   4.729  2.0592 -0.1689  2.3718
 9291SOL    HW228687   2.769   2.321   4.650 -0.9442  1.8325 -0.6938
 9292SOL     OW28688   6.232   1.344   6.075  0.3661  0.2571 -0.3303
 9292SOL    HW128689   6.174   1.381   6.009 -1.6814  0.6244  1.6220
 9292SOL    HW228690   6.216   1.249   6.070 -2.0104  0.4928  1.5682
 9293SOL     OW28691   5.811   7.875   0.691 -0.2388  0.2828  0.3195
 9293SOL    HW128692   5.740   7.821   0.725 -0.6647  0.6849  0.0639
 9293SOL    HW228693   5.844   7.921   0.768  1.6382 -2.0459  0.9764
 9294SOL     OW28694   0.920   6.679   6.402 -0.1054 -0.5635 -0.1090
 9294SOL    HW128695   0.866   6.735   6.346  1.2622  0.1538 -0.7247
 9294SOL    HW228696   0.948   6.737   6.473  1.6534 -0.3462 -0.9643
 9295SOL     OW28697   2.016   6.280   4.800  0.4815 -0.0545  0.4280
 9295SOL    HW128698   2.009   6.292   4.895 -2.9414 -1.5414  0.4418
 9295SOL    HW228699   2.043   6.365   4.767  1.1084  0.6559  2.6854
 9296SOL     OW28700   3.569   4.221   0.397  0.1224  0.2378 -0.2094
 9296SOL    HW128701   3.563   4.264   0.483  1.1819  1.8166 -0.9095
 9296SOL    HW228702   3.651   4.172   0.400 -2.0150 -3.5283  1.3315
 9297SOL     OW28703   7.140   2.982   5.001  0.7638 -0.1055  0.0269
 9297SOL    HW128704   7.123   3.002   5.092 -1.1301 -0.8810 -0.1384
 9297SOL    HW228705   7.105   2.893   4.988  0.3038  0.2867 -1.6268
 9298SOL     OW28706   1.018   4.999   3.140  0.3140 -0.2670  0.6261
 9298SOL    HW128707   1.062   4.971   3.060 -0.3310  1.7374 -0.4708
 9298SOL    HW228708   1.071   5.072   3.173 -0.5262  0.2264  0.9150
 9299SOL     OW28709   2.692   0.288   5.273 -0.0136 -0.2233 -0.1492
 9299SOL    HW128710   2.767   0.232   5.251 -0.0000 -0.5278  0.6868
 9299SOL    HW228711   2.681   0.278   5.367  0.8117  2.1867  0.2361
 9300SOL     OW28712   7.646   7.860   4.679 -0.2374  0.4630  0.3183
 9300SOL    HW128713   7.571   7.884   4.733 -0.2265 -0.2633  0.6541
 9300SOL    HW228714   7.690   7.944   4.661 -0.9775  0.8590  0.3306
 9301SOL     OW28715   7.313   1.346   5.214  0.1315 -0.8402 -0.8162
 9301SOL    HW128716   7.284   1.399   5.289  0.4405  1.1123 -2.0488
 9301SOL    HW228717   7.323   1.258   5.250  2.5296  0.4991  2.0166
 9302SOL     OW28718   5.445   4.041   7.441 -0.4374 -0.1330 -0.2714
 9302SOL    HW128719   5.533   4.014   7.413 -0.2359  0.9703 -0.6971
 9302SOL    HW228720   5.392   4.036   7.362 -0.5073  0.2846 -0.2495
 9303SOL     OW28721   2.946   3.078   1.067  0.2616 -0.0348  0.3978
 9303SOL    HW128722   2.986   2.998   1.101  1.9889  0.2230 -0.9871
 9303SOL    HW228723   2.912   3.053   0.981  0.8076  0.7023 -0.0395
 9304SOL     OW28724   6.050   0.692   1.190  0.2579  0.4283 -0.1113
 9304SOL    HW128725   5.975   0.663   1.242  1.0241  0.2086  0.8910
 9304SOL    HW228726   6.109   0.734   1.253  2.0010 -1.3632 -0.4912
 9305SOL     OW28727   2.089   3.134   1.239 -0.1509 -0.2253  0.2431
 9305SOL    HW128728   2.085   3.098   1.151  2.1349 -0.6257  0.2782
 9305SOL    HW228729   2.081   3.229   1.226  0.0622 -0.2885 -0.3632
 9306SOL     OW28730   6.693   6.510   1.320 -0.3535  0.2676 -0.3130
 9306SOL    HW128731   6.745   6.431   1.338  0.3492  0.9124  0.5558
 9306SOL    HW228732   6.606   6.478   1.298  0.0516 -0.7730 -0.3986
 9307SOL     OW28733   5.904   4.371   3.162  0.1944 -0.0257 -0.0444
 9307SOL    HW128734   5.815   4.405   3.171  0.4838  0.4857  0.9860
 9307SOL    HW228735   5.893   4.277   3.155 -0.3512 -0.1055  1.6178
 9308SOL     OW28736   7.882   7.091   3.832  0.5225 -0.4144 -0.1767
 9308SOL    HW128737   7.825   7.118   3.904  1.0618 -0.5148  0.2889
 9308SOL    HW228738   7.954   7.154   3.834  0.2683 -0.0895 -0.9701
 9309SOL     OW28739   5.576   0.225   1.303  0.4438 -0.3191  0.1347
 9309SOL    HW128740   5.537   0.274   1.230  0.9279  0.1182  0.1623
 9309SOL    HW228741   5.541   0.267   1.381  2.4825  1.3691  0.1859
 9310SOL     OW28742   4.045   6.810   2.992 -0.1095 -0.0852 -0.7278
 9310SOL    HW128743   4.103   6.763   2.932 -0.7503 -1.4640 -0.2778
 9310SOL    HW228744   3.961   6.815   2.945  0.4437  2.2100 -1.5227
 9311SOL     OW28745   2.219   4.550   5.704 -0.2234 -0.5055  0.2633
 9311SOL    HW128746   2.212   4.641   5.674  1.7363 -0.0236  1.1896
 9311SOL    HW228747   2.142   4.539   5.761 -0.3930  0.6314  0.2808
 9312SOL     OW28748   4.703   7.763   5.139  0.4887  0.0024  0.0623
 9312SOL    HW128749   4.641   7.826   5.175  1.0357  1.0029 -0.7113
 9312SOL    HW228750   4.789   7.801   5.158  0.8483 -0.8989  0.2791
 9313SOL     OW28751   4.829   5.540   7.409  0.6842  0.3481  0.1057
 9313SOL    HW128752   4.901   5.485   7.441  1.3221  0.3399 -1.3087
 9313SOL    HW228753   4.750   5.489   7.428  1.1381 -0.1894  0.5686
 9314SOL     OW28754   5.544   1.567   6.938 -0.5153 -0.1311 -0.4259
 9314SOL    HW128755   5.603   1.503   6.979 -0.6184 -0.5365 -0.9099
 9314SOL    HW228756   5.602   1.635   6.904 -0.4807  0.6664  1.1709
 9315SOL     OW28757   7.828   2.504   6.666  0.5236  0.3683  1.0219
 9315SOL    HW128758   7.765   2.565   6.704 -0.7950 -0.6633  0.5320
 9315SOL    HW228759   7.864   2.457   6.741 -0.7881 -0.4427  1.1660
 9316SOL     OW28760   2.082   7.222   7.864  0.1267  0.8828 -0.2741
 9316SOL    HW128761   2.059   7.238   7.956 -0.6927  0.2277 -0.3631
 9316SOL    HW228762   2.170   7.258   7.855 -0.2686  2.0577  0.4559
 9317SOL     OW28763   0.920   6.141   1.493  0.1656 -0.7161 -0.1536
 9317SOL    HW128764   0.968   6.208   1.542  1.4666 -0.5193 -1.6553
 9317SOL    HW228765   0.833   6.178   1.480  0.8718  0.7046 -0.9484
 9318SOL     OW28766   0.669   0.982   0.199  0.0517  0.1848  0.4139
 9318SOL    HW128767   0.759   0.989   0.233 -0.9751  1.3836  3.0042
 9318SOL    HW228768   0.646   0.890   0.210  0.7031  0.0230  0.4311
 9319SOL     OW28769   2.710   6.797   1.523  0.0554 -0.1247 -0.3927
 9319SOL    HW128770   2.782   6.857   1.538  0.6074 -0.1738 -2.6621
 9319SOL    HW228771   2.637   6.852   1.495  0.7051 -0.5154 -2.9544
 9320SOL     OW28772   3.740   5.693   7.038  0.2488  0.1307  0.1448
 9320SOL    HW128773   3.668   5.685   6.976  0.3881  0.7261 -0.0932
 9320SOL    HW228774   3.758   5.603   7.065 -0.7988  0.0003  0.4530
 9321SOL     OW28775   7.365   7.908   2.180 -0.5212 -0.2523  0.1744
 9321SOL    HW128776   7.350   7.942   2.092 -0.9228 -1.0381 -0.0727
 9321SOL    HW228777   7.402   7.821   2.165  0.1654 -0.0658  0.7879
 9322SOL     OW28778   6.331   2.815   3.585  0.1842  0.9724 -0.1241
 9322SOL    HW128779   6.388   2.822   3.509 -1.1417  0.9426 -1.1309
 9322SOL    HW228780   6.351   2.729   3.622 -0.0903  0.4341 -1.2059
 9323SOL     OW28781   2.140   7.689   4.458 -0.5974  0.5238  0.1550
 9323SOL    HW128782   2.062   7.676   4.512  0.4257 -1.0243  1.2910
 9323SOL    HW228783   2.167   7.780   4.475 -0.6364  0.2327  1.7831
 9324SOL     OW28784   3.644   2.077   2.415 -0.1499  0.0093  0.0993
 9324SOL    HW128785   3.656   2.149   2.477 -1.1159 -0.7486  1.1796
 9324SOL    HW228786   3.570   2.105   2.360  2.0575  1.6518 -2.1760
 9325SOL     OW28787   7.861   2.522   1.053 -0.3076 -0.0446 -1.1165
 9325SOL    HW128788   7.931   2.460   1.072 -0.4176  0.1541 -0.0543
 9325SOL    HW228789   7.881   2.599   1.106 -1.1403  0.1377 -1.0503
 9326SOL     OW28790   1.016   7.799   1.863 -0.0860  0.0210  0.0758
 9326SOL    HW128791   0.949   7.778   1.929 -1.6146 -0.8164 -1.6999
 9326SOL    HW228792   1.009   7.728   1.799 -0.3522  2.1368 -2.3043
 9327SOL     OW28793   0.290   1.330   6.960 -0.2377 -0.7922  0.4613
 9327SOL    HW128794   0.375   1.302   6.926 -0.1095  0.4820 -0.3113
 9327SOL    HW228795   0.252   1.383   6.890 -0.8498  0.1993  1.5139
 9328SOL     OW28796   5.779   2.096   6.553 -0.0769 -0.2815  0.2406
 9328SOL    HW128797   5.708   2.048   6.594  0.2608  0.9521  2.3342
 9328SOL    HW228798   5.828   2.030   6.503 -0.3412 -1.8695  2.0499
 9329SOL     OW28799   3.564   1.753   1.848  0.0017  0.5789 -0.0915
 9329SOL    HW128800   3.505   1.714   1.913  1.6102 -1.6474  0.0532
 9329SOL    HW228801   3.576   1.685   1.782  0.4704  1.9036 -1.4008
 9330SOL     OW28802   3.373   3.432   5.367  0.4208  0.3706  0.2702
 9330SOL    HW128803   3.330   3.503   5.321 -0.3056  0.6617  1.3642
 9330SOL    HW228804   3.388   3.365   5.300  0.0720  1.0804 -0.5254
 9331SOL     OW28805   3.966   3.683   0.194 -0.3406  0.0511  0.0106
 9331SOL    HW128806   3.888   3.628   0.183 -1.8287  1.8653  1.1776
 9331SOL    HW228807   3.991   3.670   0.286 -0.0740  0.5240  0.0043
 9332SOL     OW28808   6.498   2.993   0.323 -0.1712  0.1740  0.5164
 9332SOL    HW128809   6.486   2.997   0.228  0.7039 -1.5825  0.3130
 9332SOL    HW228810   6.460   3.075   0.355 -0.3182  0.8763 -1.3576
 9333SOL     OW28811   3.789   5.875   5.525 -0.1957 -0.4019 -0.0117
 9333SOL    HW128812   3.786   5.879   5.430  0.2336 -0.1523 -0.0166
 9333SOL    HW228813   3.780   5.967   5.553  2.1984 -0.1820  0.1074
 9334SOL     OW28814   6.969   3.389   4.113 -0.5036  0.3845 -0.5062
 9334SOL    HW128815   6.929   3.303   4.097  1.0211 -0.6349  0.9893
 9334SOL    HW228816   6.919   3.426   4.185 -2.4446  1.6521 -2.4512
 9335SOL     OW28817   4.409   6.766   7.162  0.3472 -0.0218 -0.1194
 9335SOL    HW128818   4.387   6.857   7.183  1.9050  0.7955 -1.8229
 9335SOL    HW228819   4.384   6.757   7.070  1.0108 -1.0440 -0.2077
 9336SOL     OW28820   2.055   5.325   7.536  0.0824  0.3135 -0.2158
 9336SOL    HW128821   1.999   5.387   7.491 -1.1049  0.6303  1.6401
 9336SOL    HW228822   2.143   5.362   7.530 -0.2368  0.9198 -1.2348
 9337SOL     OW28823   1.778   3.623   4.772 -0.4659  0.1459 -0.4252
 9337SOL    HW128824   1.689   3.588   4.780  0.4542 -2.2386 -0.2697
 9337SOL    HW228825   1.835   3.550   4.796  1.5882  1.2043 -1.9066
 9338SOL     OW28826   5.100   5.132   4.174 -0.0260 -0.2712  0.0967
 9338SOL    HW128827   5.053   5.062   4.129 -2.2445  0.6618  0.8984
 9338SOL    HW228828   5.183   5.139   4.128 -1.7239 -0.1636 -3.0664
 9339SOL     OW28829   4.192   0.384   3.129 -0.1756  0.7324  0.3403
 9339SOL    HW128830   4.174   0.477   3.140  0.4850  0.7341  1.5669
 9339SOL    HW228831   4.220   0.375   3.038 -0.5479  1.6801  0.1291
 9340SOL     OW28832   6.967   4.538   2.764 -0.1989  0.0568  0.0443
 9340SOL    HW128833   7.049   4.492   2.783  0.2949  1.7070  2.0716
 9340SOL    HW228834   6.901   4.489   2.814 -0.0747  0.0777  0.2302
 9341SOL     OW28835   1.672   6.966   5.312 -0.0759  0.9150 -0.1636
 9341SOL    HW128836   1.642   7.033   5.374 -2.6515  0.0969 -0.4815
 9341SOL    HW228837   1.628   6.886   5.340  0.9627 -0.1021 -1.3646
 9342SOL     OW28838   7.009   1.698   0.783  0.1459  0.0226 -0.4211
 9342SOL    HW128839   6.920   1.733   0.788  1.1931  2.7773 -0.3809
 9342SOL    HW228840   7.018   1.644   0.862 -0.9149  1.1633  0.4978
 9343SOL     OW28841   1.255   5.949   7.211  0.0681 -0.0010 -0.1664
 9343SOL    HW128842   1.271   6.042   7.223  1.3503  0.1089 -2.4828
 9343SOL    HW228843   1.160   5.940   7.217 -0.1236  1.5626 -0.6970
 9344SOL     OW28844   3.730   6.374   4.186 -0.1213  0.4399  0.3609
 9344SOL    HW128845   3.783   6.387   4.265  0.8685  2.2256 -0.5574
 9344SOL    HW228846   3.789   6.330   4.124  0.0771  1.7510 -0.4016
 9345SOL     OW28847   1.992   3.309   2.032 -0.4554 -0.2394  0.3084
 9345SOL    HW128848   2.049   3.356   1.971 -0.3480  1.7387  1.9035
 9345SOL    HW228849   2.050   3.277   2.101 -1.0036  0.2377  1.0020
 9346SOL     OW28850   6.722   1.329   2.098  0.2861  0.1389 -0.1947
 9346SOL    HW128851   6.656   1.285   2.044 -2.3810  0.2002  2.8637
 9346SOL    HW228852   6.689   1.419   2.107  1.2435  0.4164  0.6293
 9347SOL     OW28853   6.930   6.670   4.126 -0.4403 -0.0909  0.1249
 9347SOL    HW128854   7.020   6.673   4.095  0.5875 -0.5261  2.8601
 9347SOL    HW228855   6.886   6.610   4.066  0.7977  0.9645 -1.8860
 9348SOL     OW28856   2.885   6.129   5.251 -0.4387  0.8979 -0.0076
 9348SOL    HW128857   2.923   6.047   5.218 -1.2559  1.2691 -1.9805
 9348SOL    HW228858   2.960   6.188   5.261 -0.2529  1.1106 -2.3149
 9349SOL     OW28859   7.902   1.667   5.981  0.4658 -0.0772  0.5605
 9349SOL    HW128860   7.936   1.753   5.957 -0.5529  1.0359  2.8852
 9349SOL    HW228861   7.815   1.684   6.018 -0.8050 -2.3905 -1.2189
 9350SOL     OW28862   6.540   4.510   4.836  0.5148 -0.3834 -0.1812
 9350SOL    HW128863   6.610   4.505   4.901  1.3868  0.8529 -1.0185
 9350SOL    HW228864   6.521   4.418   4.814  1.7787 -0.7266  0.1518
 9351SOL     OW28865   7.346   7.678   6.478  0.4965  0.0478 -0.1113
 9351SOL    HW128866   7.313   7.759   6.438  0.0458 -0.7601 -1.4101
 9351SOL    HW228867   7.320   7.609   6.417 -0.4610 -1.2610  1.7294
 9352SOL     OW28868   7.675   7.939   5.781  0.5211  0.2092  0.3955
 9352SOL    HW128869   7.593   7.942   5.831  0.2048 -0.1656 -0.0944
 9352SOL    HW228870   7.693   7.846   5.771  0.0246  0.2675 -1.0832
 9353SOL     OW28871   5.991   1.242   0.927  0.9019 -0.1277 -0.3467
 9353SOL    HW128872   6.039   1.303   0.981  0.6409  0.2777 -0.5676
 9353SOL    HW228873   6.005   1.273   0.837 -0.5439  0.5592 -0.3450
 9354SOL     OW28874   3.373   5.874   7.367  0.1299  0.3018 -0.4314
 9354SOL    HW128875   3.461   5.847   7.342 -0.0592  0.5077 -1.3340
 9354SOL    HW228876   3.340   5.802   7.422  0.3542 -0.3831 -1.1941
 9355SOL     OW28877   0.366   4.063   1.802 -0.2291  0.4076  0.7306
 9355SOL    HW128878   0.408   4.012   1.733 -0.6746  0.3170  0.5251
 9355SOL    HW228879   0.436   4.118   1.838 -0.0128  0.4908  0.1776
 9356SOL     OW28880   4.527   5.272   7.298  0.2557 -0.5541 -0.3368
 9356SOL    HW128881   4.605   5.295   7.348 -0.6071  0.6409  0.4848
 9356SOL    HW228882   4.506   5.351   7.249 -1.5536 -0.2259  0.9339
 9357SOL     OW28883   0.070   0.332   5.609  0.0361 -0.2431 -0.3251
 9357SOL    HW128884   0.134   0.400   5.588 -0.4872  0.3063 -0.1726
 9357SOL    HW228885   0.045   0.296   5.524  0.3676 -0.2919 -0.4028
 9358SOL     OW28886   0.520   2.646   3.287 -0.3183  0.2367 -0.2481
 9358SOL    HW128887   0.439   2.694   3.268  0.1786  0.8475 -0.8384
 9358SOL    HW228888   0.589   2.699   3.248  0.5283  0.5326  1.5998
 9359SOL     OW28889   5.755   3.638   6.664  0.0881  1.5375  0.5253
 9359SOL    HW128890   5.843   3.636   6.627 -0.6389 -0.6991 -1.1977
 9359SOL    HW228891   5.765   3.685   6.747  3.0949  0.2743  0.9450
 9360SOL     OW28892   2.538   6.457   7.493  0.7568  0.1611  0.4503
 9360SOL    HW128893   2.443   6.468   7.490  0.9154  1.3236 -1.3031
 9360SOL    HW228894   2.570   6.508   7.418  2.8309  0.5560  1.5621
 9361SOL     OW28895   4.391   3.154   6.981  0.4136  0.0759 -0.0696
 9361SOL    HW128896   4.385   3.229   6.922  0.4377 -0.7511 -1.1248
 9361SOL    HW228897   4.372   3.078   6.926 -0.3893 -0.6324  1.1598
 9362SOL     OW28898   7.710   4.782   7.962 -0.7949  0.5244  0.1277
 9362SOL    HW128899   7.797   4.771   7.924 -2.5122 -0.3910 -3.7108
 9362SOL    HW228900   7.702   4.876   7.978  0.2117  0.8360 -1.1692
 9363SOL     OW28901   6.477   5.460   0.687 -0.0812  0.4886 -0.1486
 9363SOL    HW128902   6.426   5.528   0.732 -0.1780  0.1451  0.2652
 9363SOL    HW228903   6.442   5.459   0.598  0.6181  1.6875 -0.4444
 9364SOL     OW28904   4.865   4.922   7.900  0.2990 -0.3811  0.0378
 9364SOL    HW128905   4.889   4.863   7.972 -2.5266 -1.2494  0.3165
 9364SOL    HW228906   4.789   4.881   7.859 -0.2167  1.8265 -1.3163
 9365SOL     OW28907   0.676   1.541   7.722 -0.0024  0.0489 -0.1762
 9365SOL    HW128908   0.742   1.574   7.661  1.2816 -0.9853  0.6450
 9365SOL    HW228909   0.651   1.618   7.774  1.1521  0.2719  0.0547
 9366SOL     OW28910   7.749   0.778   5.981  0.9092 -0.2501  0.5608
 9366SOL    HW128911   7.745   0.715   6.053  1.4658  0.0018  0.8142
 9366SOL    HW228912   7.759   0.863   6.024  0.9257 -0.0652  0.1970
 9367SOL     OW28913   6.007   0.909   0.425  0.1236  0.3577  0.0266
 9367SOL    HW128914   5.957   0.989   0.438  0.1443  0.4056 -0.1820
 9367SOL    HW228915   6.002   0.863   0.509  0.0265  0.5284  0.1141
 9368SOL     OW28916   1.749   0.053   5.185  0.5633 -0.4293 -0.0900
 9368SOL    HW128917   1.747   0.147   5.172  1.1498 -0.4288 -0.1817
 9368SOL    HW228918   1.712   0.016   5.105  0.2775 -0.2787 -0.0276
 9369SOL     OW28919   3.746   3.322   2.898  0.0131  0.5082  0.1847
 9369SOL    HW128920   3.793   3.241   2.915 -0.9086 -0.2397 -0.7665
 9369SOL    HW228921   3.698   3.305   2.817  1.0292  2.5162 -0.8821
 9370SOL     OW28922   0.147   5.067   1.089  0.8360 -0.0074  0.2552
 9370SOL    HW128923   0.107   5.059   1.002  0.4824 -0.8590  0.4895
 9370SOL    HW228924   0.078   5.041   1.150  1.0527  0.6881  0.7992
 9371SOL     OW28925   2.366   2.210   1.672 -0.7270  0.1050 -0.3654
 9371SOL    HW128926   2.356   2.302   1.648  0.5487  0.0561 -1.1473
 9371SOL    HW228927   2.320   2.202   1.756 -2.1266  1.1024 -1.0177
 9372SOL     OW28928   1.159   2.096   2.995 -0.4399 -0.1948 -0.3962
 9372SOL    HW128929   1.235   2.154   2.984 -0.5072  0.0175  0.2288
 9372SOL    HW228930   1.105   2.140   3.060 -1.6638  0.2189 -1.6766
 9373SOL     OW28931   1.221   4.463   2.592 -0.2098  0.0251 -0.0654
 9373SOL    HW128932   1.172   4.388   2.626 -0.2353  1.2011  2.6085
 9373SOL    HW228933   1.180   4.539   2.634  2.3657  1.2116  0.3947
 9374SOL     OW28934   3.314   2.019   0.184 -0.1208  0.1779  0.3286
 9374SOL    HW128935   3.232   2.036   0.139 -0.4006  1.1842  1.1980
 9374SOL    HW228936   3.324   2.092   0.246  1.9902  0.6905 -0.5585
 9375SOL     OW28937   5.049   2.973   1.050 -0.3871  0.3314 -0.1736
 9375SOL    HW128938   5.108   3.019   0.991 -0.6698  1.1884  0.2022
 9375SOL    HW228939   4.969   3.025   1.049  0.1895  1.3375  2.2770
 9376SOL     OW28940   4.802   0.437   0.748  0.2976  0.1988  0.1940
 9376SOL    HW128941   4.849   0.512   0.712 -0.9063  0.5465 -0.6794
 9376SOL    HW228942   4.741   0.474   0.812  0.7843 -0.1920  0.8926
 9377SOL     OW28943   1.078   7.787   6.767  0.3981 -0.1405 -0.2219
 9377SOL    HW128944   0.995   7.740   6.757 -0.2415  0.9538 -0.1107
 9377SOL    HW228945   1.063   7.848   6.839  0.3841  1.9954 -1.9513
 9378SOL     OW28946   6.656   3.393   5.153  0.5133  0.5511 -0.0143
 9378SOL    HW128947   6.722   3.351   5.097 -0.0148  0.1380 -0.3280
 9378SOL    HW228948   6.700   3.403   5.237  0.3051 -1.6046  0.3858
 9379SOL     OW28949   4.204   7.389   1.269 -0.7562  0.4057  0.1085
 9379SOL    HW128950   4.137   7.440   1.222 -1.1175 -0.4849 -0.3499
 9379SOL    HW228951   4.159   7.358   1.348 -0.6356  0.5070  0.2169
 9380SOL     OW28952   7.205   0.929   6.533  0.4284  0.2001 -0.4282
 9380SOL    HW128953   7.225   0.980   6.612  3.1393 -1.6569  0.1826
 9380SOL    HW228954   7.289   0.925   6.486 -0.2428 -1.8784 -1.5035
 9381SOL     OW28955   7.166   7.391   2.784 -0.1146  0.5104  0.3200
 9381SOL    HW128956   7.116   7.321   2.743 -0.0049  0.5269  0.1603
 9381SOL    HW228957   7.134   7.471   2.742 -1.3081  0.6974  1.5507
 9382SOL     OW28958   5.018   5.439   5.544  0.2914  0.0437  0.0622
 9382SOL    HW128959   4.952   5.386   5.588  0.7065 -0.5993 -0.0766
 9382SOL    HW228960   5.081   5.461   5.613 -0.1968  0.8730  0.2507
 9383SOL     OW28961   0.509   5.646   2.092  0.3769  0.1780  0.5415
 9383SOL    HW128962   0.538   5.720   2.039 -1.4102  0.3088 -0.3118
 9383SOL    HW228963   0.508   5.679   2.182 -2.2436  1.8271 -0.0352
 9384SOL     OW28964   2.540   0.660   3.227  0.2092  0.1576 -0.2354
 9384SOL    HW128965   2.621   0.697   3.263 -0.4846  0.1770  1.3365
 9384SOL    HW228966   2.493   0.627   3.303 -2.0096  1.5851 -0.9609
 9385SOL     OW28967   5.091   4.344   5.144  0.0236  0.0626 -0.1085
 9385SOL    HW128968   5.124   4.415   5.089 -0.0119 -0.0869 -0.3269
 9385SOL    HW228969   5.056   4.387   5.222  0.1052  0.2748 -0.1909
 9386SOL     OW28970   6.621   5.383   7.173  0.8385 -0.9344 -0.1403
 9386SOL    HW128971   6.692   5.442   7.196  0.3526 -0.4185  0.0512
 9386SOL    HW228972   6.543   5.438   7.174  0.1301 -1.9486  1.7049
 9387SOL     OW28973   7.254   7.617   5.514 -0.1074 -0.4401 -0.3439
 9387SOL    HW128974   7.338   7.588   5.548 -0.1968  0.1039  0.3451
 9387SOL    HW228975   7.262   7.712   5.505 -1.5623 -0.0102  2.3764
 9388SOL     OW28976   7.194   1.572   0.582  0.3838 -0.4248 -0.3308
 9388SOL    HW128977   7.240   1.511   0.639 -0.3199 -0.5180  0.1431
 9388SOL    HW228978   7.151   1.516   0.517  1.6562 -0.2884 -1.3222
 9389SOL     OW28979   1.256   1.232   2.773  0.2151  0.4001  0.1265
 9389SOL    HW128980   1.332   1.277   2.809  0.6190 -0.9816  1.0382
 9389SOL    HW228981   1.188   1.244   2.840  0.1355  0.1760  0.0856
 9390SOL     OW28982   1.161   7.155   2.125 -0.6211 -0.1228 -0.2949
 9390SOL    HW128983   1.161   7.111   2.210 -1.5544 -0.6537 -0.5560
 9390SOL    HW228984   1.166   7.084   2.061  3.0147  0.4046 -0.6664
 9391SOL     OW28985   6.306   5.098   6.526 -0.1246 -0.2872 -0.4450
 9391SOL    HW128986   6.302   5.032   6.596  1.0463 -0.4819 -0.5491
 9391SOL    HW228987   6.217   5.133   6.521 -0.2535 -0.3786  1.0433
 9392SOL     OW28988   1.821   4.270   3.157 -0.5039  0.2479 -0.1315
 9392SOL    HW128989   1.892   4.332   3.140  0.3067 -0.6652 -0.1312
 9392SOL    HW228990   1.788   4.247   3.070  1.4622 -1.9051 -0.3620
 9393SOL     OW28991   3.982   1.976   0.949 -0.1090 -0.2031 -0.0034
 9393SOL    HW128992   3.942   2.015   1.027 -0.2510 -2.1209  0.9136
 9393SOL    HW228993   3.914   1.979   0.882 -0.5403 -0.0394  0.4425
 9394SOL     OW28994   5.661   4.689   5.025  0.4172 -0.4939 -0.1024
 9394SOL    HW128995   5.656   4.738   5.107  0.6737 -0.9650  0.1986
 9394SOL    HW228996   5.649   4.597   5.052  2.2421 -0.8256 -0.3695
 9395SOL     OW28997   0.476   4.956   6.096  0.1306 -0.2244 -0.3143
 9395SOL    HW128998   0.522   5.034   6.128  1.4826 -1.3754  0.6660
 9395SOL    HW228999   0.384   4.975   6.110  0.5375  0.4914  1.6451
 9396SOL     OW29000   4.329   6.835   6.196  0.3923 -0.3439  0.2110
 9396SOL    HW129001   4.392   6.794   6.136  0.3071 -1.4191  0.8452
 9396SOL    HW229002   4.360   6.924   6.206  0.9128 -0.4116 -0.7418
 9397SOL     OW29003   5.981   6.651   0.348 -0.2396  0.6154  0.0903
 9397SOL    HW129004   5.928   6.571   0.347 -0.4182  0.7436 -0.4996
 9397SOL    HW229005   5.928   6.716   0.303 -0.0130  1.0231  0.4068
 9398SOL     OW29006   0.799   6.204   2.975 -0.7297 -0.9322 -0.0218
 9398SOL    HW129007   0.707   6.201   3.001 -0.8816 -0.3508 -0.4695
 9398SOL    HW229008   0.844   6.244   3.049 -0.9819 -0.3598 -0.1731
 9399SOL     OW29009   6.348   1.620   4.525 -0.2132  0.0308 -0.0420
 9399SOL    HW129010   6.372   1.528   4.510 -2.4213 -0.7756  1.1647
 9399SOL    HW229011   6.261   1.629   4.486 -1.8415  0.4566  3.4455
 9400SOL     OW29012   1.309   2.968   5.431  0.2862 -0.0965  0.5332
 9400SOL    HW129013   1.271   2.891   5.387 -0.9055 -0.5718  2.3743
 9400SOL    HW229014   1.240   3.033   5.430  1.1244  0.8059 -0.5470
 9401SOL     OW29015   4.133   5.435   7.071 -0.3163  0.6403  0.1216
 9401SOL    HW129016   4.143   5.527   7.097 -0.9515  1.0789 -1.1593
 9401SOL    HW229017   4.130   5.437   6.975  0.2161 -0.7798  0.0556
 9402SOL     OW29018   2.427   1.561   7.570 -0.1501 -0.4581  0.4759
 9402SOL    HW129019   2.487   1.540   7.499 -0.1211 -1.9984  0.9265
 9402SOL    HW229020   2.463   1.640   7.609 -0.3907  0.6234 -1.4548
 9403SOL     OW29021   4.705   5.238   0.117 -0.3359 -0.2625 -0.3141
 9403SOL    HW129022   4.790   5.208   0.084 -0.3488 -0.1138 -0.4848
 9403SOL    HW229023   4.658   5.266   0.038 -1.0986 -1.7141 -0.3849
 9404SOL     OW29024   7.060   7.391   5.059  0.2730 -0.6626 -0.0488
 9404SOL    HW129025   7.065   7.336   5.137  0.8812 -0.1011  0.3205
 9404SOL    HW229026   6.996   7.459   5.081  2.4291  1.0927  1.0134
 9405SOL     OW29027   0.514   0.556   7.250 -0.3687  0.1077  0.6506
 9405SOL    HW129028   0.513   0.580   7.342  0.6364  1.2018  0.3934
 9405SOL    HW229029   0.554   0.632   7.206  1.1380 -1.2792 -0.4129
 9406SOL     OW29030   7.662   5.964   5.339 -0.3397  0.6554 -0.2275
 9406SOL    HW129031   7.652   5.873   5.313  0.7796  0.0567  1.3656
 9406SOL    HW229032   7.750   5.988   5.310 -0.1845  0.8695  0.4141
 9407SOL     OW29033   3.320   3.219   6.219 -0.0088  0.0479 -0.3361
 9407SOL    HW129034   3.393   3.197   6.162  0.0020 -0.4074 -0.1550
 9407SOL    HW229035   3.317   3.147   6.283  0.4039  0.8880  0.6506
 9408SOL     OW29036   6.688   5.289   2.479  0.2247  0.3135  0.3935
 9408SOL    HW129037   6.753   5.355   2.503  0.6967  0.8852 -2.2447
 9408SOL    HW229038   6.725   5.248   2.400 -1.4042 -1.1266  0.3579
 9409SOL     OW29039   1.811   2.255   1.008 -0.9787  0.6098 -0.0259
 9409SOL    HW129040   1.765   2.337   0.992 -3.4643 -0.7992 -0.3804
 9409SOL    HW229041   1.751   2.205   1.064  1.3941 -0.1738  1.9240
 9410SOL     OW29042   3.376   4.071   0.263 -0.0865  0.2372  0.7161
 9410SOL    HW129043   3.451   4.119   0.298  1.0190 -0.8148 -0.2010
 9410SOL    HW229044   3.381   3.985   0.304 -0.4555 -0.0317  0.1973
 9411SOL     OW29045   1.773   0.985   3.488 -0.1328 -0.8825  0.0831
 9411SOL    HW129046   1.789   1.017   3.399  1.9877  1.3633  1.2346
 9411SOL    HW229047   1.759   0.890   3.477  0.0436 -0.6311 -2.6268
 9412SOL     OW29048   2.848   1.423   4.508  0.4020 -0.0636  0.2188
 9412SOL    HW129049   2.914   1.415   4.576  0.2893 -1.8079  0.1593
 9412SOL    HW229050   2.791   1.494   4.537 -1.1542 -2.4202  3.2490
 9413SOL     OW29051   4.495   5.143   4.167  0.5032  0.3255  0.5457
 9413SOL    HW129052   4.464   5.211   4.107  1.1858 -0.2727 -0.5029
 9413SOL    HW229053   4.423   5.079   4.170  1.0432 -0.3398 -0.7367
 9414SOL     OW29054   3.258   1.114   6.473 -0.0899  0.6533  0.5864
 9414SOL    HW129055   3.224   1.088   6.558  0.1837  1.0971  0.8277
 9414SOL    HW229056   3.320   1.045   6.450 -0.4389  0.3386  0.5719
 9415SOL     OW29057   2.185   7.794   0.390 -0.4124 -0.0060  0.2971
 9415SOL    HW129058   2.217   7.710   0.422  1.5790 -0.2099 -2.1054
 9415SOL    HW229059   2.231   7.859   0.442 -0.5566 -0.3714  0.8833
 9416SOL     OW29060   1.465   1.879   2.642  0.2188 -0.1951 -0.2183
 9416SOL    HW129061   1.421   1.835   2.715  0.2184  0.8546  0.4313
 9416SOL    HW229062   1.529   1.936   2.685 -0.7379  1.4715 -0.9889
 9417SOL     OW29063   2.318   4.034   6.707  0.5184  0.1007 -0.3396
 9417SOL    HW129064   2.271   3.952   6.691  0.7146  0.0127 -0.4644
 9417SOL    HW229065   2.343   4.029   6.799 -0.2752  0.4333 -0.1019
 9418SOL     OW29066   2.407   7.336   6.785 -0.0261 -0.1685 -0.0236
 9418SOL    HW129067   2.343   7.374   6.725  0.6655 -0.7695 -1.1531
 9418SOL    HW229068   2.361   7.264   6.828  0.0744 -1.0462 -1.3431
 9419SOL     OW29069   1.215   0.490   2.979  0.2026 -0.1021  0.3956
 9419SOL    HW129070   1.193   0.568   2.929  0.1025 -0.6713 -0.4441
 9419SOL    HW229071   1.187   0.511   3.069 -2.1532 -0.1422 -0.2908
 9420SOL     OW29072   4.417   6.419   7.881  0.1922  0.2086 -0.5565
 9420SOL    HW129073   4.323   6.428   7.899  0.0092 -1.0333 -0.8902
 9420SOL    HW229074   4.425   6.340   7.829  1.3922  0.5302 -0.8891
 9421SOL     OW29075   5.207   5.041   0.301  0.7165 -0.7366 -0.0370
 9421SOL    HW129076   5.251   4.958   0.320 -0.8025 -1.8254 -1.1689
 9421SOL    HW229077   5.177   5.033   0.211  0.6531  1.1051 -0.1998
 9422SOL     OW29078   3.394   2.579   0.404 -0.8237 -0.6017 -0.0073
 9422SOL    HW129079   3.387   2.512   0.336  0.2384 -0.1708 -0.5583
 9422SOL    HW229080   3.319   2.636   0.390 -0.4452 -0.3379 -1.0359
 9423SOL     OW29081   1.718   1.939   6.365  0.0408 -0.6032  0.1544
 9423SOL    HW129082   1.667   1.894   6.298 -0.3705  0.0972 -0.0082
 9423SOL    HW229083   1.764   1.869   6.411 -0.1993 -1.1457 -0.4206
 9424SOL     OW29084   1.982   6.951   4.298  0.1014 -0.0743  0.5638
 9424SOL    HW129085   2.034   6.975   4.375  0.9092  1.0870 -0.3302
 9424SOL    HW229086   2.047   6.933   4.230 -0.6149 -0.8431  0.0697
 9425SOL     OW29087   2.533   7.055   6.328 -0.0716 -0.2879  0.1832
 9425SOL    HW129088   2.516   6.961   6.321  0.7305 -0.3635 -0.8752
 9425SOL    HW229089   2.587   7.075   6.252 -1.0484  1.2229 -0.1237
 9426SOL     OW29090   3.061   4.136   2.574  0.8528  0.4471 -0.4981
 9426SOL    HW129091   3.111   4.214   2.550  0.5241  0.6967 -0.3860
 9426SOL    HW229092   3.023   4.105   2.492  0.9752  0.4118 -0.5414
 9427SOL     OW29093   3.347   0.082   0.413 -0.0971 -0.5741 -0.9078
 9427SOL    HW129094   3.264   0.119   0.442 -0.5800 -0.5783 -2.2436
 9427SOL    HW229095   3.412   0.118   0.473 -0.8852  0.5260 -0.7066
 9428SOL     OW29096   4.049   1.877   7.030  0.3256  0.2450 -0.4140
 9428SOL    HW129097   3.956   1.902   7.023 -0.3137 -2.2153 -1.2257
 9428SOL    HW229098   4.082   1.930   7.103 -2.0245  0.2988  0.6801
 9429SOL     OW29099   3.645   6.465   7.435 -0.2309 -0.1530  0.2921
 9429SOL    HW129100   3.662   6.557   7.417 -0.4586 -0.2371 -0.3447
 9429SOL    HW229101   3.731   6.423   7.428 -0.3200 -0.1913 -0.6406
 9430SOL     OW29102   0.462   6.616   4.832  0.2537 -0.1770 -0.1553
 9430SOL    HW129103   0.490   6.659   4.913 -0.9462 -0.2115  0.2845
 9430SOL    HW229104   0.541   6.613   4.778  0.8735  0.5721  0.6947
 9431SOL     OW29105   4.630   5.167   2.025  0.1303 -0.0076 -0.1326
 9431SOL    HW129106   4.677   5.143   2.105  2.8169  2.0211 -1.0190
 9431SOL    HW229107   4.582   5.247   2.048 -1.7160 -1.2357  0.3430
 9432SOL     OW29108   7.523   5.766   6.615 -0.0133  0.2593 -0.0544
 9432SOL    HW129109   7.482   5.712   6.683 -1.2740  0.6413 -0.5011
 9432SOL    HW229110   7.459   5.768   6.544  1.2586 -0.0844 -1.2385
 9433SOL     OW29111   4.830   1.382   1.749 -0.4142  0.1314  0.0801
 9433SOL    HW129112   4.738   1.406   1.735 -0.6865 -0.2458  1.2145
 9433SOL    HW229113   4.835   1.290   1.723 -0.6051 -0.1665  1.1027
 9434SOL     OW29114   6.331   6.690   1.421  0.0859  0.0966  1.0167
 9434SOL    HW129115   6.241   6.709   1.450  0.2440  1.5822  0.5631
 9434SOL    HW229116   6.367   6.634   1.490 -0.5406  1.1080  2.1854
 9435SOL     OW29117   2.734   3.591   2.553  0.0972 -0.2220  0.2536
 9435SOL    HW129118   2.698   3.503   2.545  0.3407 -0.3002  0.0212
 9435SOL    HW229119   2.829   3.578   2.551  0.1295  0.0976 -0.2984
 9436SOL     OW29120   7.501   7.364   7.674 -0.2894 -0.5236 -0.2499
 9436SOL    HW129121   7.477   7.442   7.722 -0.8178  1.0030 -2.9158
 9436SOL    HW229122   7.487   7.386   7.582  1.2523 -3.1358 -1.1842
 9437SOL     OW29123   6.988   0.326   5.349 -0.3253 -0.2318 -0.1681
 9437SOL    HW129124   6.926   0.388   5.387 -0.1107  0.7712 -1.4044
 9437SOL    HW229125   6.984   0.344   5.255  1.4437 -0.5347 -0.3069
 9438SOL     OW29126   4.454   1.994   4.046  0.3986 -0.0032 -0.4080
 9438SOL    HW129127   4.423   1.989   3.955  1.0659 -2.9311 -0.5130
 9438SOL    HW229128   4.385   1.952   4.097  1.7982 -1.9261 -0.0469
 9439SOL     OW29129   7.905   1.918   2.625 -0.0878 -0.0425  0.4918
 9439SOL    HW129130   7.905   2.006   2.588 -3.4901 -0.3951 -0.5484
 9439SOL    HW229131   7.962   1.868   2.567 -0.5251  0.8050 -0.7042
 9440SOL     OW29132   6.147   3.946   0.408 -0.2768 -0.1449 -0.1688
 9440SOL    HW129133   6.178   3.857   0.390 -0.9152 -0.3601 -0.2246
 9440SOL    HW229134   6.103   3.973   0.328  0.6790  0.5618 -0.4661
 9441SOL     OW29135   6.785   1.515   4.026  0.1818  0.1084  0.5610
 9441SOL    HW129136   6.804   1.426   4.056 -1.4911 -0.1926  0.7669
 9441SOL    HW229137   6.833   1.571   4.086  2.0060 -0.6718 -0.1375
 9442SOL     OW29138   6.637   6.247   3.695  0.0290  0.3471 -0.2200
 9442SOL    HW129139   6.666   6.161   3.663 -0.4789  0.3598 -0.7323
 9442SOL    HW229140   6.660   6.248   3.787 -1.8688 -1.1903  0.3094
 9443SOL     OW29141   2.074   2.204   4.336 -0.4247 -0.1407 -0.2613
 9443SOL    HW129142   2.095   2.126   4.387 -0.2182 -0.6266 -1.0882
 9443SOL    HW229143   1.978   2.208   4.337 -0.4155  0.0458  0.4449
 9444SOL     OW29144   0.832   5.795   5.706 -0.0967  0.1114 -0.0353
 9444SOL    HW129145   0.888   5.760   5.775  1.2421  2.2783  0.0155
 9444SOL    HW229146   0.765   5.728   5.693  1.3469 -1.6230  1.3029
 9445SOL     OW29147   4.020   3.244   1.136 -0.1557 -0.0959 -0.4532
 9445SOL    HW129148   3.997   3.302   1.063 -0.0143  0.6194  0.0662
 9445SOL    HW229149   4.061   3.168   1.094  0.9553  0.8163 -1.0473
 9446SOL     OW29150   4.171   4.024   7.545 -0.0263 -0.2494  0.0097
 9446SOL    HW129151   4.098   3.971   7.513 -0.1561 -1.6016  2.4439
 9446SOL    HW229152   4.141   4.057   7.630  0.5682  2.7086 -0.8755
 9447SOL     OW29153   1.087   4.658   0.267  0.0099  0.0333 -0.1839
 9447SOL    HW129154   1.050   4.571   0.279  0.9084 -0.0671  2.1421
 9447SOL    HW229155   1.180   4.643   0.253  0.3894  0.6530  1.5065
 9448SOL     OW29156   1.977   6.449   2.021 -0.0733 -0.4650  0.0771
 9448SOL    HW129157   2.053   6.451   1.963  0.8978 -1.1215  1.3379
 9448SOL    HW229158   1.955   6.357   2.029  0.5111 -0.4715  1.6937
 9449SOL     OW29159   1.513   1.024   5.335  0.5290  0.0383  0.2139
 9449SOL    HW129160   1.589   1.049   5.388 -0.0249  1.3054  0.4189
 9449SOL    HW229161   1.453   0.983   5.397 -0.2261  1.7480  0.6202
 9450SOL     OW29162   5.777   1.239   7.513 -0.0776  0.2813 -0.6392
 9450SOL    HW129163   5.775   1.291   7.593 -0.3453 -1.8795  0.7915
 9450SOL    HW229164   5.720   1.287   7.452 -0.2004  1.7218  0.5897
 9451SOL     OW29165   2.118   5.389   0.041 -0.0888 -0.0929  0.2455
 9451SOL    HW129166   2.130   5.322   0.108 -1.1009  1.1492  1.7119
 9451SOL    HW229167   2.083   5.342  -0.034  1.0225 -1.5004  0.5925
 9452SOL     OW29168   2.689   6.024   1.283  0.1207 -0.1820 -0.3593
 9452SOL    HW129169   2.738   6.104   1.301 -0.2035 -0.2328  0.8399
 9452SOL    HW229170   2.601   6.055   1.260 -0.1295 -0.2010  0.5496
 9453SOL     OW29171   2.149   0.594   1.197 -0.5666  0.4062 -0.0351
 9453SOL    HW129172   2.234   0.620   1.160 -0.1604 -0.4396  0.2928
 9453SOL    HW229173   2.160   0.502   1.218 -1.2760  0.5279  0.8607
 9454SOL     OW29174   0.430   3.169   4.977 -0.3107  0.1188 -0.0121
 9454SOL    HW129175   0.520   3.149   4.950 -0.0831  0.2639  0.6212
 9454SOL    HW229176   0.377   3.152   4.899  0.3066  0.3428 -0.4881
 9455SOL     OW29177   1.926   0.769   2.657  0.6069  1.2038  0.0311
 9455SOL    HW129178   1.956   0.679   2.644 -1.4744  0.3060  1.1541
 9455SOL    HW229179   1.911   0.803   2.569 -0.5039 -0.2404 -0.3501
 9456SOL     OW29180   6.306   4.868   3.420  0.5425 -0.3221  0.1540
 9456SOL    HW129181   6.331   4.880   3.328 -0.0519  0.2721  0.0739
 9456SOL    HW229182   6.377   4.909   3.469  0.4918  0.0076 -0.0495
 9457SOL     OW29183   7.231   0.480   4.397 -0.0734 -0.3136  0.0848
 9457SOL    HW129184   7.308   0.490   4.452  0.3037  0.1895 -0.5320
 9457SOL    HW229185   7.227   0.387   4.377  1.4439 -0.0651 -1.4224
 9458SOL     OW29186   4.631   4.799   5.185 -0.6030  0.2786 -0.1146
 9458SOL    HW129187   4.639   4.881   5.135  1.7541  0.0737 -0.1224
 9458SOL    HW229188   4.697   4.742   5.147 -0.1438 -0.5791  1.9505
 9459SOL     OW29189   4.633   1.476   6.137 -0.3636  0.1150 -0.3930
 9459SOL    HW129190   4.553   1.490   6.188  0.5049  1.6819  0.5653
 9459SOL    HW229191   4.631   1.382   6.116 -1.5146 -0.2489  1.2168
 9460SOL     OW29192   7.906   7.571   4.199 -0.1403  0.2132  0.8057
 9460SOL    HW129193   7.831   7.618   4.237 -0.3514 -0.7740  1.6450
 9460SOL    HW229194   7.873   7.536   4.116  0.5683  3.0899 -0.7558
 9461SOL     OW29195   5.061   2.368   6.993  0.1560  0.4306  0.3697
 9461SOL    HW129196   5.148   2.332   6.977  1.3086  2.7432  1.2194
 9461SOL    HW229197   5.006   2.292   7.009  2.0379 -1.0615 -0.1298
 9462SOL     OW29198   1.946   5.769   1.679 -0.2265  0.4513  0.5027
 9462SOL    HW129199   1.933   5.688   1.629  0.8522  1.2613 -1.1354
 9462SOL    HW229200   1.894   5.834   1.632  0.0091  1.0174  1.0274
 9463SOL     OW29201   2.983   0.976   6.212  0.0795 -0.0469  0.1243
 9463SOL    HW129202   2.932   0.936   6.283  1.8141 -3.3378 -0.3920
 9463SOL    HW229203   3.072   0.945   6.227  0.8460  0.8953 -2.3469
 9464SOL     OW29204   2.302   7.127   7.455  0.1612 -0.3458  0.0368
 9464SOL    HW129205   2.231   7.074   7.491  0.0864 -0.7287 -0.6712
 9464SOL    HW229206   2.301   7.207   7.509 -0.9506 -0.2487 -0.1093
 9465SOL     OW29207   4.023   2.785   7.352 -0.0372 -0.1334 -0.2172
 9465SOL    HW129208   4.086   2.817   7.288  0.6735  1.8422  1.4064
 9465SOL    HW229209   3.940   2.826   7.328  0.2481  0.6766  0.1719
 9466SOL     OW29210   2.802   6.591   4.610 -0.0388 -0.1856 -0.0225
 9466SOL    HW129211   2.893   6.591   4.641 -0.5754  0.8331  1.6323
 9466SOL    HW229212   2.769   6.505   4.634  0.5094 -0.6006 -0.7246
 9467SOL     OW29213   6.345   2.758   2.072 -0.2029 -0.0558 -0.6703
 9467SOL    HW129214   6.297   2.675   2.070  0.6176 -0.5101 -2.6610
 9467SOL    HW229215   6.436   2.734   2.051  0.5670  1.0352  1.2129
 9468SOL     OW29216   7.368   4.469   6.218  0.1056 -0.1352  0.4019
 9468SOL    HW129217   7.443   4.457   6.160 -0.3837 -0.1753 -0.2441
 9468SOL    HW229218   7.327   4.551   6.188 -1.0663 -0.9826 -0.3740
 9469SOL     OW29219   4.040   7.912   1.886  0.4155  0.1362 -0.2016
 9469SOL    HW129220   4.125   7.927   1.844  0.7699  0.2277  0.5323
 9469SOL    HW229221   3.976   7.954   1.828  1.0108  1.2618 -0.0649
 9470SOL     OW29222   1.129   4.383   3.089 -0.0243  0.4183 -0.1632
 9470SOL    HW129223   1.037   4.371   3.069 -0.1841  0.3862  0.5607
 9470SOL    HW229224   1.134   4.372   3.184  0.8346 -0.2817 -0.2817
 9471SOL     OW29225   4.904   2.990   4.855  0.5192 -0.2880  0.3188
 9471SOL    HW129226   4.907   3.084   4.872  0.6562 -0.7309  2.9936
 9471SOL    HW229227   4.833   2.979   4.792  0.0837  1.5396  0.4672
 9472SOL     OW29228   1.537   6.070   1.883 -0.4079  0.0155  0.4628
 9472SOL    HW129229   1.592   6.148   1.874 -1.1402  0.5471  0.5986
 9472SOL    HW229230   1.593   6.007   1.929  0.7910 -0.1502 -1.1585
 9473SOL     OW29231   0.013   0.295   5.347 -0.0720  0.1396 -0.0538
 9473SOL    HW129232  -0.067   0.347   5.347 -0.0248  0.2467 -1.4955
 9473SOL    HW229233  -0.015   0.207   5.321  0.0924 -0.1450  0.7181
 9474SOL     OW29234   2.138   3.065   5.709  0.0376  0.5398  0.1087
 9474SOL    HW129235   2.094   3.139   5.666 -1.3239  0.0106  0.5569
 9474SOL    HW229236   2.071   3.027   5.765  0.4952 -1.4842 -0.6523
 9475SOL     OW29237   0.737   7.563   7.720 -0.1326 -0.5523  0.2325
 9475SOL    HW129238   0.785   7.530   7.644 -0.8474 -0.7720 -0.1282
 9475SOL    HW229239   0.765   7.654   7.728 -0.3655 -0.4046 -0.5499
 9476SOL     OW29240   4.362   7.359   6.959  0.4694 -0.1685 -0.2876
 9476SOL    HW129241   4.454   7.352   6.934 -0.0089 -1.1995 -1.8649
 9476SOL    HW229242   4.359   7.329   7.050  1.3802 -2.2663 -0.9209
 9477SOL     OW29243   0.074   0.433   6.279 -0.4970  0.5897 -0.0258
 9477SOL    HW129244   0.096   0.526   6.285  1.2506  0.2011  0.0689
 9477SOL    HW229245   0.118   0.403   6.198 -1.7568  0.0353 -0.5156
 9478SOL     OW29246   2.414   0.649   5.246  0.3234 -0.4479 -0.1002
 9478SOL    HW129247   2.427   0.718   5.180 -2.6796 -0.8208 -1.1585
 9478SOL    HW229248   2.501   0.633   5.281  1.3149  2.9172 -0.8203
 9479SOL     OW29249   5.348   3.474   5.037 -0.0907  0.4067 -0.0274
 9479SOL    HW129250   5.391   3.415   4.975  0.8577  0.5781  0.4559
 9479SOL    HW229251   5.420   3.510   5.089 -0.8016  0.9130  0.6089
 9480SOL     OW29252   5.876   3.505   5.515  0.2434 -0.0725  0.3225
 9480SOL    HW129253   5.930   3.582   5.537 -0.8389  0.7017  0.2977
 9480SOL    HW229254   5.793   3.542   5.487 -0.9342 -1.3083  2.0663
 9481SOL     OW29255   5.673   3.409   4.744  0.5839  0.5693  0.3900
 9481SOL    HW129256   5.681   3.467   4.820 -0.1110  0.3598  0.6226
 9481SOL    HW229257   5.614   3.340   4.773  1.3246 -0.1970  0.0744
 9482SOL     OW29258   3.458   4.394   5.564 -0.1028 -0.3221 -0.2277
 9482SOL    HW129259   3.526   4.448   5.605  1.0410 -0.8903 -1.3865
 9482SOL    HW229260   3.406   4.456   5.513 -0.2132  0.0355  0.3055
 9483SOL     OW29261   2.184   1.488   4.669  0.1624 -0.2478 -0.1329
 9483SOL    HW129262   2.211   1.493   4.761 -2.2621 -0.5420  0.6470
 9483SOL    HW229263   2.233   1.414   4.633  2.6182  1.0851  0.3597
 9484SOL     OW29264   1.449   4.312   3.394  0.2190 -0.1032  0.0555
 9484SOL    HW129265   1.359   4.346   3.399 -0.7389 -2.7634  1.7201
 9484SOL    HW229266   1.456   4.274   3.307 -0.7435 -1.1551  0.4358
 9485SOL     OW29267   4.268   0.486   2.196  0.2380  0.1254  0.3109
 9485SOL    HW129268   4.316   0.568   2.210 -0.3040  0.7604 -1.3897
 9485SOL    HW229269   4.218   0.501   2.116  1.7853 -2.6567 -1.2381
 9486SOL     OW29270   3.746   7.994   4.187 -0.5212  0.1217  0.2869
 9486SOL    HW129271   3.726   8.087   4.178 -1.0535  0.0335  0.5677
 9486SOL    HW229272   3.689   7.950   4.125 -1.1040 -0.1154  0.9848
 9487SOL     OW29273   0.696   7.266   1.007 -0.3205 -0.0881  0.2686
 9487SOL    HW129274   0.682   7.321   0.930  1.0251  0.5487  0.4659
 9487SOL    HW229275   0.703   7.177   0.973  0.0596  0.1699 -0.3323
 9488SOL     OW29276   1.579   0.398   2.061 -0.2415 -0.4160  0.1004
 9488SOL    HW129277   1.561   0.391   2.155 -0.1719  0.5582  0.1926
 9488SOL    HW229278   1.531   0.326   2.022  0.1613 -1.1490  0.9456
 9489SOL     OW29279   4.280   5.443   0.914  0.6756  0.0249 -0.4808
 9489SOL    HW129280   4.282   5.508   0.984  1.0229 -1.8690  1.3077
 9489SOL    HW229281   4.315   5.489   0.838 -0.2882  2.2946  0.4093
 9490SOL     OW29282   3.099   2.440   2.805 -0.1691  0.2935  0.1883
 9490SOL    HW129283   3.028   2.462   2.745  2.5297  1.4216 -2.7768
 9490SOL    HW229284   3.133   2.357   2.771  2.7055  1.9707 -1.1854
 9491SOL     OW29285   2.924   4.352   7.397  0.0100 -0.5692 -0.7318
 9491SOL    HW129286   2.830   4.347   7.413 -0.1951  3.4736 -0.1986
 9491SOL    HW229287   2.962   4.370   7.483  0.8387  1.6525 -1.5131
 9492SOL     OW29288   7.581   4.729   1.484 -0.6577 -0.2172  0.9624
 9492SOL    HW129289   7.566   4.813   1.526 -1.6479  0.6102 -1.0088
 9492SOL    HW229290   7.676   4.717   1.487 -0.5820  0.5701  1.9649
 9493SOL     OW29291   0.507   1.832   6.862  0.6272  0.7081  0.3270
 9493SOL    HW129292   0.579   1.866   6.809 -0.9856  3.0209 -0.4650
 9493SOL    HW229293   0.534   1.849   6.952  1.6215  0.4020  0.0923
 9494SOL     OW29294   6.678   7.255   5.528 -0.1855  0.1911  0.2847
 9494SOL    HW129295   6.644   7.333   5.573 -1.5051  0.9664 -2.0145
 9494SOL    HW229296   6.664   7.184   5.590 -0.7869  1.4389  1.6257
 9495SOL     OW29297   2.602   6.833   0.994 -0.1248 -0.0908  0.1479
 9495SOL    HW129298   2.596   6.738   0.994  2.1952 -0.2569 -0.7504
 9495SOL    HW229299   2.555   6.860   0.916  0.4552 -0.5862 -0.3714
 9496SOL     OW29300   5.094   2.051   5.942  0.0574 -0.3208 -0.5546
 9496SOL    HW129301   5.052   1.983   5.890 -0.6560 -1.8557  1.9536
 9496SOL    HW229302   5.109   2.011   6.028  1.1617  2.1442  0.4743
 9497SOL     OW29303   4.626   6.224   6.824  0.5550 -0.2462  0.1299
 9497SOL    HW129304   4.588   6.149   6.778  0.9530 -0.7536  0.6285
 9497SOL    HW229305   4.699   6.251   6.769 -1.5618  1.8712 -1.7915
 9498SOL     OW29306   0.203   2.279   3.937 -0.4827  0.2322 -0.2524
 9498SOL    HW129307   0.129   2.219   3.949  0.4466 -1.1080 -0.9850
 9498SOL    HW229308   0.261   2.259   4.010 -0.8920  1.3592  0.3827
 9499SOL     OW29309   4.451   7.360   1.128 -0.1500 -0.2715  0.1398
 9499SOL    HW129310   4.449   7.268   1.103  1.0852 -1.0170  2.6833
 9499SOL    HW229311   4.371   7.373   1.180 -0.0562 -0.0205  0.2242
 9500SOL     OW29312   6.275   1.948   1.127  1.1121  0.4915 -0.0108
 9500SOL    HW129313   6.352   1.944   1.184  0.2641  1.4518  1.2065
 9500SOL    HW229314   6.302   2.003   1.053  1.3234  1.5192  0.8291
 9501SOL     OW29315   1.865   4.822   0.453 -0.2472 -0.1068  0.3699
 9501SOL    HW129316   1.855   4.731   0.481  1.7665 -1.1428 -2.1361
 9501SOL    HW229317   1.937   4.855   0.507  0.4972 -0.6636 -0.2874
 9502SOL     OW29318   6.783   4.774   6.262 -0.0288  0.0063 -0.5436
 9502SOL    HW129319   6.791   4.688   6.303  1.5428  0.1613 -0.4991
 9502SOL    HW229320   6.750   4.756   6.174 -0.1904 -0.5957 -0.3630
 9503SOL     OW29321   1.296   7.917   0.583  0.0492 -0.0790  0.1553
 9503SOL    HW129322   1.357   7.990   0.578 -0.5691  0.4810  0.7584
 9503SOL    HW229323   1.210   7.956   0.569 -0.1566 -0.8895 -0.8747
 9504SOL     OW29324   3.572   4.748   1.083 -0.4619 -0.3133  0.4640
 9504SOL    HW129325   3.651   4.759   1.137  0.7684 -0.6411 -1.2267
 9504SOL    HW229326   3.503   4.792   1.133  1.1349  1.4713  1.1858
 9505SOL     OW29327   5.443   0.468   0.249  0.6631 -0.0342  0.1272
 9505SOL    HW129328   5.512   0.404   0.226  0.4370  0.0195 -0.7450
 9505SOL    HW229329   5.431   0.519   0.168  0.4989  0.7946  0.6732
 9506SOL     OW29330   0.150   4.802   6.808  0.1380 -0.2449 -0.3351
 9506SOL    HW129331   0.166   4.809   6.902  0.7156  0.9524 -0.5081
 9506SOL    HW229332   0.205   4.730   6.779 -0.2813 -0.8209  0.2970
 9507SOL     OW29333   2.078   7.697   2.850  0.1436 -0.1947  0.3078
 9507SOL    HW129334   1.997   7.732   2.889  0.0775 -0.5366  0.4766
 9507SOL    HW229335   2.148   7.732   2.906  0.2506  1.6294 -0.9331
 9508SOL     OW29336   4.413   7.100   4.670 -0.5054 -0.4385  0.2974
 9508SOL    HW129337   4.508   7.109   4.670 -0.4901 -0.5357 -0.7355
 9508SOL    HW229338   4.385   7.143   4.751  0.2805  1.1703 -0.2628
 9509SOL     OW29339   6.385   5.517   5.140  0.0160 -0.1282 -0.1093
 9509SOL    HW129340   6.373   5.455   5.212 -0.7783 -0.1021 -0.2138
 9509SOL    HW229341   6.478   5.512   5.119 -0.3796 -2.8303 -1.4727
 9510SOL     OW29342   2.018   7.312   3.120 -0.3877 -0.0668 -0.1183
 9510SOL    HW129343   2.063   7.286   3.039 -0.6023 -0.0552 -0.2430
 9510SOL    HW229344   2.058   7.396   3.143  0.2999 -0.5011  0.2812
 9511SOL     OW29345   1.345   6.268   6.056  0.4758 -0.0201 -0.1627
 9511SOL    HW129346   1.388   6.205   6.114  2.0009  0.3672 -0.8186
 9511SOL    HW229347   1.401   6.269   5.978  0.3775  2.0120 -0.2201
 9512SOL     OW29348   5.152   3.341   1.299  0.4452  0.3076  0.6290
 9512SOL    HW129349   5.162   3.259   1.249  1.0600  0.4430  0.5239
 9512SOL    HW229350   5.241   3.362   1.327  0.2406  0.7823  0.9136
 9513SOL     OW29351   3.441   7.863   1.861 -0.3376 -0.1515  0.3977
 9513SOL    HW129352   3.506   7.923   1.898 -1.0204  0.8444  0.0183
 9513SOL    HW229353   3.408   7.908   1.784 -1.0661 -0.9002  0.2649
 9514SOL     OW29354   7.872   7.517   1.233 -0.5960 -0.3962  0.0815
 9514SOL    HW129355   7.918   7.587   1.280  0.0959 -1.2902  0.7488
 9514SOL    HW229356   7.779   7.534   1.248 -0.4372  0.5234  0.0341
 9515SOL     OW29357   1.970   6.937   2.191 -0.4470  0.5024  0.4123
 9515SOL    HW129358   1.892   6.964   2.239 -0.7082  1.8319 -0.7278
 9515SOL    HW229359   1.937   6.894   2.112 -0.0362  1.1731 -0.1330
 9516SOL     OW29360   0.827   5.278   7.604 -0.4197 -0.4715 -0.4327
 9516SOL    HW129361   0.874   5.238   7.531 -1.3355 -0.0512 -1.2635
 9516SOL    HW229362   0.880   5.354   7.628 -0.2510 -0.4607 -0.8344
 9517SOL     OW29363   4.738   1.886   0.621  0.3709 -0.3456 -0.0450
 9517SOL    HW129364   4.833   1.896   0.628  0.0515  1.5586  1.9666
 9517SOL    HW229365   4.703   1.973   0.640 -1.7532 -0.7284 -1.9079
 9518SOL     OW29366   1.392   4.825   1.083 -0.6040 -0.1667 -0.2340
 9518SOL    HW129367   1.362   4.805   1.171 -1.0514  1.5429  0.0126
 9518SOL    HW229368   1.329   4.782   1.025 -0.5527 -0.9250  0.2666
 9519SOL     OW29369   2.059   7.848   3.214 -0.3558 -0.4825 -0.1721
 9519SOL    HW129370   1.973   7.858   3.174 -0.2709 -0.1361 -0.2701
 9519SOL    HW229371   2.048   7.777   3.277 -1.2673  0.9496  1.3363
 9520SOL     OW29372   6.226   5.968   5.315 -0.1931 -0.4678 -0.2974
 9520SOL    HW129373   6.262   5.903   5.255 -0.1344 -0.3943 -0.3419
 9520SOL    HW229374   6.189   6.036   5.259 -2.1327 -1.4733 -0.2656
 9521SOL     OW29375   2.557   0.381   0.710 -0.7657  0.1574  0.4435
 9521SOL    HW129376   2.482   0.436   0.732 -1.2865 -0.1933 -0.4554
 9521SOL    HW229377   2.521   0.294   0.698 -0.1931 -0.0364  0.1120
 9522SOL     OW29378   7.743   0.417   3.454  0.0611 -0.8074  0.3358
 9522SOL    HW129379   7.782   0.492   3.408  1.3694 -1.9308 -0.4123
 9522SOL    HW229380   7.701   0.456   3.531  0.2002  0.7716 -0.3491
 9523SOL     OW29381   3.798   6.755   2.873  0.0488  0.0894 -0.1888
 9523SOL    HW129382   3.710   6.734   2.842  0.2574 -1.1086 -0.0177
 9523SOL    HW229383   3.853   6.752   2.795 -0.4075  2.9902 -0.6531
 9524SOL     OW29384   1.100   4.329   5.313  0.4168  0.5924 -0.1217
 9524SOL    HW129385   1.092   4.236   5.335 -0.2212  0.4531 -0.9186
 9524SOL    HW229386   1.172   4.360   5.368  0.4511 -0.3063  0.3591
 9525SOL     OW29387   0.388   6.384   1.353  0.7370  0.1099  0.4521
 9525SOL    HW129388   0.348   6.463   1.317  0.7055  0.3179  0.9437
 9525SOL    HW229389   0.335   6.312   1.320  0.1354  0.3632  0.8612
 9526SOL     OW29390   2.910   1.894   6.674  0.0878  0.6308 -0.4340
 9526SOL    HW129391   2.987   1.889   6.731 -0.6305 -2.1578  0.3934
 9526SOL    HW229392   2.923   1.972   6.621  1.7262  2.2112  2.2306
 9527SOL     OW29393   4.939   4.078   0.712 -0.6877  0.2043 -0.2675
 9527SOL    HW129394   4.876   4.101   0.780 -0.8312 -3.3094  0.8776
 9527SOL    HW229395   4.922   3.986   0.693  2.2096 -0.0425 -2.0073
 9528SOL     OW29396   6.327   1.850   0.296 -0.2160  0.3456  0.2028
 9528SOL    HW129397   6.253   1.909   0.312 -0.1194  0.7207 -0.6492
 9528SOL    HW229398   6.374   1.891   0.223  0.6527 -0.0567  0.5293
 9529SOL     OW29399   5.493   6.649   1.536 -0.3198 -0.6069 -0.3122
 9529SOL    HW129400   5.571   6.704   1.545  0.6150 -1.7490 -1.2161
 9529SOL    HW229401   5.481   6.610   1.622 -0.8767  0.8630  0.2798
 9530SOL     OW29402   3.033   4.431   1.534  0.1033  0.2455 -0.1167
 9530SOL    HW129403   3.110   4.374   1.523 -1.7289 -2.1967 -0.7014
 9530SOL    HW229404   3.057   4.490   1.606  2.2388 -0.9570  0.2098
 9531SOL     OW29405   6.735   3.655   4.934  0.0499  0.3074 -0.6264
 9531SOL    HW129406   6.685   3.714   4.878 -2.1008 -1.0799 -0.2286
 9531SOL    HW229407   6.739   3.699   5.019  0.7783  1.0813 -1.0574
 9532SOL     OW29408   2.660   6.642   0.313 -0.4830  0.0895  0.3073
 9532SOL    HW129409   2.686   6.685   0.395 -1.9514 -1.5284  1.6595
 9532SOL    HW229410   2.709   6.560   0.312  0.4984  0.6836 -1.0841
 9533SOL     OW29411   2.200   3.038   4.878 -0.0459 -0.0214 -0.0110
 9533SOL    HW129412   2.277   2.983   4.866  0.0602 -0.0368  0.6810
 9533SOL    HW229413   2.163   3.049   4.790  0.3860 -0.5349 -0.2568
 9534SOL     OW29414   4.438   2.058   4.525  0.9788  0.5048 -0.6075
 9534SOL    HW129415   4.502   2.094   4.585  1.0971 -0.4369 -0.1535
 9534SOL    HW229416   4.475   2.074   4.438  1.6826  0.2365 -0.3610
 9535SOL     OW29417   0.263   4.242   0.180  0.1874 -0.6826  0.7330
 9535SOL    HW129418   0.245   4.226   0.088  1.4513 -1.1825  0.5674
 9535SOL    HW229419   0.237   4.333   0.195 -2.1745 -1.2670  0.4429
 9536SOL     OW29420   2.131   6.055   3.006  0.1547  0.5797  0.1626
 9536SOL    HW129421   2.224   6.077   3.011  0.4182 -0.2470 -0.8476
 9536SOL    HW229422   2.086   6.139   3.017  1.0697  1.2510 -1.0741
 9537SOL     OW29423   6.053   2.226   1.466 -0.2096 -0.8828  0.0671
 9537SOL    HW129424   6.015   2.143   1.493  3.4097 -2.4268  0.6483
 9537SOL    HW229425   6.090   2.209   1.379  2.2481 -0.4829  0.9902
 9538SOL     OW29426   6.774   7.055   2.711  0.7865 -0.3746 -0.0975
 9538SOL    HW129427   6.743   6.993   2.777  1.7454 -1.3286 -0.5202
 9538SOL    HW229428   6.701   7.062   2.649  0.0909  0.1085  0.7574
 9539SOL     OW29429   6.611   5.851   6.743 -0.0062 -0.3509  0.2781
 9539SOL    HW129430   6.635   5.907   6.669 -1.4406 -0.0838  0.0079
 9539SOL    HW229431   6.680   5.784   6.745  1.1942  0.8562  0.0119
 9540SOL     OW29432   1.100   1.024   7.150 -0.3988 -0.1986  0.2491
 9540SOL    HW129433   1.157   1.031   7.073  0.5142  1.1241  1.0483
 9540SOL    HW229434   1.152   0.977   7.215 -0.7541 -0.2608  0.4923
 9541SOL     OW29435   5.613   4.391   3.804 -0.3787 -0.2380  0.4136
 9541SOL    HW129436   5.572   4.367   3.887 -2.9395  1.9737 -0.1495
 9541SOL    HW229437   5.562   4.344   3.738 -0.3025  0.4419 -0.1316
 9542SOL     OW29438   5.411   2.890   6.486  0.0705  0.5246  0.1226
 9542SOL    HW129439   5.329   2.841   6.484 -0.3726  1.1400  2.0219
 9542SOL    HW229440   5.396   2.960   6.550  1.8490  1.0291  0.0250
 9543SOL     OW29441   7.125   2.822   4.126 -0.4992  0.0401 -0.0506
 9543SOL    HW129442   7.168   2.743   4.157  0.1057  0.2085 -0.4505
 9543SOL    HW229443   7.054   2.791   4.070  0.9806 -0.2019 -1.8425
 9544SOL     OW29444   0.765   7.004   5.456  0.1497  0.0178 -0.8869
 9544SOL    HW129445   0.815   7.081   5.429 -0.5954  0.6076 -0.5980
 9544SOL    HW229446   0.690   7.003   5.396 -0.4101  0.1379 -0.1983
 9545SOL     OW29447   2.041   4.447   0.949 -0.8383 -0.7258 -0.2670
 9545SOL    HW129448   2.077   4.465   1.036 -1.3760 -1.0214  0.0198
 9545SOL    HW229449   1.973   4.513   0.938 -0.0418 -0.0107 -0.9097
 9546SOL     OW29450   6.367   6.924   3.940  0.5310 -0.3190 -0.4388
 9546SOL    HW129451   6.356   6.898   4.032 -1.3176  0.7337 -0.3445
 9546SOL    HW229452   6.337   6.848   3.890 -0.1208 -0.2354 -0.1748
 9547SOL     OW29453   2.464   4.971   0.481  0.5752  0.1089 -0.1791
 9547SOL    HW129454   2.425   5.043   0.531  0.6107  0.8882 -1.2476
 9547SOL    HW229455   2.403   4.956   0.409  2.0631  1.1615 -1.7061
 9548SOL     OW29456   0.796   3.200   7.160  0.1043  0.0155 -0.0659
 9548SOL    HW129457   0.736   3.125   7.161  0.6049 -0.4135 -1.0874
 9548SOL    HW229458   0.748   3.270   7.117 -0.6087  0.4974  1.4980
 9549SOL     OW29459   3.423   5.913   7.019 -0.0091 -0.4083 -0.2524
 9549SOL    HW129460   3.494   5.893   7.079 -0.4729 -1.4265 -0.0316
 9549SOL    HW229461   3.343   5.906   7.072 -0.2467  1.3961 -0.3248
 9550SOL     OW29462   1.853   1.142   3.273 -0.1362  0.1651 -0.1508
 9550SOL    HW129463   1.827   1.232   3.295  0.3093 -0.0493  1.2932
 9550SOL    HW229464   1.943   1.150   3.241  0.1928  0.1428  0.7516
 9551SOL     OW29465   7.459   0.891   1.185 -0.5770  0.8298  0.0781
 9551SOL    HW129466   7.477   0.966   1.128  0.0632  0.6103 -0.0084
 9551SOL    HW229467   7.545   0.853   1.202 -0.7245  1.1307  1.5197
 9552SOL     OW29468   0.587   5.613   3.262 -0.2345  0.5125  0.0575
 9552SOL    HW129469   0.527   5.540   3.271  0.8391 -0.4914 -0.8158
 9552SOL    HW229470   0.530   5.689   3.249 -1.3439 -0.1839  0.7291
 9553SOL     OW29471   7.737   1.799   0.884 -0.1399 -0.4909  0.2086
 9553SOL    HW129472   7.724   1.879   0.933  0.2414 -0.0724 -0.3660
 9553SOL    HW229473   7.767   1.735   0.949 -0.7351 -0.2488  0.7181
 9554SOL     OW29474   6.633   0.692   1.029 -0.3140 -0.2150 -0.3330
 9554SOL    HW129475   6.570   0.684   0.957 -0.2390 -0.9393 -0.3237
 9554SOL    HW229476   6.618   0.614   1.082 -0.3497  0.3022  0.4272
 9555SOL     OW29477   6.813   4.792   2.328 -0.2492  0.2284  0.2795
 9555SOL    HW129478   6.821   4.749   2.413  0.0139 -2.0322 -0.8752
 9555SOL    HW229479   6.730   4.761   2.293 -0.6461  1.6141 -0.0697
 9556SOL     OW29480   3.163   7.803   1.908 -0.3340  0.4143  0.2297
 9556SOL    HW129481   3.250   7.791   1.870 -1.0572 -2.1621 -0.7049
 9556SOL    HW229482   3.179   7.853   1.988  2.1916 -1.2340  0.8190
 9557SOL     OW29483   0.826   3.062   6.731  0.7748  0.4239 -0.1257
 9557SOL    HW129484   0.824   3.149   6.771 -0.6819  0.5853 -0.5338
 9557SOL    HW229485   0.915   3.054   6.697  0.3289  2.5876 -1.8851
 9558SOL     OW29486   0.606   3.607   5.970  0.0742  0.5301 -0.1327
 9558SOL    HW129487   0.520   3.648   5.971  1.2274  3.1089 -1.0792
 9558SOL    HW229488   0.632   3.608   5.877  2.8383  3.7241  0.5408
 9559SOL     OW29489   4.802   4.183   1.741  0.1195 -0.6712  0.0950
 9559SOL    HW129490   4.883   4.201   1.694 -0.6505 -2.1370 -1.8663
 9559SOL    HW229491   4.753   4.124   1.683 -0.8413 -2.6065  2.7595
 9560SOL     OW29492   4.084   1.752   0.037 -0.1225 -0.7377  0.0306
 9560SOL    HW129493   4.089   1.705   0.120 -0.7975  0.0778  0.5314
 9560SOL    HW229494   4.159   1.811   0.038  0.0230 -0.9185 -0.0635
 9561SOL     OW29495   1.314   6.164   7.530  0.1791  0.1570  0.8877
 9561SOL    HW129496   1.262   6.139   7.454 -1.1348 -0.6205  2.0289
 9561SOL    HW229497   1.263   6.233   7.573 -0.3319 -1.1630  2.4498
 9562SOL     OW29498   0.772   2.860   5.809  0.5876  0.0798  0.5986
 9562SOL    HW129499   0.690   2.902   5.836  0.0286  1.1504 -2.6029
 9562SOL    HW229500   0.762   2.769   5.836 -1.8755  0.0764 -0.2042
 9563SOL     OW29501   3.150   7.849   6.120  0.0873  0.4474 -0.1560
 9563SOL    HW129502   3.217   7.814   6.179 -0.0277  0.0279 -0.2704
 9563SOL    HW229503   3.166   7.943   6.118  0.5431  0.3733 -0.0224
 9564SOL     OW29504   3.026   3.171   7.741  0.0872  0.4176 -0.0915
 9564SOL    HW129505   3.061   3.248   7.786 -1.5035  0.6778  0.7343
 9564SOL    HW229506   2.938   3.196   7.714  0.0386 -0.6739 -0.9857
 9565SOL     OW29507   5.892   6.566   7.271  0.0241  0.3367 -0.0961
 9565SOL    HW129508   5.887   6.640   7.331  0.7952  0.9349 -0.7507
 9565SOL    HW229509   5.920   6.604   7.187  1.9182 -0.8814 -0.0718
 9566SOL     OW29510   2.291   6.660   1.478  0.2233 -0.6400  0.3936
 9566SOL    HW129511   2.204   6.692   1.503  0.4818  0.3389  0.0352
 9566SOL    HW229512   2.327   6.624   1.560 -0.1696 -0.2520  0.7406
 9567SOL     OW29513   4.007   7.584   3.405 -0.1650  0.0371  0.0219
 9567SOL    HW129514   3.977   7.619   3.321 -2.0181  1.5267  1.2544
 9567SOL    HW229515   4.030   7.662   3.457  0.6764 -0.8421  0.9889
 9568SOL     OW29516   7.409   1.069   6.729 -0.1090 -0.3180  0.4965
 9568SOL    HW129517   7.421   0.974   6.728  0.8525 -0.2114  1.0718
 9568SOL    HW229518   7.474   1.102   6.667 -0.8926 -0.0784 -0.2042
 9569SOL     OW29519   0.094   4.847   1.929  0.3748 -0.2941  0.1855
 9569SOL    HW129520   0.038   4.877   2.000  1.4385  1.2379  0.4002
 9569SOL    HW229521   0.118   4.757   1.953 -1.2438 -0.6559  0.5241
 9570SOL     OW29522   7.433   3.872   7.111  0.4249 -0.0450 -0.3891
 9570SOL    HW129523   7.498   3.940   7.091 -0.8981  0.8064 -1.9417
 9570SOL    HW229524   7.447   3.805   7.045 -0.3074  0.1684 -0.7653
 9571SOL     OW29525   4.314   5.621   1.130  0.5342  0.0772  0.4909
 9571SOL    HW129526   4.291   5.711   1.110 -0.5664 -0.2469  0.2815
 9571SOL    HW229527   4.302   5.613   1.225 -0.6503 -0.2059  0.3254
 9572SOL     OW29528   6.304   3.856   4.830  1.0666  0.0379  0.0260
 9572SOL    HW129529   6.323   3.950   4.822 -1.1285  0.4260 -0.7814
 9572SOL    HW229530   6.388   3.814   4.811  1.8596  1.8041 -0.5336
 9573SOL     OW29531   3.939   6.787   5.982  0.0081  0.1092 -0.1155
 9573SOL    HW129532   3.952   6.782   5.888  0.7089  0.1707 -0.0226
 9573SOL    HW229533   3.946   6.696   6.012  1.8578  0.3260  0.1443
 9574SOL     OW29534   1.174   5.720   6.703 -0.1533  0.0691 -0.2977
 9574SOL    HW129535   1.206   5.784   6.640 -0.8776 -0.1747 -0.9241
 9574SOL    HW229536   1.221   5.740   6.784  0.4350  0.6834 -0.7864
 9575SOL     OW29537   0.939   1.908   3.455 -0.6042 -0.1214 -0.1700
 9575SOL    HW129538   1.004   1.838   3.453 -1.3205 -0.7710 -0.6413
 9575SOL    HW229539   0.855   1.864   3.468 -1.1047  0.6149 -0.8227
 9576SOL     OW29540   2.505   0.970   6.179  0.4712  0.4674 -0.4427
 9576SOL    HW129541   2.579   1.026   6.203  0.4443  0.5172 -0.4757
 9576SOL    HW229542   2.433   1.002   6.233  0.1847  1.1436 -1.2081
 9577SOL     OW29543   2.254   3.929   5.271  0.1410  0.1783 -0.5123
 9577SOL    HW129544   2.213   3.847   5.297 -0.3656  0.2335 -1.1344
 9577SOL    HW229545   2.314   3.905   5.201 -0.6892  0.4719 -1.3330
 9578SOL     OW29546   7.928   2.991   0.167  0.2498 -0.0765 -0.2946
 9578SOL    HW129547   7.848   2.985   0.218  0.7647 -2.5510  0.3267
 9578SOL    HW229548   7.939   3.084   0.148 -3.6764  0.1476 -1.8608
 9579SOL     OW29549   2.984   2.469   1.607 -0.0302  0.0034 -0.0954
 9579SOL    HW129550   2.922   2.541   1.597  1.2411  1.1999  0.5111
 9579SOL    HW229551   3.021   2.457   1.520 -0.7334 -0.4010 -0.3520
 9580SOL     OW29552   5.293   2.957   0.332 -0.9203  0.1625 -0.0427
 9580SOL    HW129553   5.225   2.907   0.377 -0.9920 -0.0490 -0.3862
 9580SOL    HW229554   5.336   2.893   0.275 -1.2198  0.5660 -0.7140
 9581SOL     OW29555   2.010   5.138   6.559  0.0957 -0.1592 -0.8247
 9581SOL    HW129556   1.967   5.160   6.476 -1.0255  0.6581 -0.0435
 9581SOL    HW229557   2.082   5.200   6.566 -0.2263  0.2211 -0.8631
 9582SOL     OW29558   2.808   7.715   4.064 -0.5241 -0.0052  0.0051
 9582SOL    HW129559   2.830   7.623   4.045 -1.1467  0.4819 -3.3576
 9582SOL    HW229560   2.888   7.763   4.043 -0.5854  0.3818  0.6320
 9583SOL     OW29561   0.942   0.542   7.148  0.0422 -0.4937 -0.1907
 9583SOL    HW129562   1.029   0.530   7.185  0.1556  0.4247 -0.1427
 9583SOL    HW229563   0.888   0.570   7.222 -0.1846 -0.6018 -0.3154
 9584SOL     OW29564   1.132   3.800   7.013 -0.4887 -0.2977  0.0557
 9584SOL    HW129565   1.098   3.815   6.925  0.4213  0.3231 -0.2012
 9584SOL    HW229566   1.062   3.828   7.072 -1.0293 -0.5442 -0.4703
 9585SOL     OW29567   0.765   6.029   6.033  0.0431  0.2008  0.4365
 9585SOL    HW129568   0.751   6.034   5.938 -0.2704  0.9082  0.5196
 9585SOL    HW229569   0.782   5.936   6.049  0.7061  0.1630 -0.4021
 9586SOL     OW29570   5.013   6.280   6.142 -0.0583  0.0554  0.2515
 9586SOL    HW129571   5.063   6.221   6.198 -2.1445 -0.1226  1.9868
 9586SOL    HW229572   5.068   6.358   6.136  0.5929 -0.2505  1.8274
 9587SOL     OW29573   6.321   0.569   7.723  0.0648  0.4165 -0.3049
 9587SOL    HW129574   6.317   0.536   7.813  2.0800 -1.6237 -0.9224
 9587SOL    HW229575   6.238   0.616   7.711 -2.1823 -2.9777  1.1673
 9588SOL     OW29576   7.662   7.372   1.705 -0.4720  0.2447  0.3359
 9588SOL    HW129577   7.687   7.332   1.788 -0.4228 -0.8531 -0.2063
 9588SOL    HW229578   7.575   7.337   1.686  0.6762 -1.7205 -1.4811
 9589SOL     OW29579   6.682   2.410   3.096 -0.0512  0.1783  0.0857
 9589SOL    HW129580   6.707   2.407   3.188 -2.1610  0.0410  0.6736
 9589SOL    HW229581   6.691   2.502   3.071 -3.6386  1.0422  1.6647
 9590SOL     OW29582   3.103   3.603   1.337  0.1135  0.6063  0.0682
 9590SOL    HW129583   3.127   3.583   1.428  1.1675  0.1600 -0.2950
 9590SOL    HW229584   3.187   3.613   1.292 -0.3368  4.9364 -0.0001
 9591SOL     OW29585   5.823   1.230   2.658 -0.3199  0.3527  0.0646
 9591SOL    HW129586   5.872   1.201   2.735 -0.0858 -1.4483 -0.7356
 9591SOL    HW229587   5.770   1.303   2.689  0.4783  0.2511  1.7035
 9592SOL     OW29588   7.033   4.087   2.701 -0.3077 -0.0444 -0.1726
 9592SOL    HW129589   7.078   4.124   2.777  2.4342  0.7089 -2.1105
 9592SOL    HW229590   7.001   4.002   2.731  3.2668 -1.0362  1.0149
 9593SOL     OW29591   1.942   4.082   0.725  0.2278  0.0488  0.1370
 9593SOL    HW129592   1.984   3.998   0.709 -2.3077 -1.7155  2.2891
 9593SOL    HW229593   1.897   4.102   0.643  0.2896 -1.0312 -0.1685
 9594SOL     OW29594   1.042   4.388   7.313  0.0974 -0.7230  0.3766
 9594SOL    HW129595   1.105   4.409   7.382  1.8506 -0.9637 -1.1040
 9594SOL    HW229596   0.965   4.440   7.334  1.9783  2.1406  0.4100
 9595SOL     OW29597   5.100   6.667   0.056  0.5489  0.2314 -0.0222
 9595SOL    HW129598   5.047   6.618   0.118  0.0812  1.4552  0.5557
 9595SOL    HW229599   5.037   6.717   0.005  1.0181  0.1799 -0.6531
 9596SOL     OW29600   1.609   4.470   0.914 -0.8910  0.6436  0.3907
 9596SOL    HW129601   1.663   4.392   0.919 -1.3124  0.4002  1.1701
 9596SOL    HW229602   1.671   4.542   0.902 -0.5408  0.1290 -0.9579
 9597SOL     OW29603   0.505   7.830   1.753  0.1709  0.1327  0.0103
 9597SOL    HW129604   0.423   7.784   1.773 -0.6145  1.0952 -0.9088
 9597SOL    HW229605   0.497   7.853   1.661  2.1812 -1.1261 -0.5087
 9598SOL     OW29606   6.771   4.616   5.560 -0.0080 -0.4188  0.4869
 9598SOL    HW129607   6.774   4.657   5.473 -0.5958 -1.1231  0.1282
 9598SOL    HW229608   6.830   4.541   5.553  0.6190  0.0232  0.9673
 9599SOL     OW29609   4.216   2.122   5.727  0.3915 -0.5349  0.4472
 9599SOL    HW129610   4.144   2.180   5.699  0.3893 -1.4912 -1.6597
 9599SOL    HW229611   4.269   2.176   5.786  0.0949  1.4589 -1.0536
 9600SOL     OW29612   1.109   6.834   3.576  0.3809  0.2838 -0.1503
 9600SOL    HW129613   1.019   6.867   3.573  0.5096  0.5211 -1.6569
 9600SOL    HW229614   1.106   6.764   3.641 -1.2910 -0.8167 -1.3585
 9601SOL     OW29615   5.514   0.115   4.527 -0.2148  0.4566 -0.0095
 9601SOL    HW129616   5.461   0.036   4.510  0.5389 -0.5829  2.2351
 9601SOL    HW229617   5.603   0.088   4.507  0.1940  0.3490  1.8157
 9602SOL     OW29618   0.850   0.136   1.982  0.4367  0.2947  0.8561
 9602SOL    HW129619   0.843   0.092   1.897  0.9358  0.6184  0.6446
 9602SOL    HW229620   0.816   0.224   1.966  1.2004  0.5864  0.8112
 9603SOL     OW29621   2.301   5.812   1.184 -0.9098 -0.3782  0.5422
 9603SOL    HW129622   2.282   5.721   1.208 -2.5688 -0.3062 -0.4517
 9603SOL    HW229623   2.339   5.850   1.264  0.7790 -2.1952  0.6495
 9604SOL     OW29624   0.881   4.332   1.304  0.0323  0.1068 -0.6847
 9604SOL    HW129625   0.870   4.238   1.293 -1.4068  0.1926 -0.1159
 9604SOL    HW229626   0.831   4.353   1.383  2.0207  1.0412  0.3801
 9605SOL     OW29627   2.218   1.642   6.377  0.9855  0.7243  0.3216
 9605SOL    HW129628   2.280   1.570   6.365  1.6779  1.2789  0.5384
 9605SOL    HW229629   2.168   1.644   6.295  1.0630  0.1018  0.2536
 9606SOL     OW29630   1.327   4.940   4.106  0.5248 -0.0068  0.2713
 9606SOL    HW129631   1.307   5.034   4.108  1.7806  0.2796 -0.3914
 9606SOL    HW229632   1.341   4.916   4.197  0.2212  0.4452  0.4394
 9607SOL     OW29633   6.460   1.125   6.038  0.2859 -0.2453 -0.1890
 9607SOL    HW129634   6.479   1.036   6.067 -1.7873 -0.3536  1.0188
 9607SOL    HW229635   6.412   1.114   5.956  2.1452 -0.1274 -1.3068
 9608SOL     OW29636   5.176   1.025   3.060  0.4541  0.1782 -0.7243
 9608SOL    HW129637   5.084   1.044   3.076  1.1124  3.8406 -0.7890
 9608SOL    HW229638   5.176   0.974   2.979 -1.4876  0.9567 -1.2486
 9609SOL     OW29639   1.826   5.329   2.680 -0.3264  0.4998  0.6192
 9609SOL    HW129640   1.814   5.248   2.631  0.6112  1.2593 -0.9114
 9609SOL    HW229641   1.842   5.300   2.770  0.0234 -1.0240  0.0925
 9610SOL     OW29642   6.976   1.662   5.149 -0.7238 -0.0984  0.1377
 9610SOL    HW129643   6.968   1.620   5.235 -0.8776  0.1745  0.2573
 9610SOL    HW229644   6.959   1.755   5.166  1.7189  0.3664  0.2304
 9611SOL     OW29645   7.007   6.149   1.599 -0.5011  0.0301  0.3798
 9611SOL    HW129646   6.948   6.120   1.668 -0.4640 -0.1310  0.3447
 9611SOL    HW229647   6.982   6.097   1.522 -0.3995  0.0527  0.3308
 9612SOL     OW29648   5.346   4.872   4.482 -0.4064  0.3883  0.2651
 9612SOL    HW129649   5.373   4.804   4.543 -1.4831  0.8991  1.3427
 9612SOL    HW229650   5.250   4.872   4.487 -0.4154  2.1946  0.5690
 9613SOL     OW29651   1.695   2.362   0.641  0.3374  0.4980  0.3086
 9613SOL    HW129652   1.780   2.390   0.675  0.6428  3.3518 -2.5759
 9613SOL    HW229653   1.713   2.281   0.595  1.1579  0.1642  1.2021
 9614SOL     OW29654   3.926   2.002   6.395 -0.1173  0.2457  0.0034
 9614SOL    HW129655   3.900   1.944   6.323 -1.0776  1.3884 -0.5938
 9614SOL    HW229656   3.895   1.958   6.474 -2.3007  0.7168 -0.5695
 9615SOL     OW29657   2.590   6.720   6.143 -0.4422  0.0269 -0.5822
 9615SOL    HW129658   2.519   6.656   6.154  0.3961 -0.9294 -0.6292
 9615SOL    HW229659   2.658   6.690   6.204  0.1365  0.6161 -0.9384
 9616SOL     OW29660   0.348   2.098   4.330 -0.4113 -0.1450 -0.0181
 9616SOL    HW129661   0.300   2.039   4.271 -0.6659  0.1981 -0.1611
 9616SOL    HW229662   0.433   2.056   4.343 -0.7090 -0.6969  0.1365
 9617SOL     OW29663   4.461   3.703   6.647  0.1696  0.1188  0.7855
 9617SOL    HW129664   4.419   3.715   6.732 -0.9490  0.4350  0.1985
 9617SOL    HW229665   4.412   3.632   6.606  0.9663 -0.3067  0.5699
 9618SOL     OW29666   1.957   2.790   0.988 -0.1608  0.3513  0.1565
 9618SOL    HW129667   1.914   2.806   0.904 -1.9502 -3.0971  0.3544
 9618SOL    HW229668   2.051   2.801   0.969 -0.5684  0.1831 -2.1627
 9619SOL     OW29669   1.474   5.220   5.861 -0.1252  0.3965  0.5885
 9619SOL    HW129670   1.457   5.163   5.786  0.4943  1.1471 -0.1313
 9619SOL    HW229671   1.464   5.309   5.826  2.8020  0.8328  0.7269
 9620SOL     OW29672   4.297   4.992   4.321  0.1521  0.2524 -0.8536
 9620SOL    HW129673   4.372   4.932   4.317 -0.8661 -1.0591 -0.5235
 9620SOL    HW229674   4.256   4.974   4.406 -0.3300  1.2329 -0.8697
 9621SOL     OW29675   4.514   3.730   0.127  0.0922 -0.1402  0.0524
 9621SOL    HW129676   4.510   3.670   0.053  2.8110 -0.0585 -0.2065
 9621SOL    HW229677   4.537   3.674   0.202  1.7153  0.4148 -0.0148
 9622SOL     OW29678   1.612   4.387   3.724 -0.2638 -0.1828  0.0445
 9622SOL    HW129679   1.531   4.339   3.709 -1.4237  1.4824  0.8813
 9622SOL    HW229680   1.635   4.424   3.638 -1.4751  0.9878  0.2113
 9623SOL     OW29681   5.950   7.745   2.814 -0.0935 -0.5711 -0.0550
 9623SOL    HW129682   5.888   7.813   2.841 -0.1119  0.6920 -3.0271
 9623SOL    HW229683   6.017   7.744   2.883 -0.6648  1.7231  0.5688
 9624SOL     OW29684   3.143   0.757   6.509 -0.4563 -0.1164  0.0135
 9624SOL    HW129685   3.104   0.758   6.421  1.0769 -1.5302 -0.7271
 9624SOL    HW229686   3.081   0.706   6.562 -0.3539 -1.1064 -0.7933
 9625SOL     OW29687   4.289   2.824   1.094 -0.4882  0.1021  0.3767
 9625SOL    HW129688   4.214   2.773   1.124 -1.2589  2.0204  1.8345
 9625SOL    HW229689   4.363   2.788   1.144 -0.3977 -1.7938 -1.0685
 9626SOL     OW29690   2.090   4.578   0.572  0.0590  0.7610 -0.2203
 9626SOL    HW129691   1.999   4.553   0.591 -0.2420  0.4922 -1.8834
 9626SOL    HW229692   2.142   4.502   0.599 -0.2936  0.6065  0.0270
 9627SOL     OW29693   0.425   0.100   5.574  0.2900 -0.1360 -0.3790
 9627SOL    HW129694   0.485   0.026   5.568 -0.2482 -0.5670 -0.5054
 9627SOL    HW229695   0.340   0.064   5.552 -0.3031  0.1050  1.4450
 9628SOL     OW29696   1.012   2.635   1.397 -0.2173  0.2729  1.2896
 9628SOL    HW129697   1.049   2.549   1.418 -0.4817 -0.2550 -0.3411
 9628SOL    HW229698   1.057   2.662   1.317  0.5698  2.1115  2.3383
 9629SOL     OW29699   2.213   7.404   4.955 -0.4403  0.2045 -0.2184
 9629SOL    HW129700   2.138   7.437   4.906  0.9029 -1.2065 -3.3340
 9629SOL    HW229701   2.289   7.439   4.910  0.8613 -1.8155  0.3452
 9630SOL     OW29702   0.434   3.109   2.703  0.0045 -0.2183  0.0793
 9630SOL    HW129703   0.352   3.118   2.654 -1.3945 -0.5577  2.3112
 9630SOL    HW229704   0.408   3.075   2.788  2.7909 -3.3189 -0.1893
 9631SOL     OW29705   0.342   2.163   1.997 -0.2624  0.2198  0.4200
 9631SOL    HW129706   0.342   2.255   1.972 -0.3647  0.3285  0.8244
 9631SOL    HW229707   0.361   2.116   1.916  0.1059  0.6146  0.2751
 9632SOL     OW29708   3.677   5.570   1.973  1.1158 -0.0230  0.2668
 9632SOL    HW129709   3.654   5.653   2.015  0.7138 -0.1087  0.2201
 9632SOL    HW229710   3.694   5.510   2.045  0.7225 -0.0872  0.3075
 9633SOL     OW29711   0.036   6.206   3.738 -0.4168 -0.0179 -0.1893
 9633SOL    HW129712   0.104   6.140   3.754  0.7161  1.0050 -0.6778
 9633SOL    HW229713   0.031   6.213   3.643 -0.4709  0.6450 -0.1409
 9634SOL     OW29714   7.129   6.271   3.725  0.2237 -0.2637  0.4022
 9634SOL    HW129715   7.211   6.227   3.746 -0.5335 -0.8868  2.1833
 9634SOL    HW229716   7.068   6.199   3.706 -0.5023  0.0922  1.3718
 9635SOL     OW29717   6.778   6.184   0.681 -0.7042 -0.5873  0.3757
 9635SOL    HW129718   6.775   6.126   0.605 -0.2904  0.6108 -0.5752
 9635SOL    HW229719   6.691   6.225   0.683 -0.2764  0.3609 -0.2388
 9636SOL     OW29720   4.640   1.689   2.970  0.0755  0.1675  0.9116
 9636SOL    HW129721   4.577   1.652   2.909 -1.0654 -1.2193  2.8851
 9636SOL    HW229722   4.590   1.752   3.021  0.6754  0.2421  1.4111
 9637SOL     OW29723   4.127   2.995   0.969 -0.0352 -0.4717  0.0351
 9637SOL    HW129724   4.194   2.955   1.024 -0.4238 -0.5564  0.4509
 9637SOL    HW229725   4.175   3.033   0.895  0.5601  0.2676  0.8045
 9638SOL     OW29726   6.908   7.049   4.083  0.2821  0.2442  0.0877
 9638SOL    HW129727   6.859   7.098   4.018  0.3326 -0.4109 -0.4569
 9638SOL    HW229728   6.864   6.964   4.088 -0.6751  0.8426  2.0738
 9639SOL     OW29729   4.889   7.447   2.404 -0.0283 -0.1680  0.3674
 9639SOL    HW129730   4.906   7.534   2.440 -1.2224  0.1388  0.2153
 9639SOL    HW229731   4.812   7.416   2.452 -0.5784 -0.4717 -0.7070
 9640SOL     OW29732   0.661   2.965   4.375  0.1389  0.2493  0.1072
 9640SOL    HW129733   0.685   2.990   4.286  2.6317  0.7787  0.8975
 9640SOL    HW229734   0.730   2.905   4.403 -0.7203 -0.0575  1.6433
 9641SOL     OW29735   4.606   0.768   4.999  0.2500  0.1467 -0.0402
 9641SOL    HW129736   4.615   0.769   5.094 -0.1641 -1.7829  0.0272
 9641SOL    HW229737   4.521   0.811   4.984 -0.0373 -0.2214  0.5018
 9642SOL     OW29738   4.385   4.395   2.545  0.1342  0.3065  0.0811
 9642SOL    HW129739   4.301   4.364   2.511 -1.0355  1.2591  2.0545
 9642SOL    HW229740   4.426   4.317   2.583 -0.6244  0.1794  0.6496
 9643SOL     OW29741   3.257   0.555   0.099  0.1394  0.3483  0.1878
 9643SOL    HW129742   3.303   0.513   0.172 -1.4001  1.3878  1.7956
 9643SOL    HW229743   3.303   0.637   0.085  0.8560 -0.1586 -0.4886
 9644SOL     OW29744   2.909   0.115   4.220 -0.0596  0.0151  0.1220
 9644SOL    HW129745   2.860   0.065   4.285  0.8609 -1.4143 -0.2689
 9644SOL    HW229746   2.955   0.049   4.168  0.9331  1.2446 -0.5957
 9645SOL     OW29747   5.683   4.138   1.570  0.4644 -0.5666  0.7313
 9645SOL    HW129748   5.628   4.213   1.592  1.3327  1.0000 -2.3011
 9645SOL    HW229749   5.625   4.078   1.524  0.7327  0.0862 -0.4720
 9646SOL     OW29750   2.594   6.489   0.633  0.5548  0.2483  0.0099
 9646SOL    HW129751   2.599   6.580   0.605 -0.2448  0.6121  1.0421
 9646SOL    HW229752   2.656   6.483   0.706  1.5320 -0.3434 -0.8493
 9647SOL     OW29753   1.264   0.232   1.204  0.1638 -0.1048 -0.0691
 9647SOL    HW129754   1.208   0.162   1.237 -0.8700  1.2272  1.0426
 9647SOL    HW229755   1.217   0.266   1.128  0.4236 -0.2526 -0.3016
 9648SOL     OW29756   3.079   5.135   1.068  0.4082 -0.3297  0.8557
 9648SOL    HW129757   3.106   5.145   1.159 -0.8047 -1.4619  1.3569
 9648SOL    HW229758   3.012   5.067   1.070 -0.7816  0.7610 -0.6670
 9649SOL     OW29759   0.508   2.025   3.405 -0.2511 -0.2813  0.4411
 9649SOL    HW129760   0.586   2.069   3.438  0.5993 -1.4530  0.0609
 9649SOL    HW229761   0.453   2.095   3.370  0.3131  0.6222  1.3623
 9650SOL     OW29762   0.124   1.076   7.319 -0.0187 -0.0178  0.3473
 9650SOL    HW129763   0.162   1.137   7.382 -0.7966  1.4867 -0.6139
 9650SOL    HW229764   0.090   1.132   7.249 -2.4261 -1.4571  0.3447
 9651SOL     OW29765   0.302   6.983   7.505 -0.0429  0.0282  0.0113
 9651SOL    HW129766   0.297   6.908   7.565 -0.6632  0.1329  0.0983
 9651SOL    HW229767   0.211   7.001   7.483  0.0353  1.3566  0.7291
 9652SOL     OW29768   4.449   6.345   3.428  0.3689  0.6080 -0.6058
 9652SOL    HW129769   4.518   6.280   3.414  0.8963  0.9269  0.4759
 9652SOL    HW229770   4.477   6.420   3.375  0.4288  0.4315 -0.8260
 9653SOL     OW29771   5.199   5.972   3.968 -0.0529  0.1379  0.0939
 9653SOL    HW129772   5.135   6.042   3.954 -4.7612 -4.0370 -0.5689
 9653SOL    HW229773   5.192   5.953   4.062 -1.1158 -1.4194 -0.2741
 9654SOL     OW29774   6.036   0.463   5.314  0.7453  0.2647 -0.1992
 9654SOL    HW129775   6.018   0.418   5.231 -1.9307 -0.6731  0.8403
 9654SOL    HW229776   6.113   0.418   5.349  1.3583  0.0839 -1.7282
 9655SOL     OW29777   2.025   3.406   6.694  0.1113 -0.4133  0.0294
 9655SOL    HW129778   1.938   3.372   6.676 -0.6910  2.2280 -1.3291
 9655SOL    HW229779   2.010   3.490   6.738  1.9620  0.1390 -0.3459
 9656SOL     OW29780   7.775   0.175   3.306 -0.1439 -0.7233 -0.0572
 9656SOL    HW129781   7.789   0.258   3.352  0.2683 -0.8409  0.0325
 9656SOL    HW229782   7.681   0.158   3.314 -0.4382  0.3293 -1.0620
 9657SOL     OW29783   6.317   7.344   3.856 -0.1529  0.1918  0.2033
 9657SOL    HW129784   6.408   7.322   3.835 -1.0547 -3.4669 -0.2082
 9657SOL    HW229785   6.296   7.289   3.931 -1.5907  2.1450  1.2549
 9658SOL     OW29786   5.553   3.166   0.674 -0.5856 -0.5767  0.2832
 9658SOL    HW129787   5.561   3.224   0.749  1.8863 -2.5796  1.6251
 9658SOL    HW229788   5.582   3.219   0.600 -0.9947  0.7276  1.0324
 9659SOL     OW29789   4.544   1.302   3.561  0.0471  0.5789 -0.2435
 9659SOL    HW129790   4.530   1.395   3.579  1.8418  0.7028  0.6090
 9659SOL    HW229791   4.623   1.280   3.611 -0.3356 -1.3847 -0.4925
 9660SOL     OW29792   1.961   1.403   6.875 -0.5290 -1.0475  0.1482
 9660SOL    HW129793   1.984   1.315   6.905 -1.2463 -1.3579 -0.2154
 9660SOL    HW229794   1.948   1.453   6.956  2.4846 -0.5568  0.4047
 9661SOL     OW29795   6.482   5.342   5.572  0.1103 -0.1218 -0.0196
 9661SOL    HW129796   6.525   5.267   5.531  0.6384 -1.5426  3.0008
 9661SOL    HW229797   6.397   5.309   5.601  0.0563  0.6279  0.7008
 9662SOL     OW29798   6.574   2.860   7.838 -0.2958  0.0109  0.1800
 9662SOL    HW129799   6.638   2.789   7.835  0.1348  0.3558  0.9924
 9662SOL    HW229800   6.510   2.838   7.770  0.6479 -0.3744 -0.5964
 9663SOL     OW29801   7.170   2.372   6.094  0.3986  0.2596  0.0254
 9663SOL    HW129802   7.091   2.414   6.126 -0.1201  0.5192 -1.5314
 9663SOL    HW229803   7.138   2.304   6.035  1.2748 -1.2616  1.2728
 9664SOL     OW29804   7.672   2.620   0.018  0.2481  0.1505 -0.6259
 9664SOL    HW129805   7.737   2.551   0.006 -0.8858 -1.1403  0.5786
 9664SOL    HW229806   7.626   2.625  -0.066 -0.4530 -1.3953 -0.3497
 9665SOL     OW29807   4.854   1.925   2.597 -0.0400  0.4196  0.5732
 9665SOL    HW129808   4.886   2.012   2.621  0.4529  0.0965  1.1087
 9665SOL    HW229809   4.799   1.899   2.671 -0.3144  0.3437  0.3411
 9666SOL     OW29810   0.761   3.245   7.925  0.6425 -0.2409  0.2272
 9666SOL    HW129811   0.730   3.320   7.875  0.3706 -0.4680  0.0584
 9666SOL    HW229812   0.681   3.200   7.953  0.7177  0.8958  2.3970
 9667SOL     OW29813   5.540   0.820   0.387  0.1828 -0.6098  0.4383
 9667SOL    HW129814   5.553   0.869   0.468  1.2511 -0.0000 -0.1009
 9667SOL    HW229815   5.628   0.796   0.358 -0.1302  0.0293 -1.0610
 9668SOL     OW29816   5.582   6.628   3.275 -0.2712 -0.0144  0.0128
 9668SOL    HW129817   5.598   6.717   3.243 -0.1881  0.0185  0.1456
 9668SOL    HW229818   5.631   6.623   3.357 -0.4037 -0.1314  0.0839
 9669SOL     OW29819   2.069   1.149   6.953 -1.3717  0.2510 -0.4192
 9669SOL    HW129820   2.153   1.106   6.971 -0.5393  2.2688  0.7020
 9669SOL    HW229821   2.026   1.092   6.889  0.1666 -1.6349  0.1706
 9670SOL     OW29822   4.675   4.404   6.244  0.0718  0.2526 -0.1744
 9670SOL    HW129823   4.724   4.467   6.296 -0.3625  0.1331  0.3865
 9670SOL    HW229824   4.589   4.445   6.232 -0.5328 -0.6409  1.0081
 9671SOL     OW29825   4.419   7.453   7.902  0.3276  0.0037 -0.0399
 9671SOL    HW129826   4.362   7.516   7.860 -0.3895  0.8684  2.1399
 9671SOL    HW229827   4.366   7.416   7.973  2.1560  0.2223  1.5072
 9672SOL     OW29828   0.988   3.591   4.165 -0.4876 -0.8501 -0.1741
 9672SOL    HW129829   0.965   3.634   4.082 -1.4462 -0.4061  0.3161
 9672SOL    HW229830   1.049   3.522   4.139  0.3753  0.2148 -1.0886
 9673SOL     OW29831   0.821   2.218   1.644  0.6697 -0.2604 -0.3095
 9673SOL    HW129832   0.851   2.299   1.685  1.6861 -0.7408 -0.0907
 9673SOL    HW229833   0.893   2.192   1.586 -0.1662 -0.3470 -1.3371
 9674SOL     OW29834   4.776   7.089   5.588 -0.3400  0.6688  0.4571
 9674SOL    HW129835   4.726   7.040   5.522  0.3129 -1.7458  1.7223
 9674SOL    HW229836   4.866   7.084   5.558 -0.2211  0.7788  0.7975
 9675SOL     OW29837   0.688   3.773   2.752  0.1075 -0.6143  0.1857
 9675SOL    HW129838   0.756   3.714   2.784  0.1196 -1.3088 -1.1094
 9675SOL    HW229839   0.608   3.719   2.752  0.2653 -0.8660 -1.7171
 9676SOL     OW29840   2.328   4.726   4.542 -0.2742  0.6143  0.3999
 9676SOL    HW129841   2.234   4.712   4.535  0.0599 -2.0641  0.7881
 9676SOL    HW229842   2.348   4.790   4.473 -2.3359  1.1379  0.2460
 9677SOL     OW29843   5.014   4.584   4.307  0.2468 -0.3873 -0.0941
 9677SOL    HW129844   5.052   4.644   4.371 -1.3390 -0.6070  1.0826
 9677SOL    HW229845   4.936   4.629   4.276  1.4043  0.0678 -2.5053
 9678SOL     OW29846   5.878   1.699   7.405 -0.5465  0.3858 -1.1546
 9678SOL    HW129847   5.782   1.702   7.410 -0.4640  0.2002  1.1383
 9678SOL    HW229848   5.905   1.790   7.416 -0.4599  0.5464 -2.5662
 9679SOL     OW29849   6.196   3.534   2.606 -0.4691 -0.1068 -0.4378
 9679SOL    HW129850   6.135   3.524   2.678 -0.8752 -1.8461 -0.9866
 9679SOL    HW229851   6.264   3.468   2.623 -0.6225 -0.6000 -1.6782
 9680SOL     OW29852   7.325   0.491   2.055 -0.0360  0.8616 -0.0676
 9680SOL    HW129853   7.243   0.464   2.013  0.8921 -1.0682 -0.7210
 9680SOL    HW229854   7.393   0.464   1.993  1.1134  1.9288  0.7295
 9681SOL     OW29855   5.475   1.125   4.260 -0.5176  0.7582  0.2346
 9681SOL    HW129856   5.426   1.139   4.179 -0.5286 -0.0252  0.1003
 9681SOL    HW229857   5.457   1.203   4.313  1.8449  2.7041 -1.6812
 9682SOL     OW29858   4.221   6.754   0.575 -0.4036 -0.3029  0.4519
 9682SOL    HW129859   4.287   6.799   0.523  1.0252 -0.4342  2.1082
 9682SOL    HW229860   4.260   6.669   0.595 -1.6568 -0.9355  0.2675
 9683SOL     OW29861   7.446   7.122   6.439 -0.1593 -0.0671  0.0550
 9683SOL    HW129862   7.462   7.068   6.361 -0.6590 -0.1467  0.0060
 9683SOL    HW229863   7.398   7.065   6.499 -2.1437  0.8124 -0.6429
 9684SOL     OW29864   5.227   3.226   3.321 -0.2622  0.3511  0.2688
 9684SOL    HW129865   5.320   3.244   3.333  0.0210 -1.4213  0.8500
 9684SOL    HW229866   5.215   3.228   3.226  0.5020 -0.0843  0.1590
 9685SOL     OW29867   1.658   5.317   4.989 -0.2837 -0.2584  0.4346
 9685SOL    HW129868   1.693   5.336   5.076 -0.0217  0.0368  0.2641
 9685SOL    HW229869   1.590   5.250   5.005  0.1126 -0.5777  0.8017
 9686SOL     OW29870   2.146   2.214   7.780 -0.1265 -0.5590  0.3987
 9686SOL    HW129871   2.084   2.263   7.833 -0.6117  0.1489 -0.7984
 9686SOL    HW229872   2.092   2.163   7.719  0.4435  0.2550 -0.8146
 9687SOL     OW29873   5.646   6.766   7.887 -0.2189  0.2137  0.2447
 9687SOL    HW129874   5.603   6.700   7.942 -0.5513  0.3342  0.1285
 9687SOL    HW229875   5.581   6.787   7.820  0.2442 -0.0504 -0.2912
 9688SOL     OW29876   5.572   0.005   2.458  0.0677 -0.4409 -0.4691
 9688SOL    HW129877   5.518   0.038   2.387  0.1137 -0.3336 -0.4543
 9688SOL    HW229878   5.534   0.044   2.537 -0.6854 -1.4511 -0.3186
 9689SOL     OW29879   1.151   0.701   6.023 -0.1581  0.1716  0.2416
 9689SOL    HW129880   1.084   0.728   6.086 -1.5973 -2.2404 -0.1674
 9689SOL    HW229881   1.190   0.623   6.062 -0.7602 -1.0841 -1.6093
 9690SOL     OW29882   6.932   0.761   6.267 -0.1646  0.5638  0.5967
 9690SOL    HW129883   6.996   0.831   6.263 -0.1520  0.5030 -0.3265
 9690SOL    HW229884   6.984   0.681   6.277 -0.1325  0.5833  0.5868
 9691SOL     OW29885   3.111   2.715   6.624 -0.3379 -0.2427 -0.2044
 9691SOL    HW129886   3.103   2.670   6.708  0.8626 -1.1037 -0.5200
 9691SOL    HW229887   3.203   2.702   6.600 -0.2678  1.4147 -0.8640
 9692SOL     OW29888   5.668   2.800   4.977  0.0330 -0.3016  0.0385
 9692SOL    HW129889   5.605   2.837   4.914  0.9564  0.0253 -0.7057
 9692SOL    HW229890   5.614   2.768   5.049 -1.0840 -1.0762 -1.1205
 9693SOL     OW29891   6.281   3.841   1.259 -0.2567  0.1469 -0.3090
 9693SOL    HW129892   6.203   3.796   1.227  1.0195 -2.1064 -0.4063
 9693SOL    HW229893   6.297   3.911   1.195 -2.8055  1.3541  0.3310
 9694SOL     OW29894   1.516   0.395   4.765  0.2258  0.2639 -0.2890
 9694SOL    HW129895   1.481   0.457   4.701  1.5999  0.0243 -1.2758
 9694SOL    HW229896   1.534   0.450   4.842 -2.0633  0.4328  0.1742
 9695SOL     OW29897   0.148   7.977   5.536 -0.0085  0.5438  0.0644
 9695SOL    HW129898   0.138   7.969   5.630  1.0615  1.3718  0.2647
 9695SOL    HW229899   0.065   8.012   5.505 -0.9025 -1.1567  0.4963
 9696SOL     OW29900   7.275   0.110   6.877 -0.1499 -0.4572  0.1614
 9696SOL    HW129901   7.242   0.139   6.792  0.7096 -0.7927 -0.2973
 9696SOL    HW229902   7.312   0.188   6.917 -0.9944 -0.1973  0.4368
 9697SOL     OW29903   4.276   2.259   3.167 -0.1513 -0.7423  0.2878
 9697SOL    HW129904   4.196   2.219   3.202  0.2625 -1.8771 -0.0455
 9697SOL    HW229905   4.329   2.185   3.138  1.3431 -0.0561  1.1827
 9698SOL     OW29906   3.645   3.048   6.363  0.2304  0.0876  0.2802
 9698SOL    HW129907   3.733   3.029   6.332 -0.4788 -0.7939 -1.2217
 9698SOL    HW229908   3.645   3.143   6.376  0.8612  0.3508 -1.4652
 9699SOL     OW29909   5.781   1.529   3.596  0.3686  0.0811  0.3933
 9699SOL    HW129910   5.705   1.501   3.546  0.4976 -0.7996  0.6864
 9699SOL    HW229911   5.771   1.624   3.603 -0.5160  0.0125  0.1311
 9700SOL     OW29912   1.611   4.093   3.435 -0.4929 -0.6409 -0.0367
 9700SOL    HW129913   1.579   4.181   3.417  0.4529 -0.4360 -0.7517
 9700SOL    HW229914   1.545   4.035   3.395 -2.1219 -0.3100  2.1116
 9701SOL     OW29915   2.073   2.846   3.765  0.3976 -0.1196  0.0561
 9701SOL    HW129916   2.022   2.894   3.700 -1.2528  0.4375  1.7115
 9701SOL    HW229917   2.132   2.911   3.803  1.2484 -0.4078 -0.7732
 9702SOL     OW29918   2.581   4.949   2.059 -0.2598  0.0151 -0.3040
 9702SOL    HW129919   2.509   4.981   2.005 -1.4092 -0.4108  0.9524
 9702SOL    HW229920   2.539   4.894   2.125  1.2558 -0.5322  0.2240
 9703SOL     OW29921   0.122   3.146   2.924  0.6870 -0.3959  0.5171
 9703SOL    HW129922   0.078   3.229   2.945  2.0909  0.6613 -0.5653
 9703SOL    HW229923   0.102   3.131   2.832  1.5967 -0.5210  0.3357
 9704SOL     OW29924   4.262   2.414   7.813 -0.2698 -0.8190 -0.2832
 9704SOL    HW129925   4.258   2.398   7.907 -2.2736 -2.4258 -0.5958
 9704SOL    HW229926   4.284   2.507   7.805 -0.4422 -0.5874  1.7675
 9705SOL     OW29927   2.353   3.895   5.982 -0.4359  0.2003 -0.1944
 9705SOL    HW129928   2.344   3.981   6.022  0.3551 -0.0592  0.5405
 9705SOL    HW229929   2.360   3.834   6.055  1.8170 -0.1909 -0.6998
 9706SOL     OW29930   5.934   2.451   1.177  0.3779 -0.0930  0.1201
 9706SOL    HW129931   5.852   2.494   1.202 -0.1295 -0.4366 -0.9140
 9706SOL    HW229932   5.930   2.366   1.221 -0.8082 -0.9539 -1.5962
 9707SOL     OW29933   1.909   7.846   1.995 -0.3196  0.1303  0.7639
 9707SOL    HW129934   1.967   7.876   1.925 -1.0807  0.9353  0.4636
 9707SOL    HW229935   1.965   7.794   2.053  0.6971  0.9342  0.5059
 9708SOL     OW29936   3.440   3.356   1.571  0.4331  0.0900 -0.1824
 9708SOL    HW129937   3.500   3.429   1.589 -0.9602  1.2116 -0.0413
 9708SOL    HW229938   3.449   3.299   1.648 -0.5852  1.5611  1.0588
 9709SOL     OW29939   4.230   4.399   0.383  0.1948 -0.2011 -0.4604
 9709SOL    HW129940   4.139   4.402   0.411  0.6313 -1.0740  1.0971
 9709SOL    HW229941   4.231   4.448   0.300 -0.9917  3.0191  1.3461
 9710SOL     OW29942   4.307   6.329   4.861 -0.0884 -0.3012 -0.4033
 9710SOL    HW129943   4.260   6.396   4.813 -0.3399  0.6649  1.1601
 9710SOL    HW229944   4.241   6.284   4.913  0.5084  0.1919  0.7993
 9711SOL     OW29945   4.269   5.819   4.818 -0.7112  0.7429 -0.2090
 9711SOL    HW129946   4.262   5.725   4.801 -0.5028  0.6979 -0.0512
 9711SOL    HW229947   4.260   5.827   4.913 -1.0726  0.9141 -0.2572
 9712SOL     OW29948   1.494   4.440   7.993  0.2776  0.0652  0.1513
 9712SOL    HW129949   1.425   4.458   7.930  1.2496  2.8067 -0.2192
 9712SOL    HW229950   1.450   4.397   8.066 -1.2527 -1.0224 -1.3779
 9713SOL     OW29951   5.558   6.099   5.243  0.3433  0.1650 -0.0169
 9713SOL    HW129952   5.496   6.092   5.315  0.6887  0.1955  0.2865
 9713SOL    HW229953   5.512   6.063   5.167 -0.8728  2.3258 -0.3328
 9714SOL     OW29954   3.098   6.384   7.042  0.0920 -0.2349 -0.0860
 9714SOL    HW129955   3.189   6.406   7.025 -0.0882  1.5676  1.1376
 9714SOL    HW229956   3.048   6.443   6.985 -0.3434  0.0357  0.5750
 9715SOL     OW29957   5.627   5.347   5.680 -0.0047  0.4468 -1.0017
 9715SOL    HW129958   5.558   5.373   5.619  0.3629  0.6226 -1.3474
 9715SOL    HW229959   5.706   5.342   5.626 -0.0396 -1.2499 -0.9011
 9716SOL     OW29960   0.027   1.285   7.042 -0.1284  0.1631  0.2384
 9716SOL    HW129961   0.004   1.376   7.062 -1.9866  0.1651 -1.6942
 9716SOL    HW229962   0.119   1.288   7.020 -0.1811  1.5916  0.1359
 9717SOL     OW29963   4.222   4.316   7.673  0.1862 -0.0437 -0.4794
 9717SOL    HW129964   4.215   4.406   7.706  2.3771  0.0033 -0.0787
 9717SOL    HW229965   4.302   4.316   7.621 -0.4029 -1.4950 -1.3959
 9718SOL     OW29966   4.691   7.794   1.588  0.2767 -0.4493  0.1759
 9718SOL    HW129967   4.764   7.815   1.530  0.2876  0.4784  0.5178
 9718SOL    HW229968   4.732   7.774   1.672  0.1474 -0.0512  0.3340
 9719SOL     OW29969   5.323   0.735   3.561  0.3344  0.0173 -0.2049
 9719SOL    HW129970   5.289   0.646   3.575 -3.3649  1.4130  0.1922
 9719SOL    HW229971   5.351   0.735   3.469  0.4315 -1.5450 -0.1911
 9720SOL     OW29972   6.980   4.990   2.281  0.1727  0.4371  0.4910
 9720SOL    HW129973   7.026   4.982   2.364  1.5465  0.3050 -0.2674
 9720SOL    HW229974   6.917   4.918   2.282  1.8715 -1.1130  0.3805
 9721SOL     OW29975   6.641   3.516   7.860  0.3209 -0.1833 -0.1804
 9721SOL    HW129976   6.697   3.450   7.819  1.1692  0.9512 -0.8374
 9721SOL    HW229977   6.682   3.600   7.840 -0.0650  0.5000  1.7093
 9722SOL     OW29978   3.232   0.790   7.326  0.0011  0.2122 -0.5258
 9722SOL    HW129979   3.183   0.711   7.301  0.2452 -0.0674 -0.1215
 9722SOL    HW229980   3.227   0.793   7.421  0.7130  0.2160 -0.4851
 9723SOL     OW29981   3.904   6.926   7.893  0.0001 -0.3265  0.1565
 9723SOL    HW129982   3.822   6.963   7.860 -1.4131 -2.9972  0.4846
 9723SOL    HW229983   3.971   6.965   7.837 -1.6325  0.8057 -1.0990
 9724SOL     OW29984   6.613   2.061   3.994 -0.1294  0.3521 -0.0858
 9724SOL    HW129985   6.540   2.029   4.047 -1.8972  2.4897 -1.1102
 9724SOL    HW229986   6.656   2.127   4.049  2.3681 -2.3731  1.3185
 9725SOL     OW29987   7.835   2.445   7.587  0.2210 -0.4635  0.1076
 9725SOL    HW129988   7.892   2.408   7.654 -0.2397 -1.1777  0.1105
 9725SOL    HW229989   7.891   2.505   7.538  0.4313  0.4477  1.4451
 9726SOL     OW29990   2.569   1.024   5.698 -0.0811 -0.0489  0.2413
 9726SOL    HW129991   2.546   1.046   5.788  0.0872  0.4370  0.1693
 9726SOL    HW229992   2.525   0.940   5.682 -3.2731  1.6365 -0.4287
 9727SOL     OW29993   6.761   3.309   3.706 -0.3167  0.2412 -0.0722
 9727SOL    HW129994   6.853   3.297   3.728 -0.4687 -0.1946  0.3454
 9727SOL    HW229995   6.753   3.279   3.616  0.4400  2.6070 -0.9824
 9728SOL     OW29996   4.287   0.651   6.585  0.6077 -0.4403 -0.4681
 9728SOL    HW129997   4.304   0.745   6.591  0.8614 -0.5713  1.1284
 9728SOL    HW229998   4.269   0.624   6.675 -0.8648 -1.6673 -1.1045
 9729SOL     OW29999   6.932   1.700   2.171  0.0385 -0.2134  0.5167
 9729SOL    HW130000   6.922   1.753   2.092  1.9533 -0.4946  0.0591
 9729SOL    HW230001   6.885   1.619   2.152 -0.4710  0.1761  0.1106
 9730SOL     OW30002   0.991   4.244   2.444  0.2902  0.2135 -0.1922
 9730SOL    HW130003   1.085   4.225   2.435  0.3199 -0.9299  2.1597
 9730SOL    HW230004   0.947   4.173   2.398  0.5595  0.4980 -0.8967
 9731SOL     OW30005   3.512   1.009   2.448 -0.7736 -0.8158 -0.1411
 9731SOL    HW130006   3.501   0.945   2.378  1.5603 -0.8851 -0.4911
 9731SOL    HW230007   3.577   0.970   2.506 -0.0479  0.7811  0.1628
 9732SOL     OW30008   2.244   6.253   6.988 -0.1171  0.2350  0.1705
 9732SOL    HW130009   2.326   6.265   6.940 -0.3767  0.2007 -0.2849
 9732SOL    HW230010   2.203   6.339   6.986  0.9005  0.8048  2.2556
 9733SOL     OW30011   5.532   3.661   5.135 -0.3449  0.2454  0.0556
 9733SOL    HW130012   5.508   3.747   5.168 -0.7447 -0.3361  1.3027
 9733SOL    HW230013   5.565   3.678   5.046 -0.3131  1.6812  0.3292
 9734SOL     OW30014   2.747   3.631   7.129 -0.0197  0.2543  0.0912
 9734SOL    HW130015   2.769   3.595   7.214 -0.9396 -0.9978 -0.1760
 9734SOL    HW230016   2.787   3.571   7.066 -1.8539 -0.5298 -0.3627
 9735SOL     OW30017   3.131   2.256   1.380  0.2165 -0.0571 -0.2165
 9735SOL    HW130018   3.153   2.289   1.467  0.6328 -1.0365  0.0577
 9735SOL    HW230019   3.209   2.207   1.352 -0.4028 -0.8576 -0.5773
 9736SOL     OW30020   1.767   4.548   0.258 -0.2439  0.1627  0.0736
 9736SOL    HW130021   1.773   4.471   0.201  0.3610 -0.4653  0.9805
 9736SOL    HW230022   1.753   4.512   0.345  2.9519  0.9523  0.9714
 9737SOL     OW30023   1.773   3.056   1.167  0.2024  0.5085  0.1302
 9737SOL    HW130024   1.709   3.103   1.113 -1.2946 -2.7026 -1.0054
 9737SOL    HW230025   1.839   3.025   1.105  2.2271  2.6145  1.1213
 9738SOL     OW30026   4.660   6.542   5.172 -0.0983 -0.5573  0.0081
 9738SOL    HW130027   4.675   6.448   5.178 -2.1987 -0.8517  1.3071
 9738SOL    HW230028   4.649   6.571   5.263 -1.7073  0.5142 -0.4902
 9739SOL     OW30029   1.290   7.536   1.660  0.4776 -0.0066 -0.1803
 9739SOL    HW130030   1.280   7.443   1.679  0.1013  0.2839  1.1622
 9739SOL    HW230031   1.201   7.572   1.667  0.5867  0.4134 -0.9033
 9740SOL     OW30032   2.482   7.586   5.735 -0.0867  0.1042 -0.5379
 9740SOL    HW130033   2.560   7.532   5.724  0.5287  0.9724 -0.4285
 9740SOL    HW230034   2.515   7.674   5.752 -1.0857  0.4650 -0.4193
 9741SOL     OW30035   7.407   2.179   5.746 -0.0930  0.9747 -0.5209
 9741SOL    HW130036   7.346   2.252   5.752  0.3457  1.2359  1.0134
 9741SOL    HW230037   7.476   2.200   5.809 -0.1193 -0.8956  0.1642
 9742SOL     OW30038   2.287   1.797   5.441  0.3143  0.0071 -0.5085
 9742SOL    HW130039   2.328   1.881   5.420 -0.2052  0.3680 -0.0903
 9742SOL    HW230040   2.200   1.802   5.401  0.0057 -0.0301  0.1439
 9743SOL     OW30041   0.390   6.240   1.742  0.7200  0.1411  0.1450
 9743SOL    HW130042   0.321   6.240   1.808  1.2328  1.3054  0.6990
 9743SOL    HW230043   0.344   6.226   1.660 -0.3202  1.9555  0.3805
 9744SOL     OW30044   0.617   4.108   7.708  0.5379  0.5550 -0.4490
 9744SOL    HW130045   0.657   4.164   7.641 -0.2717 -0.6113 -1.9458
 9744SOL    HW230046   0.577   4.037   7.658 -2.7857  1.2966  1.0599
 9745SOL     OW30047   6.931   6.903   6.925  0.0703  0.1104  0.1088
 9745SOL    HW130048   6.871   6.953   6.982  0.4485 -0.6886  1.2374
 9745SOL    HW230049   6.889   6.817   6.917 -0.4038  0.4884 -1.5353
 9746SOL     OW30050   4.189   0.066   1.712 -0.0344 -0.8346  0.6852
 9746SOL    HW130051   4.233   0.131   1.657 -0.1644  0.2999  1.8775
 9746SOL    HW230052   4.256   0.039   1.775 -0.2828 -1.0902  0.8402
 9747SOL     OW30053   0.292   0.891   2.956  0.5010 -0.1403  0.2197
 9747SOL    HW130054   0.295   0.804   2.997  0.3562 -0.2538 -0.0121
 9747SOL    HW230055   0.199   0.909   2.944  0.4241  0.9891  2.2721
 9748SOL     OW30056   1.063   4.229   3.352  0.0100 -0.1127  0.8317
 9748SOL    HW130057   1.116   4.185   3.419  0.2181  2.0177  2.1498
 9748SOL    HW230058   1.025   4.159   3.301  1.5796 -1.7666  1.8661
 9749SOL     OW30059   4.609   0.498   0.283 -0.8438  0.4179  0.4349
 9749SOL    HW130060   4.591   0.587   0.251 -2.2727  0.2541  0.7455
 9749SOL    HW230061   4.703   0.498   0.301 -0.0864  0.6678 -3.1850
 9750SOL     OW30062   4.696   7.343   7.702 -0.7779 -0.4326  0.0729
 9750SOL    HW130063   4.622   7.337   7.641 -1.0395 -0.5824  0.4030
 9750SOL    HW230064   4.744   7.421   7.675 -1.4728  0.0843  0.3192
 9751SOL     OW30065   4.452   0.877   1.586  0.1106  0.1745 -0.4469
 9751SOL    HW130066   4.512   0.820   1.634 -0.8077  1.7586  2.6579
 9751SOL    HW230067   4.376   0.886   1.643 -0.9210  2.2969 -2.0868
 9752SOL     OW30068   1.421   2.476   5.538  0.6306  0.3200  0.5919
 9752SOL    HW130069   1.396   2.386   5.517  0.8481  0.3660  0.1294
 9752SOL    HW230070   1.343   2.513   5.579 -0.3916  0.7110 -1.5886
 9753SOL     OW30071   7.984   3.711   6.496  0.2018  0.0618 -0.2112
 9753SOL    HW130072   8.078   3.695   6.489 -0.2399 -2.8458  0.1059
 9753SOL    HW230073   7.952   3.706   6.406  0.0158 -1.1306 -0.0776
 9754SOL     OW30074   4.610   6.543   0.061 -0.0388 -0.4931 -0.1550
 9754SOL    HW130075   4.596   6.600   0.137 -0.0903 -0.4078 -0.2296
 9754SOL    HW230076   4.523   6.527   0.027  0.1073  0.6937 -1.0994
 9755SOL     OW30077   4.188   1.418   3.325  0.1463 -0.8635 -0.7069
 9755SOL    HW130078   4.140   1.346   3.366  2.2650 -2.7405 -1.4381
 9755SOL    HW230079   4.264   1.377   3.284  1.3691  1.7722 -1.2312
 9756SOL     OW30080   4.956   0.233   0.546  0.4231  0.2875 -0.3607
 9756SOL    HW130081   4.992   0.300   0.488 -1.2817  0.8679 -0.8042
 9756SOL    HW230082   4.910   0.283   0.614  0.6700 -0.4161  0.3334
 9757SOL     OW30083   3.734   3.371   3.549  0.5737  0.3622 -0.3740
 9757SOL    HW130084   3.804   3.313   3.520 -0.3189 -0.9384  0.0478
 9757SOL    HW230085   3.766   3.459   3.528  2.2537 -0.2182 -0.3339
 9758SOL     OW30086   4.786   2.416   5.519  0.4102  0.3257 -0.3948
 9758SOL    HW130087   4.742   2.361   5.454  1.6922 -1.2082  0.0123
 9758SOL    HW230088   4.856   2.460   5.470 -0.7378  1.7849 -0.7644
 9759SOL     OW30089   6.676   6.459   7.453 -0.3619  0.0195 -0.2757
 9759SOL    HW130090   6.764   6.432   7.481  0.0864  1.2087 -0.4791
 9759SOL    HW230091   6.670   6.550   7.481 -1.3224  0.1047 -0.7621
 9760SOL     OW30092   0.803   7.930   2.147 -0.4551  0.0574  0.1536
 9760SOL    HW130093   0.838   8.011   2.110  0.7090 -0.9352 -1.0107
 9760SOL    HW230094   0.711   7.948   2.162 -0.3370  1.4146 -0.6404
 9761SOL     OW30095   7.645   5.352   6.424 -0.1645 -0.1491  0.3792
 9761SOL    HW130096   7.633   5.391   6.337  1.7101 -1.3384 -0.4478
 9761SOL    HW230097   7.649   5.427   6.483 -2.0819  0.6522 -0.4670
 9762SOL     OW30098   2.607   7.243   4.439  0.6450  0.4749 -0.0054
 9762SOL    HW130099   2.591   7.257   4.345  2.4703  0.9443 -0.2597
 9762SOL    HW230100   2.641   7.327   4.469  0.4134  0.2042  1.0042
 9763SOL     OW30101   6.801   0.968   5.708  0.2944  0.5687  0.3690
 9763SOL    HW130102   6.859   1.017   5.649  1.5622 -0.4757  0.7337
 9763SOL    HW230103   6.860   0.922   5.767 -0.9617  1.2853  2.2323
 9764SOL     OW30104   6.540   6.200   4.972 -0.7228  0.6723  0.0849
 9764SOL    HW130105   6.531   6.255   5.051 -0.4106 -0.5390  0.9806
 9764SOL    HW230106   6.577   6.258   4.906 -0.6911  1.6276  0.9317
 9765SOL     OW30107   0.603   4.493   7.520 -0.1193 -0.5407 -0.3129
 9765SOL    HW130108   0.532   4.541   7.477  0.0050 -1.0981 -1.1427
 9765SOL    HW230109   0.580   4.495   7.613 -0.5478  0.3999 -0.4339
 9766SOL     OW30110   3.117   5.394   2.958 -0.0323  0.0381  0.3043
 9766SOL    HW130111   3.042   5.406   3.016 -0.6026 -1.1911 -0.1661
 9766SOL    HW230112   3.193   5.416   3.013 -0.8412  4.2732 -0.0682
 9767SOL     OW30113   0.622   3.153   2.323 -0.0595  0.5142  0.2156
 9767SOL    HW130114   0.625   3.136   2.417  0.0365  1.5832  0.4148
 9767SOL    HW230115   0.614   3.066   2.283  1.5254 -0.0821  1.1387
 9768SOL     OW30116   3.785   0.164   1.151 -0.6143 -0.1731 -0.2119
 9768SOL    HW130117   3.861   0.217   1.172 -0.3038 -0.5746 -0.3172
 9768SOL    HW230118   3.726   0.175   1.226  0.8765 -2.3440  1.3330
 9769SOL     OW30119   2.275   3.188   4.438 -0.4772 -0.4962  0.5248
 9769SOL    HW130120   2.318   3.237   4.368 -2.6262 -0.1132 -0.5698
 9769SOL    HW230121   2.343   3.131   4.473  0.1027 -2.2740 -3.3095
 9770SOL     OW30122   1.597   6.564   7.040 -0.7668  0.4292 -0.7960
 9770SOL    HW130123   1.624   6.554   6.949 -0.4010 -0.3954 -0.6084
 9770SOL    HW230124   1.511   6.521   7.044  0.0487 -1.1952 -0.3547
 9771SOL     OW30125   1.372   3.533   7.299  0.2708  0.4461  0.2999
 9771SOL    HW130126   1.371   3.595   7.226 -2.6931  1.3521  1.0234
 9771SOL    HW230127   1.332   3.453   7.263  0.7495  0.1786  0.3604
 9772SOL     OW30128   2.594   6.196   0.350 -0.0892  0.3453  0.1957
 9772SOL    HW130129   2.542   6.123   0.318 -1.4600  1.1230  0.6137
 9772SOL    HW230130   2.598   6.257   0.277  0.0872  0.3640  0.2206
 9773SOL     OW30131   5.894   6.735   7.040 -0.4509 -0.3975 -0.1833
 9773SOL    HW130132   5.812   6.686   7.047 -0.7055 -0.3312 -2.3541
 9773SOL    HW230133   5.875   6.806   6.979  0.7714  0.5782  0.5558
 9774SOL     OW30134   4.664   3.657   2.145  0.1353  0.1055 -0.5570
 9774SOL    HW130135   4.569   3.672   2.150 -0.0824 -1.3769  0.2888
 9774SOL    HW230136   4.677   3.615   2.060 -0.3775 -2.1546  0.4262
 9775SOL     OW30137   1.961   4.419   6.561 -0.2851  0.3118 -0.1796
 9775SOL    HW130138   2.018   4.353   6.601  0.3577  0.3090 -1.0790
 9775SOL    HW230139   1.982   4.415   6.467  0.4166  2.3783 -0.1492
 9776SOL     OW30140   1.801   7.485   7.388 -0.6029 -0.4968 -0.1171
 9776SOL    HW130141   1.751   7.555   7.430 -0.7980 -2.2748  2.7477
 9776SOL    HW230142   1.759   7.404   7.418  0.5034 -1.9159 -2.2213
 9777SOL     OW30143   3.109   2.903   3.705 -0.0614  0.3734  0.1514
 9777SOL    HW130144   3.039   2.889   3.641 -0.4907  1.0565  0.4663
 9777SOL    HW230145   3.150   2.984   3.678  0.9442 -0.2821 -0.3243
 9778SOL     OW30146   5.875   2.191   5.476 -0.2224 -0.4470  0.4589
 9778SOL    HW130147   5.947   2.161   5.531  0.9758  1.1832 -0.1952
 9778SOL    HW230148   5.898   2.162   5.388 -0.9463 -0.9029  0.4073
 9779SOL     OW30149   7.224   6.687   5.585 -0.4271  0.0120 -0.6289
 9779SOL    HW130150   7.280   6.754   5.623  1.5483 -1.7111 -0.3513
 9779SOL    HW230151   7.142   6.694   5.632  0.6159  0.5864  1.1439
 9780SOL     OW30152   1.943   1.233   7.181 -0.5151 -0.1958 -0.1710
 9780SOL    HW130153   1.894   1.154   7.202  0.9729 -0.8406  0.9438
 9780SOL    HW230154   1.989   1.212   7.099 -2.0187  0.3915 -1.1887
 9781SOL     OW30155   3.336   7.871   6.358 -0.4323 -0.0644  0.0456
 9781SOL    HW130156   3.311   7.854   6.448 -3.1032 -1.0702 -0.8339
 9781SOL    HW230157   3.356   7.784   6.322  0.2299  0.2885 -0.4482
 9782SOL     OW30158   1.928   5.787   5.209 -0.0382  0.9351 -0.2688
 9782SOL    HW130159   1.852   5.830   5.246 -0.3699 -0.2385  0.4320
 9782SOL    HW230160   2.001   5.815   5.264 -0.2612  0.5353  0.2233
 9783SOL     OW30161   7.892   1.124   2.235  0.2155 -0.1280 -0.1427
 9783SOL    HW130162   7.959   1.057   2.225  0.5126  0.0971  0.3130
 9783SOL    HW230163   7.927   1.182   2.303 -0.4292  0.0029  0.0760
 9784SOL     OW30164   0.729   1.074   1.133  0.0835 -0.0406 -0.1264
 9784SOL    HW130165   0.754   1.070   1.226 -0.1855  0.0192 -0.0518
 9784SOL    HW230166   0.758   0.990   1.098 -2.8575 -1.5161  0.7869
 9785SOL     OW30167   7.949   3.527   0.203  0.2264  0.2716 -0.2663
 9785SOL    HW130168   7.894   3.592   0.158 -2.0766 -0.8712  0.8315
 9785SOL    HW230169   7.951   3.557   0.294  1.9003  0.6053 -0.4030
 9786SOL     OW30170   0.601   5.085   0.695 -0.1106 -0.3492  0.2218
 9786SOL    HW130171   0.513   5.116   0.674 -0.0378 -0.8819 -0.8853
 9786SOL    HW230172   0.634   5.149   0.760 -1.4854 -0.4472  1.0293
 9787SOL     OW30173   6.311   7.970   1.421 -0.3356  0.3228 -0.3035
 9787SOL    HW130174   6.294   7.922   1.502 -0.2542 -0.6890 -0.8769
 9787SOL    HW230175   6.355   7.907   1.364 -0.2300  1.0765 -1.0699
 9788SOL     OW30176   4.102   3.125   0.456  0.1690  0.0804 -0.0014
 9788SOL    HW130177   4.165   3.061   0.489 -0.3754 -1.2703 -1.5369
 9788SOL    HW230178   4.044   3.142   0.530 -0.6274 -2.4089 -0.0089
 9789SOL     OW30179   4.142   6.245   1.531 -0.0937 -0.2499  0.7795
 9789SOL    HW130180   4.145   6.226   1.437  0.2484 -1.3760  1.0202
 9789SOL    HW230181   4.104   6.333   1.535 -0.2746 -0.2553 -0.4049
 9790SOL     OW30182   2.391   0.846   3.642  0.2487  0.2804 -0.0275
 9790SOL    HW130183   2.391   0.886   3.728 -1.7576 -0.0276  0.1330
 9790SOL    HW230184   2.477   0.803   3.635  0.0430 -0.5234  2.1984
 9791SOL     OW30185   1.501   0.594   1.879  0.5838 -0.0215 -0.4764
 9791SOL    HW130186   1.549   0.564   1.956  0.3890  2.0767  0.4856
 9791SOL    HW230187   1.432   0.650   1.914  0.4309  0.8850 -2.1904
 9792SOL     OW30188   5.088   6.532   7.284  0.1421  0.6109  0.4533
 9792SOL    HW130189   5.115   6.564   7.370  0.1219  0.0485  0.6727
 9792SOL    HW230190   5.112   6.602   7.224 -1.8610  1.9897  1.1868
 9793SOL     OW30191   2.282   3.789   1.475  0.3188 -0.8154 -0.0049
 9793SOL    HW130192   2.313   3.767   1.387  1.2342  0.9823 -0.1555
 9793SOL    HW230193   2.355   3.767   1.533  0.5822  0.1303  0.0355
 9794SOL     OW30194   2.363   1.880   6.767  0.2583 -0.4499 -0.1063
 9794SOL    HW130195   2.391   1.879   6.859 -0.2466 -0.5153  0.0509
 9794SOL    HW230196   2.367   1.972   6.742 -2.2723 -0.0531  0.8234
 9795SOL     OW30197   1.350   2.971   5.704 -0.3925 -0.1166  0.8154
 9795SOL    HW130198   1.267   2.928   5.687 -0.5630  0.0909  1.1160
 9795SOL    HW230199   1.384   2.993   5.617 -0.5626 -0.3687  0.6856
 9796SOL     OW30200   6.316   1.183   0.821  0.0441 -0.1343  0.3661
 9796SOL    HW130201   6.385   1.159   0.760  2.2930  2.4924  1.7523
 9796SOL    HW230202   6.235   1.165   0.774  1.7048 -0.0885 -2.6271
 9797SOL     OW30203   5.737   2.623   2.163 -0.0979 -0.4748 -0.0310
 9797SOL    HW130204   5.794   2.571   2.106  2.2067  1.8367  0.0157
 9797SOL    HW230205   5.679   2.560   2.204  2.0766 -2.8874 -0.5522
 9798SOL     OW30206   4.379   3.977   0.050  0.4866 -0.3773  0.5403
 9798SOL    HW130207   4.337   3.948  -0.030 -0.2055 -0.4362  0.9195
 9798SOL    HW230208   4.438   3.905   0.074  2.4540  0.6290 -1.1657
 9799SOL     OW30209   4.593   1.975   1.487  0.0123  0.4201 -0.1083
 9799SOL    HW130210   4.614   1.884   1.509  0.4911  0.6823  0.5620
 9799SOL    HW230211   4.609   2.023   1.568  0.4926  1.2148 -0.6625
 9800SOL     OW30212   1.070   0.396   0.698  0.3282  0.1695  0.7007
 9800SOL    HW130213   1.115   0.322   0.657  1.0034  1.0881 -0.2504
 9800SOL    HW230214   1.088   0.387   0.791  1.1003 -0.3924  0.5024
 9801SOL     OW30215   7.463   2.957   6.321 -0.0156 -0.1270 -0.2008
 9801SOL    HW130216   7.386   2.979   6.374  0.3125  0.9568 -0.1624
 9801SOL    HW230217   7.428   2.942   6.233 -0.2287  0.7800 -0.2798
 9802SOL     OW30218   1.315   0.599   2.598 -0.0332 -0.1618 -0.0376
 9802SOL    HW130219   1.397   0.573   2.641  0.2313  1.0985  0.2449
 9802SOL    HW230220   1.276   0.517   2.569  1.1616 -0.8068  0.1406
 9803SOL     OW30221   1.457   2.299   4.691  0.4255 -0.8934  0.1722
 9803SOL    HW130222   1.474   2.386   4.657 -4.1328 -0.1864 -0.5821
 9803SOL    HW230223   1.466   2.241   4.615 -0.5258 -0.5253 -0.2283
 9804SOL     OW30224   3.926   5.258   3.938 -0.2806  0.2520  0.2977
 9804SOL    HW130225   3.913   5.163   3.928 -1.9724  0.4356  0.7570
 9804SOL    HW230226   3.936   5.290   3.849 -4.2994  0.2825 -0.2133
 9805SOL     OW30227   0.720   1.770   5.720  0.2324 -0.6141 -0.1783
 9805SOL    HW130228   0.719   1.680   5.753 -3.0733 -0.4721  0.3008
 9805SOL    HW230229   0.651   1.814   5.769  1.5577  2.1187 -0.6603
 9806SOL     OW30230   7.890   2.702   7.077  0.1306  0.0904 -0.3293
 9806SOL    HW130231   7.848   2.782   7.107 -0.9248 -0.6833  0.3013
 9806SOL    HW230232   7.982   2.725   7.066  0.0808  1.0464  1.1386
 9807SOL     OW30233   3.928   7.820   6.431  0.3988 -0.1201  0.4788
 9807SOL    HW130234   3.874   7.817   6.353  2.2844 -5.0752 -0.8057
 9807SOL    HW230235   4.003   7.874   6.406 -0.2294  0.4219 -0.2559
 9808SOL     OW30236   7.919   2.128   5.552 -0.0788  0.5763  0.4619
 9808SOL    HW130237   7.845   2.181   5.583  0.4134 -0.0244  2.7737
 9808SOL    HW230238   7.879   2.063   5.495 -1.1902  0.9691  0.7788
 9809SOL     OW30239   0.742   6.714   0.328 -0.3703 -0.2063 -0.4647
 9809SOL    HW130240   0.835   6.694   0.318 -0.1360  0.8144 -0.3644
 9809SOL    HW230241   0.699   6.662   0.259  0.2016 -1.1615 -0.1101
 9810SOL     OW30242   3.957   2.189   3.952  0.1509  0.1557  0.7946
 9810SOL    HW130243   3.912   2.249   4.011 -1.0097  0.2992 -0.2049
 9810SOL    HW230244   4.032   2.238   3.920 -0.1378  0.6608  0.8913
 9811SOL     OW30245   7.720   6.699   1.441 -0.4638 -0.4065 -0.1383
 9811SOL    HW130246   7.765   6.641   1.502 -0.7509 -0.7711 -0.2769
 9811SOL    HW230247   7.783   6.770   1.426  1.2580 -2.3531 -2.5621
 9812SOL     OW30248   2.098   1.068   7.705  0.0781  0.3822 -0.2821
 9812SOL    HW130249   2.107   1.141   7.644  0.0078  0.4320 -0.2333
 9812SOL    HW230250   2.010   1.034   7.689  0.2955 -0.0104 -0.6555
 9813SOL     OW30251   4.702   6.105   5.327  0.0958  0.8014  0.1704
 9813SOL    HW130252   4.625   6.110   5.271 -0.4769 -0.8241  0.7635
 9813SOL    HW230253   4.675   6.048   5.399  2.7573 -2.3037 -1.1534
 9814SOL     OW30254   1.100   6.290   6.618 -0.8368  0.3675 -0.3483
 9814SOL    HW130255   1.154   6.317   6.543 -2.0180  0.1559 -1.2869
 9814SOL    HW230256   1.022   6.346   6.613 -0.5403  0.9583  1.2370
 9815SOL     OW30257   2.956   5.234   3.383 -0.5644 -0.7649 -0.7732
 9815SOL    HW130258   2.976   5.297   3.452 -0.8787 -0.1269 -1.2694
 9815SOL    HW230259   2.971   5.149   3.425  0.5120 -0.3614 -0.3111
 9816SOL     OW30260   1.640   7.641   3.114 -0.1629 -0.1230 -0.3107
 9816SOL    HW130261   1.665   7.731   3.134 -0.5921 -0.2965  0.9991
 9816SOL    HW230262   1.603   7.646   3.025  1.7584  0.6225 -1.0992
 9817SOL     OW30263   3.527   3.032   7.582  0.0355  0.3064 -0.0526
 9817SOL    HW130264   3.590   3.023   7.654 -0.3823  1.3535  0.4423
 9817SOL    HW230265   3.442   3.038   7.625 -0.3656 -0.5986 -0.7083
 9818SOL     OW30266   0.743   1.955   5.966  0.0891 -0.5911 -0.4546
 9818SOL    HW130267   0.650   1.974   5.965 -0.3387 -2.5443 -0.2714
 9818SOL    HW230268   0.760   1.919   6.053  0.7240 -1.5654 -0.9680
 9819SOL     OW30269   4.387   1.365   0.247  0.3321  0.0835  0.1841
 9819SOL    HW130270   4.388   1.269   0.258 -1.9173  0.2028  1.7272
 9819SOL    HW230271   4.419   1.398   0.331 -0.6844  0.7091  0.3286
 9820SOL     OW30272   5.686   1.202   3.473 -0.0560  0.1452  0.0429
 9820SOL    HW130273   5.603   1.249   3.468 -0.5718 -0.7962 -0.4578
 9820SOL    HW230274   5.747   1.257   3.425 -0.3428  0.9445  0.5902
 9821SOL     OW30275   7.236   6.400   5.694 -0.1855  0.7106 -0.3657
 9821SOL    HW130276   7.228   6.399   5.790  2.0540 -0.6163 -0.1466
 9821SOL    HW230277   7.214   6.489   5.669 -0.4002  1.1900  1.4347
 9822SOL     OW30278   1.729   0.509   0.436  0.1224  0.4366 -0.3944
 9822SOL    HW130279   1.726   0.545   0.348  0.1361 -0.8096 -0.9151
 9822SOL    HW230280   1.682   0.426   0.430  0.9580 -0.1272  0.5402
 9823SOL     OW30281   0.936   6.739   5.392  0.0137  0.1681  0.2422
 9823SOL    HW130282   0.881   6.817   5.386 -1.3903 -0.9002 -1.0579
 9823SOL    HW230283   0.955   6.730   5.485 -1.7529  0.7276  0.6722
 9824SOL     OW30284   5.273   4.373   5.554  0.1965  0.7471 -0.1966
 9824SOL    HW130285   5.186   4.403   5.525  0.7929  1.1594 -1.5938
 9824SOL    HW230286   5.254   4.311   5.625 -1.2950  0.0551 -1.1574
 9825SOL     OW30287   7.482   3.291   6.665  0.0127  0.5739 -0.1057
 9825SOL    HW130288   7.517   3.380   6.662 -0.5167  0.8097  0.6082
 9825SOL    HW230289   7.537   3.241   6.605  0.2644  1.4033 -0.5663
 9826SOL     OW30290   4.764   3.028   7.917 -0.3580  0.4007  0.2483
 9826SOL    HW130291   4.706   3.085   7.866 -0.9421 -0.8458 -0.4971
 9826SOL    HW230292   4.740   3.044   8.008 -1.1537  0.6697 -0.0049
 9827SOL     OW30293   2.523   1.707   4.830 -0.2528  0.0067  0.0652
 9827SOL    HW130294   2.563   1.621   4.841  0.1002  0.3295  1.3655
 9827SOL    HW230295   2.491   1.707   4.740  0.2128 -1.2861 -0.1108
 9828SOL     OW30296   1.639   7.439   5.454  0.2141 -0.2132  0.0294
 9828SOL    HW130297   1.727   7.412   5.482  0.2257  0.0712  0.2788
 9828SOL    HW230298   1.649   7.532   5.434 -0.5501  0.3764  2.2559
 9829SOL     OW30299   5.349   2.468   0.868 -0.0826  0.0110 -0.1141
 9829SOL    HW130300   5.321   2.529   0.936 -2.0160  0.0954 -0.9562
 9829SOL    HW230301   5.395   2.523   0.804 -0.5016  0.3307 -0.1402
 9830SOL     OW30302   2.519   1.447   5.030 -0.3049 -0.0816 -0.0362
 9830SOL    HW130303   2.556   1.493   5.105 -1.0838  0.6123 -0.0803
 9830SOL    HW230304   2.587   1.383   5.006  0.6161  0.7725  0.2636
 9831SOL     OW30305   7.722   0.909   6.953 -0.1455 -0.2096 -0.2588
 9831SOL    HW130306   7.737   0.990   6.906  2.0453 -0.6267 -0.3204
 9831SOL    HW230307   7.809   0.874   6.970 -0.9099 -0.6222  3.1543
 9832SOL     OW30308   1.940   3.255   7.739  0.4860  0.6777  0.6807
 9832SOL    HW130309   1.978   3.178   7.697 -0.5602 -0.4576  1.7871
 9832SOL    HW230310   1.880   3.291   7.674  2.1277  1.4988 -0.4340
 9833SOL     OW30311   6.736   5.063   3.701  0.1448 -0.7254  0.0458
 9833SOL    HW130312   6.752   5.049   3.794 -0.2125  0.6093  0.3195
 9833SOL    HW230313   6.756   5.156   3.687 -1.4920 -0.4829 -0.8303
 9834SOL     OW30314   7.148   7.869   1.795 -0.3291  0.1533  0.1851
 9834SOL    HW130315   7.118   7.875   1.704  0.7658 -0.4472 -0.2280
 9834SOL    HW230316   7.069   7.850   1.846 -0.4092 -3.3195 -1.1061
 9835SOL     OW30317   5.614   2.966   7.733  0.9050  0.3201  0.5294
 9835SOL    HW130318   5.644   2.935   7.819 -0.0294  0.5713  0.9468
 9835SOL    HW230319   5.693   2.964   7.679  1.2897 -0.8473  1.1034
 9836SOL     OW30320   5.472   1.384   1.399  0.0684  0.2974  0.6921
 9836SOL    HW130321   5.490   1.474   1.428  1.0968  1.0550 -2.1738
 9836SOL    HW230322   5.427   1.344   1.474 -0.3765  3.1701  2.0478
 9837SOL     OW30323   3.186   7.292   1.472 -0.3320  0.1773 -0.0412
 9837SOL    HW130324   3.250   7.276   1.403 -1.8586 -0.6669 -1.3000
 9837SOL    HW230325   3.204   7.225   1.538  0.8040  0.6672  0.1557
 9838SOL     OW30326   3.336   5.067   5.301  0.3424  0.0358 -0.8377
 9838SOL    HW130327   3.288   5.147   5.321  1.9453  0.9437 -0.5813
 9838SOL    HW230328   3.281   5.023   5.235 -0.2240  1.6488 -1.4777
 9839SOL     OW30329   5.591   1.447   6.176  0.1139 -0.3863 -0.3424
 9839SOL    HW130330   5.530   1.382   6.211  0.7646 -0.5064  0.5881
 9839SOL    HW230331   5.549   1.531   6.192  0.3544 -0.4480  0.6345
 9840SOL     OW30332   0.332   4.971   4.215 -0.1878 -0.1877  0.3635
 9840SOL    HW130333   0.236   4.973   4.218 -0.2069 -1.3083  0.7936
 9840SOL    HW230334   0.360   4.996   4.303 -0.0156  2.4495 -0.3860
 9841SOL     OW30335   2.419   6.054   3.659 -0.3156  0.3211 -0.4459
 9841SOL    HW130336   2.392   6.034   3.569  0.5825  1.1364 -0.9113
 9841SOL    HW230337   2.497   6.108   3.648 -1.3338  2.0550  0.8114
 9842SOL     OW30338   1.073   6.633   7.497  0.8006 -0.1907 -0.1242
 9842SOL    HW130339   1.090   6.705   7.437 -0.5978 -1.5967 -2.2702
 9842SOL    HW230340   0.986   6.651   7.532 -0.0102 -1.3717 -1.4929
 9843SOL     OW30341   7.299   5.166   3.918 -0.4700 -0.3395 -0.1987
 9843SOL    HW130342   7.279   5.186   4.010  0.2078 -0.2374 -0.0658
 9843SOL    HW230343   7.215   5.171   3.873 -0.5201  1.5653  0.0691
 9844SOL     OW30344   1.998   7.822   6.735 -0.3131 -0.3288 -0.4790
 9844SOL    HW130345   1.905   7.801   6.734 -0.6035  0.9438 -1.2775
 9844SOL    HW230346   2.031   7.785   6.653 -0.5398  1.0418 -1.1984
 9845SOL     OW30347   6.947   6.370   7.838  0.0845  0.1082 -0.0812
 9845SOL    HW130348   6.915   6.307   7.901  1.6108  0.6496  1.2797
 9845SOL    HW230349   7.040   6.350   7.829 -0.1350 -0.0331 -2.2490
 9846SOL     OW30350   1.703   5.758   4.499  0.3517  0.3799 -0.0927
 9846SOL    HW130351   1.767   5.792   4.437 -0.7031  2.3891 -0.1359
 9846SOL    HW230352   1.752   5.748   4.581  0.9376  1.0826 -0.3500
 9847SOL     OW30353   1.344   4.719   2.835 -0.8944  0.2491 -0.0627
 9847SOL    HW130354   1.404   4.645   2.831 -1.3179 -0.1678  1.0718
 9847SOL    HW230355   1.257   4.680   2.833 -1.1666  0.8954 -2.5872
 9848SOL     OW30356   2.756   4.653   7.717 -0.3397  0.7266  0.0164
 9848SOL    HW130357   2.802   4.609   7.789  0.1624  1.9138  0.4375
 9848SOL    HW230358   2.663   4.638   7.736 -0.2159  1.1152  0.9964
 9849SOL     OW30359   0.386   7.985   6.954 -0.9284  0.8433  0.3621
 9849SOL    HW130360   0.432   7.911   6.914 -2.8287 -0.6625  0.8960
 9849SOL    HW230361   0.439   8.062   6.930  1.6337 -0.7820  0.6938
 9850SOL     OW30362   6.575   4.894   4.525  0.0410  0.1436 -0.6443
 9850SOL    HW130363   6.642   4.857   4.583 -0.7812  1.5204  1.2126
 9850SOL    HW230364   6.513   4.822   4.512  0.2853 -0.2109  0.0968
 9851SOL     OW30365   1.013   3.809   6.772  0.3046 -0.6678 -0.2742
 9851SOL    HW130366   0.951   3.882   6.764  0.2692 -0.5060  1.3082
 9851SOL    HW230367   0.988   3.749   6.702  1.0800  1.3784 -2.3588
 9852SOL     OW30368   2.399   7.608   4.379  0.0927 -0.2009  0.3577
 9852SOL    HW130369   2.416   7.691   4.333  0.8416 -0.4692  0.1412
 9852SOL    HW230370   2.304   7.607   4.391  0.0834  0.7416  0.4540
 9853SOL     OW30371   0.309   2.568   7.194  0.3246 -0.2835  0.2963
 9853SOL    HW130372   0.294   2.520   7.275  1.3371 -0.2984  0.4735
 9853SOL    HW230373   0.388   2.619   7.210 -0.9694  1.7870  0.2547
 9854SOL     OW30374   2.675   2.223   3.452 -0.3277  0.1480 -0.2543
 9854SOL    HW130375   2.739   2.165   3.410 -0.6816  0.3068 -1.0067
 9854SOL    HW230376   2.594   2.208   3.404 -0.8665 -0.0673  0.7175
 9855SOL     OW30377   3.971   1.410   0.118  0.5028  0.4400 -0.1276
 9855SOL    HW130378   3.892   1.462   0.133  0.0210 -0.0995 -0.7420
 9855SOL    HW230379   4.011   1.448   0.040 -0.6227 -0.9901 -1.4390
 9856SOL     OW30380   6.540   6.208   0.188 -0.5330  0.0717 -0.2144
 9856SOL    HW130381   6.451   6.172   0.187 -0.9307  1.0460 -0.7619
 9856SOL    HW230382   6.529   6.299   0.164  0.5655  0.3448  0.2869
 9857SOL     OW30383   7.898   7.890   0.278  0.3611  0.1120 -0.2706
 9857SOL    HW130384   7.969   7.826   0.276 -0.2774 -0.6701  1.1067
 9857SOL    HW230385   7.924   7.951   0.347 -1.5398 -1.6966  2.1373
 9858SOL     OW30386   7.138   7.006   4.398 -0.2606  0.0279 -0.0858
 9858SOL    HW130387   7.089   7.019   4.479 -0.8670  2.0965 -0.7471
 9858SOL    HW230388   7.230   7.005   4.425 -0.5369 -1.8566  0.9057
 9859SOL     OW30389   0.010   4.718   5.207 -0.1750  0.0270  0.2922
 9859SOL    HW130390   0.073   4.662   5.252 -0.0579 -0.2307 -0.1791
 9859SOL    HW230391  -0.050   4.656   5.164 -0.0489  0.2616 -0.2237
 9860SOL     OW30392   6.794   7.973   4.430  0.6537 -0.2742 -0.2163
 9860SOL    HW130393   6.816   7.899   4.486 -0.3832  1.1067  2.0636
 9860SOL    HW230394   6.853   8.043   4.457  0.3143  0.3390 -1.0167
 9861SOL     OW30395   1.213   1.605   3.682  1.0362  0.0815 -0.5774
 9861SOL    HW130396   1.146   1.568   3.739  1.5907 -0.1936 -0.1018
 9861SOL    HW230397   1.167   1.625   3.600  0.8743 -2.3392 -1.1195
 9862SOL     OW30398   5.725   4.801   5.844  0.8569  0.6604 -0.1965
 9862SOL    HW130399   5.686   4.737   5.784 -1.1713  1.0417  0.6586
 9862SOL    HW230400   5.758   4.747   5.916 -0.6913  0.5101  0.4395
 9863SOL     OW30401   1.448   4.131   2.242 -0.2080 -0.0021 -0.2912
 9863SOL    HW130402   1.470   4.041   2.264 -0.0297 -0.0783 -0.7792
 9863SOL    HW230403   1.424   4.128   2.149 -1.1690  0.2784 -0.0588
 9864SOL     OW30404   6.253   7.206   0.622  0.2065 -0.4602  0.0207
 9864SOL    HW130405   6.325   7.158   0.581  1.8490  1.4351  0.6892
 9864SOL    HW230406   6.220   7.263   0.552 -0.2637 -0.8412 -0.0821
 9865SOL     OW30407   0.936   5.200   5.470 -0.5776  0.1159 -0.4333
 9865SOL    HW130408   0.981   5.155   5.541  1.1037  0.6860 -1.1044
 9865SOL    HW230409   0.918   5.131   5.406 -0.4939 -0.0804 -0.2448
 9866SOL     OW30410   2.354   7.750   6.841 -0.7330 -0.0341  0.4367
 9866SOL    HW130411   2.429   7.698   6.869 -1.3550 -1.2088 -0.0017
 9866SOL    HW230412   2.363   7.755   6.745 -1.2815 -0.3279  0.3614
 9867SOL     OW30413   1.356   0.146   2.651  0.5867  0.1261  0.2201
 9867SOL    HW130414   1.427   0.182   2.704  0.9848  0.6688 -0.6663
 9867SOL    HW230415   1.311   0.085   2.709  1.0108  0.7152  1.1751
 9868SOL     OW30416   7.422   5.244   5.929 -0.1358  0.4873 -0.1235
 9868SOL    HW130417   7.498   5.225   5.984 -1.0866 -0.2688  0.9481
 9868SOL    HW230418   7.375   5.312   5.976 -0.2979  0.7168 -0.6201
 9869SOL     OW30419   2.999   4.281   7.651  0.1321 -0.6432 -0.2335
 9869SOL    HW130420   2.971   4.324   7.732  0.2325 -0.7426 -0.1458
 9869SOL    HW230421   3.090   4.256   7.667 -0.1542 -1.5642 -0.0012
 9870SOL     OW30422   0.877   3.830   3.989 -0.1257  0.4756 -0.0942
 9870SOL    HW130423   0.796   3.850   3.943  0.9644  3.2590 -0.9018
 9870SOL    HW230424   0.932   3.907   3.975  2.2560 -0.9128  1.3389
 9871SOL     OW30425   2.206   1.660   5.162 -0.2384 -0.4814  0.5063
 9871SOL    HW130426   2.225   1.731   5.100 -0.3837 -0.7492  0.1601
 9871SOL    HW230427   2.138   1.696   5.218  1.2640  0.5022  1.7721
 9872SOL     OW30428   7.296   7.368   6.763 -0.2109  0.2927 -0.7158
 9872SOL    HW130429   7.380   7.354   6.720  0.4202  0.0903  0.5582
 9872SOL    HW230430   7.296   7.461   6.787 -0.0749  0.1518 -0.1580
 9873SOL     OW30431   2.872   3.273   0.750 -0.1533 -0.1520  0.2691
 9873SOL    HW130432   2.848   3.328   0.675  2.8687  1.3250  0.2810
 9873SOL    HW230433   2.847   3.324   0.827  0.0100 -0.0699  0.2682
 9874SOL     OW30434   5.843   6.489   7.822 -0.1538 -0.5563  0.3913
 9874SOL    HW130435   5.794   6.516   7.899 -0.9353  1.6198 -0.8237
 9874SOL    HW230436   5.935   6.500   7.846 -0.3932  0.1027  1.0118
 9875SOL     OW30437   0.679   3.558   5.672 -0.7029 -0.0549  0.0237
 9875SOL    HW130438   0.686   3.467   5.701 -0.1474 -0.0147  0.0216
 9875SOL    HW230439   0.711   3.557   5.581 -1.6402 -0.0344 -0.3100
 9876SOL     OW30440   4.109   7.190   7.222  0.2227 -0.1156  0.0577
 9876SOL    HW130441   4.114   7.268   7.166  0.0205 -0.3216 -0.2492
 9876SOL    HW230442   4.110   7.224   7.311 -1.1408  0.3091 -0.0888
 9877SOL     OW30443   4.127   7.308   5.982 -0.0925 -0.2430  0.6471
 9877SOL    HW130444   4.058   7.313   6.048 -1.2637  0.9471 -0.6232
 9877SOL    HW230445   4.190   7.376   6.007  0.7644 -1.4878  1.9419
 9878SOL     OW30446   7.245   6.230   4.993  0.1268 -0.3389  0.4895
 9878SOL    HW130447   7.239   6.156   4.934 -1.3151 -1.4116  1.9158
 9878SOL    HW230448   7.316   6.207   5.053  0.1535 -0.2406  0.4945
 9879SOL     OW30449   5.929   1.831   1.403  0.0010  0.8609 -0.9311
 9879SOL    HW130450   5.912   1.777   1.327 -1.0395  0.5718 -0.5022
 9879SOL    HW230451   5.842   1.851   1.439  0.3033  3.3448 -1.4510
 9880SOL     OW30452   6.089   7.294   4.732 -0.7012  0.3159  0.2705
 9880SOL    HW130453   6.170   7.244   4.733 -1.6073 -1.1900  0.6354
 9880SOL    HW230454   6.051   7.277   4.646 -0.5646  1.1589  0.0332
 9881SOL     OW30455   5.367   4.527   0.446  0.3628 -0.4504 -0.3058
 9881SOL    HW130456   5.417   4.512   0.526  0.3251 -0.5617 -0.3038
 9881SOL    HW230457   5.278   4.500   0.469  0.2453 -0.0081 -0.2243
 9882SOL     OW30458   6.633   6.129   7.916  0.1289 -0.0421 -0.5454
 9882SOL    HW130459   6.684   6.058   7.954  1.8778  1.6271  0.3370
 9882SOL    HW230460   6.589   6.170   7.990  0.3112  0.7045 -0.8443
 9883SOL     OW30461   3.271   4.373   0.330 -0.0410 -0.3336 -0.1528
 9883SOL    HW130462   3.273   4.428   0.409  1.1579 -0.0379 -0.3805
 9883SOL    HW230463   3.342   4.407   0.276 -0.3359 -1.0734 -1.0093
 9884SOL     OW30464   2.441   1.651   2.578 -0.3523  0.2536  0.4664
 9884SOL    HW130465   2.470   1.687   2.662  1.9577  4.9499 -2.0961
 9884SOL    HW230466   2.519   1.655   2.523 -1.7574 -2.9316 -1.8873
 9885SOL     OW30467   5.931   6.750   5.985 -0.1553 -0.4358  1.0985
 9885SOL    HW130468   5.995   6.813   6.015  0.7836 -1.0281  0.3597
 9885SOL    HW230469   5.906   6.701   6.063  2.1148 -1.8306  0.9973
 9886SOL     OW30470   2.805   1.808   1.804  0.5335 -0.3857  0.1293
 9886SOL    HW130471   2.733   1.865   1.776  0.0615 -0.6545  0.7726
 9886SOL    HW230472   2.884   1.857   1.781  0.1368  0.7146  1.0023
 9887SOL     OW30473   2.204   1.701   6.645 -0.3689  0.0929 -0.2756
 9887SOL    HW130474   2.229   1.688   6.554 -0.0930  0.5068 -0.2601
 9887SOL    HW230475   2.273   1.757   6.681  0.2459 -1.1486  0.5331
 9888SOL     OW30476   2.648   2.102   1.662  0.9564  0.1379  0.7059
 9888SOL    HW130477   2.590   2.177   1.674  1.0965  0.2226  0.8503
 9888SOL    HW230478   2.594   2.026   1.685  0.8564  0.2027  0.6881
 9889SOL     OW30479   2.377   1.896   3.758 -0.4298  0.0441  0.4428
 9889SOL    HW130480   2.442   1.865   3.694 -1.7157  0.1509 -0.9300
 9889SOL    HW230481   2.353   1.983   3.727 -0.9269  0.1685  1.1859
 9890SOL     OW30482   3.640   6.941   5.660 -0.3270 -0.2754  0.1515
 9890SOL    HW130483   3.566   6.891   5.694 -1.2943  0.3863 -0.9475
 9890SOL    HW230484   3.663   6.898   5.578 -0.4480  0.3861 -0.2411
 9891SOL     OW30485   4.342   0.276   6.831 -0.0741  0.4533  0.1316
 9891SOL    HW130486   4.414   0.308   6.885 -0.0267 -1.2376  1.1308
 9891SOL    HW230487   4.375   0.280   6.742  0.5574  1.4948  0.4069
 9892SOL     OW30488   0.663   4.426   7.002  0.0523 -0.9326 -0.1362
 9892SOL    HW130489   0.570   4.412   6.988 -0.1567  0.3630 -0.1502
 9892SOL    HW230490   0.676   4.412   7.096 -0.6971  1.6291  0.3815
 9893SOL     OW30491   3.465   3.950   5.684  0.1861 -0.1310 -0.3240
 9893SOL    HW130492   3.387   3.895   5.692 -0.2185  0.3653 -0.8474
 9893SOL    HW230493   3.466   4.003   5.764  0.1379 -0.3376 -0.1890
 9894SOL     OW30494   2.356   7.848   6.295 -0.1075  0.8837 -0.5466
 9894SOL    HW130495   2.441   7.892   6.296 -0.5174  1.6667  0.4739
 9894SOL    HW230496   2.300   7.901   6.352 -0.4115 -1.3119  1.2802
 9895SOL     OW30497   3.271   2.679   1.732  0.3146  0.6271  0.1174
 9895SOL    HW130498   3.214   2.711   1.662 -3.5065 -0.3447  2.6413
 9895SOL    HW230499   3.227   2.706   1.813  2.5619 -1.6706  2.1917
 9896SOL     OW30500   2.148   1.924   2.842 -0.2903 -0.2343 -0.2113
 9896SOL    HW130501   2.169   1.927   2.748  0.5572 -1.0086 -0.0534
 9896SOL    HW230502   2.189   2.002   2.878 -4.2638  2.4992 -1.1600
 9897SOL     OW30503   4.172   2.206   6.172 -0.1627 -0.1139 -0.9327
 9897SOL    HW130504   4.200   2.123   6.212  0.5432  0.2266 -0.7031
 9897SOL    HW230505   4.176   2.269   6.244 -2.3315 -0.2095 -0.6993
 9898SOL     OW30506   4.800   3.118   1.020 -0.2763  0.5910 -0.1378
 9898SOL    HW130507   4.742   3.044   1.003  0.9495 -0.2703 -0.6199
 9898SOL    HW230508   4.783   3.178   0.948  0.0540 -0.0445 -0.7491
 9899SOL     OW30509   6.842   3.094   5.377  0.0331  0.1802  0.1618
 9899SOL    HW130510   6.828   3.187   5.396  0.6592  0.0420  1.3744
 9899SOL    HW230511   6.857   3.054   5.463 -0.3078 -1.0582 -0.3424
 9900SOL     OW30512   6.400   4.127   1.466  0.0638 -0.1009  0.5761
 9900SOL    HW130513   6.462   4.105   1.535 -0.0663  0.9440  1.0404
 9900SOL    HW230514   6.317   4.141   1.512 -0.3769 -0.9200  0.0286
 9901SOL     OW30515   2.900   1.176   7.216  0.2879 -0.0080  0.0364
 9901SOL    HW130516   2.879   1.141   7.129 -2.2311  1.1229  0.1471
 9901SOL    HW230517   2.865   1.265   7.215 -0.7746 -0.3525  2.5798
 9902SOL     OW30518   1.167   5.346   4.488 -0.0396 -0.2322  0.2774
 9902SOL    HW130519   1.086   5.319   4.531  0.4915 -0.1078  1.3771
 9902SOL    HW230520   1.224   5.375   4.559  0.5835  0.7061 -0.5816
 9903SOL     OW30521   6.445   5.520   3.081 -0.1943  0.0362 -0.5696
 9903SOL    HW130522   6.401   5.578   3.020  0.3484  1.6326  0.5193
 9903SOL    HW230523   6.455   5.572   3.161  1.7296 -0.9944 -0.0949
 9904SOL     OW30524   3.535   2.546   7.425  0.2062 -0.1411  0.4638
 9904SOL    HW130525   3.489   2.622   7.391  0.7915 -0.8139 -1.9459
 9904SOL    HW230526   3.466   2.490   7.461 -0.7649 -0.5544 -1.9479
 9905SOL     OW30527   1.668   0.968   0.352  0.7563  0.8040 -0.0847
 9905SOL    HW130528   1.689   0.957   0.445 -0.7375  0.0736  0.1889
 9905SOL    HW230529   1.673   1.062   0.336 -1.3171  1.1879  1.3354
 9906SOL     OW30530   4.027   7.566   0.447  0.4601 -0.5906  0.2526
 9906SOL    HW130531   3.953   7.545   0.504 -0.3284 -0.1908 -0.6145
 9906SOL    HW230532   4.083   7.489   0.451  0.2094 -0.7272  1.2471
 9907SOL     OW30533   3.496   4.171   7.644 -0.3239  0.1220  0.0406
 9907SOL    HW130534   3.523   4.089   7.603 -0.1717 -0.4963  1.3778
 9907SOL    HW230535   3.570   4.196   7.699  0.4623  2.1992 -1.8559
 9908SOL     OW30536   5.709   3.564   3.311 -0.1334 -0.2321 -0.0455
 9908SOL    HW130537   5.778   3.516   3.264  2.0655 -0.2139  3.0240
 9908SOL    HW230538   5.628   3.516   3.289  1.2962 -2.2690 -1.0849
 9909SOL     OW30539   1.367   5.474   2.932 -0.2081 -0.9402 -0.2840
 9909SOL    HW130540   1.446   5.440   2.974  0.5388  0.0225 -0.8666
 9909SOL    HW230541   1.327   5.398   2.890  0.7937 -1.3089 -0.5804
 9910SOL     OW30542   5.601   6.175   0.775 -0.0313  0.6112  0.6900
 9910SOL    HW130543   5.632   6.113   0.841 -1.5230 -0.8351  0.0748
 9910SOL    HW230544   5.593   6.258   0.822  0.0132 -0.1422  2.0522
 9911SOL     OW30545   6.230   4.844   6.669  0.1075  0.1142  0.2399
 9911SOL    HW130546   6.159   4.890   6.625 -1.2658 -0.3589  1.9087
 9911SOL    HW230547   6.245   4.765   6.617 -0.9506 -0.0501  0.1822
 9912SOL     OW30548   6.515   5.633   3.326 -0.5875 -0.1107 -0.1023
 9912SOL    HW130549   6.441   5.685   3.357 -0.4922 -0.3372  0.5299
 9912SOL    HW230550   6.590   5.667   3.375 -0.6998 -1.5132  1.1059
 9913SOL     OW30551   5.108   4.581   7.865  0.3491 -0.5180 -0.3584
 9913SOL    HW130552   5.043   4.518   7.894  0.8991 -0.5129  0.9709
 9913SOL    HW230553   5.109   4.574   7.770 -3.1558  1.0484 -0.5812
 9914SOL     OW30554   1.803   6.217   7.650 -0.0053 -0.3782 -0.4467
 9914SOL    HW130555   1.726   6.273   7.639  0.3113 -0.3374 -2.8203
 9914SOL    HW230556   1.767   6.130   7.667 -0.5857 -0.2729 -1.0865
 9915SOL     OW30557   7.005   5.385   6.284 -0.0331 -0.0496 -0.2145
 9915SOL    HW130558   7.015   5.435   6.203  1.9165 -0.2732 -0.1320
 9915SOL    HW230559   6.965   5.447   6.345 -2.5428 -0.2093 -1.6362
 9916SOL     OW30560   5.789   0.824   4.091 -0.0800 -0.1095  0.0785
 9916SOL    HW130561   5.736   0.791   4.164  0.1441 -1.7524 -0.4758
 9916SOL    HW230562   5.781   0.756   4.023  2.4082 -0.2031 -0.1688
 9917SOL     OW30563   3.613   2.942   0.904 -0.4199  0.0279 -0.3518
 9917SOL    HW130564   3.703   2.923   0.880 -0.1275  1.8159 -0.7698
 9917SOL    HW230565   3.618   2.976   0.993 -0.6370  0.4026 -0.4791
 9918SOL     OW30566   6.259   0.554   6.270  0.3900  0.4483  0.3809
 9918SOL    HW130567   6.234   0.630   6.217  0.0154  0.6618  0.8551
 9918SOL    HW230568   6.303   0.496   6.209  1.8797  1.6350  0.3057
 9919SOL     OW30569   7.963   4.355   4.376 -0.4268  0.2721  0.0360
 9919SOL    HW130570   7.960   4.269   4.418  0.3103  0.1892 -0.0753
 9919SOL    HW230571   7.914   4.344   4.295  0.1742 -0.2063 -0.2645
 9920SOL     OW30572   1.257   7.779   2.016  0.3422  0.2193  0.2506
 9920SOL    HW130573   1.188   7.757   1.952  0.5768 -2.0051  0.7178
 9920SOL    HW230574   1.323   7.824   1.964  0.3533 -1.2188 -1.0427
 9921SOL     OW30575   2.439   2.433   3.541 -0.3823  0.1959  0.3442
 9921SOL    HW130576   2.532   2.456   3.540 -0.3679  0.1290 -0.1805
 9921SOL    HW230577   2.420   2.407   3.451 -0.5143 -1.4483  0.8411
 9922SOL     OW30578   5.212   7.966   6.732  0.1389  0.2639  0.0884
 9922SOL    HW130579   5.203   8.004   6.644  1.0477 -1.0200 -0.5770
 9922SOL    HW230580   5.306   7.953   6.742 -0.1810 -2.2733  0.0906
 9923SOL     OW30581   7.642   3.243   0.308  0.1895 -0.3888  0.7903
 9923SOL    HW130582   7.589   3.248   0.229  2.0737 -0.8593 -0.5389
 9923SOL    HW230583   7.602   3.172   0.359 -1.7388  0.6946  0.8270
 9924SOL     OW30584   0.612   3.681   2.040 -0.2407 -0.3661 -0.5379
 9924SOL    HW130585   0.669   3.729   1.980 -0.0067 -0.0613 -0.0690
 9924SOL    HW230586   0.630   3.589   2.021 -0.4630 -0.2737 -1.2195
 9925SOL     OW30587   6.332   4.571   1.417  0.5464  0.2593  0.1886
 9925SOL    HW130588   6.276   4.562   1.340  2.1687  0.4789 -1.0585
 9925SOL    HW230589   6.311   4.658   1.452 -1.4776 -0.5770  1.0476
 9926SOL     OW30590   7.148   4.026   6.509  0.1404  0.6970  0.1263
 9926SOL    HW130591   7.226   4.080   6.501 -0.5621  1.6336 -0.5578
 9926SOL    HW230592   7.080   4.088   6.537 -0.6861  0.1766 -0.7060
 9927SOL     OW30593   2.977   7.446   1.852  0.2297 -0.1056 -0.3458
 9927SOL    HW130594   2.937   7.522   1.810  0.2027  0.3067  0.4266
 9927SOL    HW230595   2.934   7.440   1.937 -2.5338 -3.2384 -1.8250
 9928SOL     OW30596   1.761   4.347   5.321  0.1501  0.1671 -0.2184
 9928SOL    HW130597   1.853   4.339   5.296  0.4283 -3.0594  1.5759
 9928SOL    HW230598   1.714   4.299   5.253 -0.5259  3.7824 -2.4383
 9929SOL     OW30599   3.732   4.534   6.948 -0.0326  0.3847 -0.0645
 9929SOL    HW130600   3.688   4.523   7.031 -2.3052  0.6644 -1.1999
 9929SOL    HW230601   3.819   4.567   6.971  0.4526 -2.4203  2.3199
 9930SOL     OW30602   7.754   2.000   1.103 -0.1756 -0.1065 -0.0824
 9930SOL    HW130603   7.830   2.056   1.086  1.2055 -1.9794 -0.2367
 9930SOL    HW230604   7.763   1.976   1.196 -0.5121 -0.4641 -0.1422
 9931SOL     OW30605   5.669   3.034   6.609 -0.2848  0.1189  1.3076
 9931SOL    HW130606   5.688   3.103   6.545  0.0628 -0.2371  1.0213
 9931SOL    HW230607   5.579   3.009   6.590  0.2381 -0.8799  0.0961
 9932SOL     OW30608   1.646   6.858   7.708  0.0552  0.3645  0.4263
 9932SOL    HW130609   1.563   6.812   7.713 -0.5326  1.4354  0.6406
 9932SOL    HW230610   1.688   6.824   7.629 -0.8044  0.1998  0.0389
 9933SOL     OW30611   0.669   5.365   7.213 -0.3489 -0.0243 -0.1690
 9933SOL    HW130612   0.665   5.278   7.172  0.4822  0.9255 -2.3442
 9933SOL    HW230613   0.761   5.374   7.241 -0.6979 -0.2869  1.1267
 9934SOL     OW30614   0.113   4.138   0.418 -0.0054  0.4964 -0.0919
 9934SOL    HW130615   0.026   4.106   0.438  0.4817  0.1324  1.5050
 9934SOL    HW230616   0.122   4.128   0.323 -0.2127 -3.2254  0.2228
 9935SOL     OW30617   0.996   5.122   3.795 -0.0627  0.4231  0.1311
 9935SOL    HW130618   0.992   5.083   3.882 -0.4933 -0.3395 -0.2297
 9935SOL    HW230619   1.052   5.063   3.744 -1.1008  0.0090 -0.5421
 9936SOL     OW30620   5.954   0.419   3.416 -0.2393 -0.5599  0.6301
 9936SOL    HW130621   6.026   0.410   3.478 -0.1202 -1.7395  0.3279
 9936SOL    HW230622   5.978   0.494   3.362 -0.5369  0.7155  2.2571
 9937SOL     OW30623   0.553   6.232   7.046  0.2279 -0.6995  0.0351
 9937SOL    HW130624   0.610   6.292   6.997  1.1614 -0.8321  0.9525
 9937SOL    HW230625   0.506   6.289   7.107 -1.1209 -0.4998 -1.1444
 9938SOL     OW30626   7.804   7.223   2.663  0.3890 -0.0174 -0.1575
 9938SOL    HW130627   7.796   7.242   2.569  0.9535  0.2316 -0.1569
 9938SOL    HW230628   7.722   7.253   2.701  0.4485  0.5279 -0.4642
 9939SOL     OW30629   1.057   5.446   5.404 -0.1057  0.0653  0.0838
 9939SOL    HW130630   1.109   5.401   5.337 -1.5410  0.2232 -1.1817
 9939SOL    HW230631   1.013   5.375   5.451  1.2232 -0.0651  1.1265
 9940SOL     OW30632   2.620   5.035   2.360 -0.1235 -0.5531  0.2959
 9940SOL    HW130633   2.575   4.979   2.297 -1.1515 -0.2343  0.7369
 9940SOL    HW230634   2.710   5.040   2.327 -0.8846  0.4857 -1.7550
 9941SOL     OW30635   0.592   4.093   3.861  0.4187  0.5891 -0.6862
 9941SOL    HW130636   0.531   4.123   3.928  1.9761  0.7422  0.7148
 9941SOL    HW230637   0.669   4.150   3.871  1.9292 -1.4236 -0.4847
 9942SOL     OW30638   3.254   1.922   7.786  0.3132 -0.3776  0.1817
 9942SOL    HW130639   3.195   1.992   7.814 -1.8079 -1.6624 -0.9673
 9942SOL    HW230640   3.200   1.843   7.789  2.5101 -1.8939  0.9208
 9943SOL     OW30641   2.375   4.517   3.485  0.2931  0.3681  0.0735
 9943SOL    HW130642   2.401   4.579   3.553  1.0536  0.7759 -0.5801
 9943SOL    HW230643   2.457   4.492   3.443 -0.3115  1.3747 -1.7650
 9944SOL     OW30644   2.732   6.684   4.351 -0.3021  0.3662  0.5367
 9944SOL    HW130645   2.769   6.623   4.287 -0.3941  1.1183 -0.2528
 9944SOL    HW230646   2.754   6.646   4.436  0.3707 -0.3296  0.0637
 9945SOL     OW30647   1.496   3.244   2.132 -0.9239  0.1827 -1.0726
 9945SOL    HW130648   1.569   3.293   2.095 -0.8251  1.0959  0.3148
 9945SOL    HW230649   1.537   3.169   2.175 -0.7293  1.1343  0.4127
 9946SOL     OW30650   0.010   3.441   6.214  0.2199 -0.6564  0.0280
 9946SOL    HW130651  -0.043   3.519   6.233  0.0501 -0.5125 -0.9971
 9946SOL    HW230652  -0.041   3.393   6.148  0.5269 -1.4195  0.3427
 9947SOL     OW30653   7.560   2.983   7.918 -0.1254 -0.2994  0.8658
 9947SOL    HW130654   7.553   2.938   8.002 -1.0255 -0.3522  0.7605
 9947SOL    HW230655   7.599   2.918   7.860 -0.4886 -0.6132  0.9713
 9948SOL     OW30656   4.474   7.715   2.540  0.5896 -0.5151 -0.2200
 9948SOL    HW130657   4.439   7.804   2.541 -0.4107 -0.9126 -0.0115
 9948SOL    HW230658   4.549   7.721   2.481 -0.7688 -0.0098 -1.9461
 9949SOL     OW30659   0.289   6.374   0.198 -0.4581 -0.5974  0.0924
 9949SOL    HW130660   0.280   6.394   0.291  0.1423  1.6732 -0.3107
 9949SOL    HW230661   0.379   6.344   0.188 -0.3880 -0.4219  0.1867
 9950SOL     OW30662   7.020   0.860   1.500 -0.0501 -0.0349 -0.3511
 9950SOL    HW130663   6.947   0.869   1.561 -0.0140 -0.5925 -0.2207
 9950SOL    HW230664   7.091   0.822   1.553  0.1616  0.0094 -0.6007
 9951SOL     OW30665   0.126   5.222   2.214 -0.0235 -0.3130 -0.0588
 9951SOL    HW130666   0.088   5.250   2.298  2.0466  0.4010  0.6633
 9951SOL    HW230667   0.152   5.132   2.229  1.2356  0.1163  0.3960
 9952SOL     OW30668   5.675   2.232   1.965  0.4864 -0.2068  0.5054
 9952SOL    HW130669   5.680   2.321   1.999  0.2823 -0.5868  1.5509
 9952SOL    HW230670   5.706   2.177   2.037 -0.0955 -1.0419  0.1278
 9953SOL     OW30671   7.958   6.870   1.643  0.1578  0.2463 -0.0257
 9953SOL    HW130672   7.941   6.962   1.622 -1.2120  0.5085  2.0488
 9953SOL    HW230673   8.053   6.861   1.638  0.3042  1.8038 -0.1922
 9954SOL     OW30674   4.151   3.997   4.481 -0.6773  0.0720  0.7000
 9954SOL    HW130675   4.073   4.042   4.449 -0.6859 -0.4355 -0.0144
 9954SOL    HW230676   4.151   3.913   4.435  1.7695  1.1468 -1.4113
 9955SOL     OW30677   2.070   5.112   5.403 -0.0881  0.0860  0.9965
 9955SOL    HW130678   2.095   5.097   5.312  0.6469  0.3182  1.1549
 9955SOL    HW230679   2.020   5.035   5.428 -0.7568  0.2650  0.2313
 9956SOL     OW30680   5.607   6.398   0.968 -0.5135 -0.0968 -0.2895
 9956SOL    HW130681   5.633   6.481   1.010  0.3747 -0.3053 -0.4231
 9956SOL    HW230682   5.613   6.333   1.038 -0.2697 -0.2186 -0.4226
 9957SOL     OW30683   6.098   3.743   3.341  0.2618 -0.4024  0.0119
 9957SOL    HW130684   6.013   3.788   3.345  0.5027  0.0956 -0.2946
 9957SOL    HW230685   6.158   3.803   3.385  0.7170 -0.1116 -0.9864
 9958SOL     OW30686   0.703   4.949   1.942 -0.4191 -0.2421 -0.1301
 9958SOL    HW130687   0.705   4.856   1.919  0.2242 -0.1081 -0.6365
 9958SOL    HW230688   0.794   4.978   1.933 -0.4379  0.1959  1.0391
 9959SOL     OW30689   7.869   3.052   5.128  0.1151 -0.3566 -0.2884
 9959SOL    HW130690   7.804   3.112   5.166  2.1105  0.2732  2.3100
 9959SOL    HW230691   7.891   3.091   5.044 -1.7301  0.2661 -0.5096
 9960SOL     OW30692   0.877   5.196   1.481  0.2501 -0.0418  0.3771
 9960SOL    HW130693   0.802   5.229   1.431  0.5664  1.9438  1.1474
 9960SOL    HW230694   0.856   5.105   1.500 -0.3068 -0.5697 -2.5556
 9961SOL     OW30695   6.432   1.161   2.512 -0.0199 -0.6672 -0.5587
 9961SOL    HW130696   6.464   1.218   2.583  1.0711 -1.9110 -0.0365
 9961SOL    HW230697   6.440   1.216   2.433  2.2749 -0.4964 -0.2580
 9962SOL     OW30698   1.031   2.376   7.866 -0.0529  0.2127 -0.6160
 9962SOL    HW130699   1.037   2.282   7.877 -1.1794  0.2352  0.3795
 9962SOL    HW230700   0.974   2.389   7.790 -0.3767  0.0743 -0.4020
 9963SOL     OW30701   5.869   3.769   6.049 -0.3930 -0.0918 -0.1231
 9963SOL    HW130702   5.789   3.819   6.031 -0.3309  0.4859  1.1520
 9963SOL    HW230703   5.839   3.698   6.107  0.0062  0.0878  0.3018
 9964SOL     OW30704   7.485   6.950   3.233  0.1251  0.3333 -0.9739
 9964SOL    HW130705   7.542   6.946   3.157 -0.5454  0.5514 -1.4945
 9964SOL    HW230706   7.447   6.863   3.240 -0.9145  0.7205 -1.7494
 9965SOL     OW30707   5.041   0.717   7.023  0.2014 -0.7771  0.0884
 9965SOL    HW130708   5.095   0.795   7.036 -0.3700 -0.0717 -1.5970
 9965SOL    HW230709   4.962   0.733   7.074  1.2348 -1.4673  1.9319
 9966SOL     OW30710   1.767   5.509   6.644 -0.3146  0.2816 -0.3505
 9966SOL    HW130711   1.752   5.592   6.689 -0.5175  0.3711 -0.5827
 9966SOL    HW230712   1.700   5.506   6.576 -0.8155 -0.4415  0.1753
 9967SOL     OW30713   0.772   7.172   4.232  0.5444  0.5646  0.3474
 9967SOL    HW130714   0.818   7.109   4.288 -2.9709  0.2378  3.0158
 9967SOL    HW230715   0.720   7.118   4.173 -0.2105  0.9383  0.6671
 9968SOL     OW30716   7.185   6.439   0.769  0.5519  0.3833  0.1852
 9968SOL    HW130717   7.240   6.494   0.825  0.0045  0.2673  0.8310
 9968SOL    HW230718   7.104   6.489   0.758 -1.4435 -1.8802  3.7835
 9969SOL     OW30719   6.078   3.657   5.288 -0.3600 -0.3670 -0.0037
 9969SOL    HW130720   6.005   3.707   5.325 -0.6967 -1.1711  0.4560
 9969SOL    HW230721   6.104   3.705   5.210 -0.2169  0.8933  0.8093
 9970SOL     OW30722   7.696   5.195   7.108  0.3579 -0.0962  0.1475
 9970SOL    HW130723   7.626   5.133   7.086  0.2081  0.0492  0.2128
 9970SOL    HW230724   7.688   5.264   7.041 -1.1846  1.2295  1.6466
 9971SOL     OW30725   1.937   7.553   7.922  0.1803 -0.0596  0.1787
 9971SOL    HW130726   1.927   7.483   7.987  0.4520 -0.0156  0.2722
 9971SOL    HW230727   1.994   7.617   7.965  0.1569  0.0889 -0.0106
 9972SOL     OW30728   6.922   3.141   2.175 -0.1378 -0.1412 -0.0020
 9972SOL    HW130729   6.878   3.171   2.095 -1.3059 -0.9568  0.3203
 9972SOL    HW230730   6.871   3.180   2.246 -0.1249 -0.8118  0.3737
 9973SOL     OW30731   5.170   5.521   0.812  0.0584  0.7847  0.0792
 9973SOL    HW130732   5.251   5.520   0.762  0.7082 -2.8382  1.0387
 9973SOL    HW230733   5.180   5.594   0.873  3.2160 -0.4633  1.1459
 9974SOL     OW30734   2.529   2.801   7.779  0.0046 -0.0369  0.0950
 9974SOL    HW130735   2.454   2.846   7.741 -0.7147 -0.0682  1.4228
 9974SOL    HW230736   2.502   2.709   7.784 -0.0560  0.0172  0.9589
 9975SOL     OW30737   2.670   3.419   7.825 -0.1535  0.3271 -0.4540
 9975SOL    HW130738   2.607   3.482   7.860  1.4644  1.5499  0.3376
 9975SOL    HW230739   2.634   3.334   7.847 -1.2868  1.0182  0.4142
 9976SOL     OW30740   2.758   7.448   5.192  0.3193 -0.1943 -0.3155
 9976SOL    HW130741   2.723   7.532   5.162  0.3895 -0.1727 -0.3382
 9976SOL    HW230742   2.807   7.469   5.271 -1.7276 -0.5759  1.0851
 9977SOL     OW30743   0.013   1.302   1.463 -0.0594 -0.3629 -0.3869
 9977SOL    HW130744  -0.022   1.341   1.543 -2.1224 -0.1685 -1.3487
 9977SOL    HW230745  -0.061   1.253   1.426  1.4583 -2.1453 -1.1033
 9978SOL     OW30746   6.327   7.493   2.531  0.0907 -0.0886  0.5115
 9978SOL    HW130747   6.369   7.540   2.603 -2.3078  0.9043  1.2955
 9978SOL    HW230748   6.237   7.480   2.560 -1.4986  2.0841 -3.1077
 9979SOL     OW30749   3.647   6.533   0.986 -0.2750  0.0804  0.7045
 9979SOL    HW130750   3.691   6.448   0.980  0.8267  0.6462  0.5977
 9979SOL    HW230751   3.561   6.518   0.948  0.6529 -0.4805 -1.2530
 9980SOL     OW30752   0.211   3.289   0.660 -0.1890  0.3723 -0.0492
 9980SOL    HW130753   0.151   3.289   0.734 -0.5931  0.1785 -0.3727
 9980SOL    HW230754   0.155   3.304   0.584 -0.0363 -1.2679 -0.5074
 9981SOL     OW30755   0.262   2.089   6.393 -0.5290  0.2584  0.0843
 9981SOL    HW130756   0.273   1.996   6.411  1.0024  0.3450 -0.3916
 9981SOL    HW230757   0.321   2.133   6.454 -0.2051  0.8606 -0.6606
 9982SOL     OW30758   6.518   3.962   4.201 -0.1234 -0.6573 -0.0226
 9982SOL    HW130759   6.614   3.963   4.197 -0.1134 -0.4534  0.2219
 9982SOL    HW230760   6.496   4.029   4.266 -0.4445 -0.4736 -0.3177
 9983SOL     OW30761   0.910   0.138   5.572 -0.3637  0.6300 -0.2833
 9983SOL    HW130762   0.969   0.112   5.642  0.0104 -0.0252 -0.8328
 9983SOL    HW230763   0.876   0.224   5.599  0.4396  0.7711  0.2764
 9984SOL     OW30764   7.381   5.516   5.459  0.2642 -0.1321  0.3239
 9984SOL    HW130765   7.406   5.490   5.371  0.0643  1.2812 -0.1671
 9984SOL    HW230766   7.443   5.470   5.516 -0.1366 -1.7105 -0.4831
 9985SOL     OW30767   0.454   2.958   3.211 -0.0591  0.5496  0.0397
 9985SOL    HW130768   0.515   3.026   3.183  1.2367 -0.5124  0.3024
 9985SOL    HW230769   0.480   2.937   3.301 -0.2438 -0.5519 -0.1590
 9986SOL     OW30770   2.116   2.831   7.138  0.2963 -0.8829 -0.9376
 9986SOL    HW130771   2.033   2.877   7.142  0.2749 -1.1015  3.4779
 9986SOL    HW230772   2.093   2.738   7.146  0.9727 -0.8907  1.1308
 9987SOL     OW30773   2.200   1.016   5.795 -0.0394  0.0950  0.4806
 9987SOL    HW130774   2.233   0.927   5.780 -0.7677  0.0534 -0.8719
 9987SOL    HW230775   2.278   1.066   5.821  0.8279 -0.3526 -1.1998
 9988SOL     OW30776   0.636   1.146   6.295  0.0734  0.2340  0.1444
 9988SOL    HW130777   0.636   1.054   6.321  2.5353  0.5221  1.2987
 9988SOL    HW230778   0.663   1.194   6.373 -1.0819  1.9518 -0.4692
 9989SOL     OW30779   1.570   0.721   7.831 -0.1355  0.4908 -0.3902
 9989SOL    HW130780   1.530   0.664   7.896  1.0010  0.9539  0.7521
 9989SOL    HW230781   1.525   0.804   7.840 -2.8846 -0.6126 -3.1472
 9990SOL     OW30782   6.207   1.047   7.532 -0.1286  0.1926  0.6130
 9990SOL    HW130783   6.210   1.114   7.600 -0.4722 -0.4564  1.2813
 9990SOL    HW230784   6.174   1.092   7.455  0.6811  1.0387  0.7491
 9991SOL     OW30785   6.417   0.709   1.379  0.3641  0.4152 -0.0022
 9991SOL    HW130786   6.450   0.744   1.296 -2.5728  0.8485 -1.0454
 9991SOL    HW230787   6.480   0.739   1.444  1.4974  1.9780 -1.7630
 9992SOL     OW30788   3.894   1.327   3.626 -0.4380 -0.1459  0.0516
 9992SOL    HW130789   3.839   1.297   3.699 -0.3373 -0.4999 -0.0154
 9992SOL    HW230790   3.832   1.348   3.557 -0.5264  0.0421  0.1878
 9993SOL     OW30791   4.335   0.580   4.415  0.1175  0.0126 -0.5530
 9993SOL    HW130792   4.377   0.661   4.445  0.5218 -0.1527 -0.6672
 9993SOL    HW230793   4.314   0.597   4.323 -0.2124  0.1552 -0.4501
 9994SOL     OW30794   4.759   7.722   5.577 -0.0583  0.0161  0.0828
 9994SOL    HW130795   4.837   7.667   5.586 -0.9677 -1.4050 -0.5091
 9994SOL    HW230796   4.686   7.661   5.587 -1.0968  1.3058  0.4701
 9995SOL     OW30797   5.760   3.761   7.536 -0.0411 -0.2921 -0.3104
 9995SOL    HW130798   5.809   3.814   7.598 -0.6890 -0.1214  0.0540
 9995SOL    HW230799   5.680   3.738   7.581 -1.2251  1.1459 -1.6344
 9996SOL     OW30800   6.736   1.652   5.319 -0.0433  0.1396  0.0046
 9996SOL    HW130801   6.746   1.697   5.403  0.4713 -0.2798  0.1737
 9996SOL    HW230802   6.756   1.560   5.339  1.0687  0.2043 -0.7833
 9997SOL     OW30803   7.557   6.036   0.948 -0.1547 -0.1161 -0.6024
 9997SOL    HW130804   7.499   6.103   0.983  0.3017  0.9436 -1.8399
 9997SOL    HW230805   7.552   6.046   0.853 -0.3428 -2.0667 -0.8231
 9998SOL     OW30806   2.429   7.361   0.694 -0.1316 -0.4169 -0.8917
 9998SOL    HW130807   2.388   7.347   0.779 -1.4178  1.6038 -1.1248
 9998SOL    HW230808   2.521   7.376   0.713 -0.1127 -1.6654 -0.0180
 9999SOL     OW30809   7.679   1.460   1.445  0.1703  0.4241  0.3349
 9999SOL    HW130810   7.744   1.423   1.505 -0.3679  0.9839  1.2761
 9999SOL    HW230811   7.699   1.554   1.442  0.5141  0.3242 -0.7724
10000SOL     OW30812   3.581   0.797   4.329 -0.0838 -0.1849 -0.2336
10000SOL    HW130813   3.624   0.882   4.322  0.1386 -0.2529  0.2964
10000SOL    HW230814   3.651   0.737   4.355 -0.5590 -0.2357  0.9822
10001SOL     OW30815   7.781   1.197   2.799  0.8446  0.8463 -0.2154
10001SOL    HW130816   7.862   1.158   2.833 -0.0389 -0.9575 -0.1592
10001SOL    HW230817   7.812   1.269   2.743  2.4792  0.4559  0.1472
10002SOL     OW30818   2.437   0.240   5.194  0.0584 -0.5775 -0.1145
10002SOL    HW130819   2.451   0.151   5.227  1.5591 -0.0819  0.6497
10002SOL    HW230820   2.525   0.277   5.190 -0.6459  1.1702  0.3969
10003SOL     OW30821   3.686   5.187   2.768 -0.3890  0.0619  0.5879
10003SOL    HW130822   3.616   5.192   2.703  0.3789  1.2564 -0.1628
10003SOL    HW230823   3.697   5.093   2.783 -0.7879 -0.2193 -0.7735
10004SOL     OW30824   5.720   0.440   5.965  0.0873 -0.5403  0.2921
10004SOL    HW130825   5.671   0.426   6.046 -0.0615  0.7411  0.4436
10004SOL    HW230826   5.762   0.525   5.977 -0.8059  0.1600 -1.3979
10005SOL     OW30827   5.615   5.154   4.832 -0.7012 -0.8054  0.3630
10005SOL    HW130828   5.642   5.063   4.838 -0.6345 -0.9950 -2.0610
10005SOL    HW230829   5.595   5.167   4.739 -0.8952  1.5961  0.6948
10006SOL     OW30830   2.519   2.923   2.631 -0.0497 -0.1392 -0.0732
10006SOL    HW130831   2.568   2.841   2.634  0.0593 -0.1683 -1.9248
10006SOL    HW230832   2.577   2.984   2.585 -0.6473  0.5995  0.1418
10007SOL     OW30833   3.530   2.658   1.198  0.0115 -0.3554 -0.0053
10007SOL    HW130834   3.452   2.713   1.199  0.5061  0.4142 -1.7702
10007SOL    HW230835   3.498   2.571   1.174 -0.1043  0.3421 -2.5044
10008SOL     OW30836   0.848   6.460   0.280  0.1852 -0.0771  0.8187
10008SOL    HW130837   0.887   6.374   0.294 -0.0592  0.0224  2.1806
10008SOL    HW230838   0.921   6.515   0.250  0.3109 -0.7787 -0.1838
10009SOL     OW30839   0.894   5.223   6.998 -0.2692 -0.0337  0.0755
10009SOL    HW130840   0.971   5.278   6.982 -2.2673  3.3062  1.4465
10009SOL    HW230841   0.848   5.221   6.914 -1.0299  1.8294  0.4216
10010SOL     OW30842   6.343   6.512   1.653  0.3354 -0.6850 -0.1614
10010SOL    HW130843   6.325   6.441   1.715  0.2045  0.6252  1.3293
10010SOL    HW230844   6.420   6.557   1.689 -1.2791  1.6732  0.4700
10011SOL     OW30845   6.851   2.094   1.642  0.0407 -1.1586 -0.4257
10011SOL    HW130846   6.856   2.164   1.707 -1.1615 -1.4544  0.0012
10011SOL    HW230847   6.763   2.059   1.652 -0.0444 -1.4241 -1.9962
10012SOL     OW30848   0.118   7.570   2.811 -0.5569 -0.1403  0.5755
10012SOL    HW130849   0.136   7.639   2.747  0.7870  2.2288  3.3294
10012SOL    HW230850   0.173   7.497   2.784  1.1607  1.3581 -0.1349
10013SOL     OW30851   7.307   1.410   0.104  0.0564 -0.1892 -0.1322
10013SOL    HW130852   7.337   1.326   0.140  0.1730 -0.1411 -0.1163
10013SOL    HW230853   7.385   1.448   0.064 -0.4680 -1.0745 -2.0724
10014SOL     OW30854   0.646   6.248   1.411  0.3028  0.1420 -0.3897
10014SOL    HW130855   0.721   6.307   1.421 -1.2082  2.0872 -0.1599
10014SOL    HW230856   0.570   6.307   1.409 -1.5250 -1.9453  2.9174
10015SOL     OW30857   7.781   3.900   2.019  0.1661  0.0731 -0.0080
10015SOL    HW130858   7.706   3.842   2.023 -0.5159  0.9468  0.0192
10015SOL    HW230859   7.846   3.853   1.968 -0.4057 -0.6825 -0.0366
10016SOL     OW30860   0.021   4.563   2.180 -0.3446  0.4333  0.2485
10016SOL    HW130861   0.077   4.582   2.255 -1.2990 -1.0418  1.3492
10016SOL    HW230862   0.075   4.509   2.123  0.5020  1.8445 -0.3326
10017SOL     OW30863   1.329   2.910   3.037 -0.2633  0.3014 -0.2454
10017SOL    HW130864   1.251   2.935   2.986 -0.1047  1.3404  0.0299
10017SOL    HW230865   1.402   2.946   2.988 -0.0877  1.0302  0.5568
10018SOL     OW30866   7.340   3.459   0.896 -0.0870  0.0292  0.3075
10018SOL    HW130867   7.299   3.407   0.827 -1.1731  0.8780  0.2929
10018SOL    HW230868   7.399   3.398   0.940  0.3600 -0.6191 -1.1382
10019SOL     OW30869   5.168   2.536   3.324  0.2157  0.5057  0.4804
10019SOL    HW130870   5.103   2.558   3.391  0.7154 -1.8060  1.7629
10019SOL    HW230871   5.131   2.570   3.243 -2.6359 -0.7783  1.1844
10020SOL     OW30872   5.794   3.905   5.718  0.4686  0.7519 -0.4170
10020SOL    HW130873   5.730   3.902   5.789  0.6712 -1.1709 -0.3016
10020SOL    HW230874   5.850   3.980   5.739 -1.4102  2.1670 -0.2603
10021SOL     OW30875   0.982   4.693   4.190  0.0944 -0.3229  0.0758
10021SOL    HW130876   0.924   4.762   4.225 -0.6735 -0.4397 -0.9362
10021SOL    HW230877   1.020   4.732   4.111 -0.6027 -1.1732 -0.6896
10022SOL     OW30878   2.328   5.176   0.604 -0.2117 -0.3760 -0.5134
10022SOL    HW130879   2.239   5.206   0.588 -0.5751 -0.7219  0.7657
10022SOL    HW230880   2.379   5.256   0.620 -0.7832 -0.3037  1.0363
10023SOL     OW30881   4.201   4.633   1.261 -0.4232 -0.5229  0.5930
10023SOL    HW130882   4.148   4.643   1.182 -1.3437 -0.8908  1.1415
10023SOL    HW230883   4.149   4.574   1.316  0.5335 -0.8256  1.1822
10024SOL     OW30884   3.450   2.756   0.606  0.1065  0.3075 -0.1587
10024SOL    HW130885   3.429   2.686   0.544 -0.2425 -0.7598  1.1491
10024SOL    HW230886   3.410   2.729   0.688 -2.7536  3.5269 -0.3616
10025SOL     OW30887   4.733   4.807   3.303  0.6839 -0.5561 -0.0119
10025SOL    HW130888   4.727   4.726   3.253  1.0160 -1.6473  1.6844
10025SOL    HW230889   4.770   4.870   3.242 -0.8709 -1.3017 -1.7777
10026SOL     OW30890   6.502   7.560   7.838 -0.2327 -0.2711 -0.1230
10026SOL    HW130891   6.456   7.644   7.836 -0.7155 -0.4916  1.4125
10026SOL    HW230892   6.496   7.531   7.929  0.2475 -1.7962 -0.5624
10027SOL     OW30893   4.306   7.495   2.558  0.3954 -0.1699 -0.1834
10027SOL    HW130894   4.306   7.425   2.493  3.1543  0.1550 -0.6154
10027SOL    HW230895   4.345   7.570   2.512  0.2073  0.7640  1.1406
10028SOL     OW30896   0.479   1.405   1.993  0.2121  0.3898  0.2033
10028SOL    HW130897   0.425   1.395   1.914 -0.3790  0.3321  0.6128
10028SOL    HW230898   0.565   1.371   1.967 -0.2552 -0.5757 -0.1157
10029SOL     OW30899   1.908   0.979   1.791  0.2764 -0.6570  0.4062
10029SOL    HW130900   1.975   1.033   1.833  1.2490  0.1528 -2.0861
10029SOL    HW230901   1.881   1.030   1.715  0.4441 -3.1693 -1.4006
10030SOL     OW30902   3.050   6.668   1.675  0.3539  0.1622  0.4693
10030SOL    HW130903   2.978   6.609   1.651  0.2852  0.6654 -0.5915
10030SOL    HW230904   3.006   6.749   1.702  0.5337  0.7726 -1.0177
10031SOL     OW30905   3.296   6.777   3.672 -0.4383  0.4757  0.0551
10031SOL    HW130906   3.259   6.865   3.677 -1.0903  0.1879  0.3519
10031SOL    HW230907   3.280   6.738   3.758 -0.5653 -0.0951 -0.2190
10032SOL     OW30908   5.874   1.435   3.830 -0.0778 -0.0287  0.4317
10032SOL    HW130909   5.833   1.482   3.758 -1.8838 -0.5667  1.0636
10032SOL    HW230910   5.892   1.348   3.795  1.1135  0.4003 -0.0345
10033SOL     OW30911   1.133   3.089   4.148  0.5472 -0.6721 -0.3283
10033SOL    HW130912   1.202   3.150   4.173  0.7181 -1.0715  0.1780
10033SOL    HW230913   1.060   3.145   4.122  1.1943 -0.2459 -1.2484
10034SOL     OW30914   3.304   1.825   1.415 -0.0216  0.1967  0.7237
10034SOL    HW130915   3.219   1.803   1.453 -0.7944  0.1667 -0.9575
10034SOL    HW230916   3.328   1.748   1.364  0.3168  0.7538  0.0260
10035SOL     OW30917   3.830   7.137   7.136 -0.1458 -0.2089 -0.6765
10035SOL    HW130918   3.753   7.191   7.158 -0.2469 -0.3385 -0.7122
10035SOL    HW230919   3.901   7.175   7.188 -0.0343  0.4589 -1.3168
10036SOL     OW30920   5.723   1.802   6.822  0.2158  0.2870 -0.2614
10036SOL    HW130921   5.754   1.802   6.732 -0.2547  1.3334 -0.4286
10036SOL    HW230922   5.667   1.879   6.828 -0.0179  0.0366  0.8335
10037SOL     OW30923   6.696   2.990   0.775  0.1039  0.3387  0.2015
10037SOL    HW130924   6.607   2.958   0.765 -0.1723  0.9969  0.4849
10037SOL    HW230925   6.743   2.919   0.818  0.1367 -0.6501 -1.4432
10038SOL     OW30926   3.790   7.277   3.961 -0.5758 -0.1207 -0.1601
10038SOL    HW130927   3.819   7.317   4.043  1.9523 -0.4769 -0.8380
10038SOL    HW230928   3.771   7.352   3.904  0.2939  0.1236 -0.1328
10039SOL     OW30929   2.833   7.416   2.086  0.2261 -0.2110 -0.1194
10039SOL    HW130930   2.796   7.493   2.131  1.4348  0.9126 -1.0111
10039SOL    HW230931   2.887   7.374   2.152 -0.1442 -0.0924  0.2658
10040SOL     OW30932   3.927   0.698   6.190 -0.3114  0.0811  0.1255
10040SOL    HW130933   4.022   0.686   6.194 -0.1736  0.2629 -2.0404
10040SOL    HW230934   3.892   0.620   6.232  0.7907 -0.7568 -0.4728
10041SOL     OW30935   5.473   0.350   2.528 -0.0664  0.4654  0.4273
10041SOL    HW130936   5.539   0.416   2.505  0.9192 -0.5616  0.2673
10041SOL    HW230937   5.444   0.375   2.616 -1.7684  2.7466 -0.7518
10042SOL     OW30938   2.508   1.481   5.845 -0.3710  0.0480 -0.0472
10042SOL    HW130939   2.511   1.413   5.778 -3.6719 -0.7673  0.5246
10042SOL    HW230940   2.466   1.556   5.802  0.1858  0.5459  0.2678
10043SOL     OW30941   0.024   5.939   7.738  0.2881  0.0783 -0.7155
10043SOL    HW130942  -0.033   5.877   7.783  1.9270 -0.9751 -0.0316
10043SOL    HW230943   0.101   5.946   7.794  0.2135  2.6324 -0.8588
10044SOL     OW30944   6.899   0.693   0.968 -0.6305 -0.0329 -0.4771
10044SOL    HW130945   6.808   0.708   0.993 -0.8660 -0.7239 -0.8932
10044SOL    HW230946   6.895   0.621   0.905  0.2086 -0.1236 -0.4365
10045SOL     OW30947   4.360   4.134   7.401  0.5417 -0.0895 -0.0949
10045SOL    HW130948   4.378   4.218   7.444 -0.7336 -0.3978  1.0744
10045SOL    HW230949   4.296   4.092   7.458  0.8804 -1.6937 -0.8833
10046SOL     OW30950   7.002   3.654   5.293  0.2724  0.2630  0.3288
10046SOL    HW130951   6.995   3.613   5.207  0.9999  2.0422 -0.5980
10046SOL    HW230952   7.091   3.689   5.296  0.7517 -1.0030  2.3819
10047SOL     OW30953   0.245   5.121   3.124 -0.1505  0.1533  0.3437
10047SOL    HW130954   0.314   5.091   3.183 -3.0983 -1.6302  3.0345
10047SOL    HW230955   0.249   5.061   3.050  1.4942  0.4087  0.1983
10048SOL     OW30956   0.272   0.469   7.139  0.0859  0.0473  0.4647
10048SOL    HW130957   0.361   0.503   7.154  0.0430  1.7131 -2.6883
10048SOL    HW230958   0.284   0.375   7.127  1.1502 -0.0386  2.0971
10049SOL     OW30959   3.186   6.041   0.081  0.4087  0.3970 -0.2075
10049SOL    HW130960   3.263   6.010   0.033 -1.1164 -1.6479 -1.3639
10049SOL    HW230961   3.183   5.985   0.159 -1.6727 -1.7224 -1.7252
10050SOL     OW30962   1.253   7.171   3.263 -1.0667  0.3078  0.4725
10050SOL    HW130963   1.208   7.222   3.197 -0.5810  1.3915  0.9659
10050SOL    HW230964   1.218   7.082   3.253 -1.1783  0.5112 -1.0581
10051SOL     OW30965   1.949   0.510   2.267  0.5010 -0.9092 -0.1568
10051SOL    HW130966   1.886   0.560   2.320 -1.4839 -2.1362 -1.2998
10051SOL    HW230967   1.897   0.442   2.226  2.4758 -1.5186 -1.7256
10052SOL     OW30968   3.774   5.140   3.090  0.0631  0.0200  0.0846
10052SOL    HW130969   3.734   5.077   3.030 -0.6477  0.7464 -0.2152
10052SOL    HW230970   3.728   5.222   3.073  1.9353  0.9828 -0.5472
10053SOL     OW30971   2.323   0.380   1.407 -0.5495 -0.1643 -0.6719
10053SOL    HW130972   2.251   0.354   1.466 -1.2336 -0.0324 -1.4377
10053SOL    HW230973   2.360   0.458   1.447 -0.4977 -0.5303  0.0036
10054SOL     OW30974   4.158   1.399   4.228  0.2198  0.1749 -0.0503
10054SOL    HW130975   4.128   1.489   4.239 -1.2964 -0.3703  0.3560
10054SOL    HW230976   4.170   1.389   4.133 -0.7984  0.4322 -0.2082
10055SOL     OW30977   4.522   3.056   4.549 -0.5791  0.5735  0.0749
10055SOL    HW130978   4.470   2.998   4.604 -1.5256  0.5523 -0.8178
10055SOL    HW230979   4.596   3.003   4.521 -0.4880  0.3562  0.7269
10056SOL     OW30980   6.364   4.525   0.313 -0.1649  0.3904 -0.0071
10056SOL    HW130981   6.301   4.550   0.246 -0.7691 -0.6087  0.1905
10056SOL    HW230982   6.410   4.607   0.333  0.1218  0.6907 -1.7252
10057SOL     OW30983   6.180   3.653   4.995 -0.0219 -0.4963 -0.4297
10057SOL    HW130984   6.267   3.614   4.991  0.0173 -0.6219  1.1470
10057SOL    HW230985   6.193   3.743   4.966  0.8831 -0.1382  1.0366
10058SOL     OW30986   2.290   6.442   0.812 -0.1737 -0.5761 -0.0240
10058SOL    HW130987   2.314   6.525   0.852 -1.4786 -0.9625  1.6556
10058SOL    HW230988   2.225   6.464   0.746 -0.7765 -0.2703  0.6589
10059SOL     OW30989   0.053   2.319   7.766 -0.2407  0.0676 -0.1834
10059SOL    HW130990   0.041   2.279   7.680 -0.1381  0.1676 -0.2449
10059SOL    HW230991   0.144   2.301   7.788 -0.7967 -1.6587  0.7731
10060SOL     OW30992   5.569   3.103   4.689 -0.4189  0.0671 -0.1308
10060SOL    HW130993   5.664   3.103   4.693 -0.4087  1.0003 -0.1413
10060SOL    HW230994   5.547   3.042   4.618  0.1558 -0.3132  0.0155
10061SOL     OW30995   7.328   1.029   4.581 -0.1404 -0.0351  0.1071
10061SOL    HW130996   7.322   0.944   4.538  1.3660  0.7578 -1.7348
10061SOL    HW230997   7.411   1.025   4.629 -0.7653 -0.1143  1.2047
10062SOL     OW30998   7.110   4.694   2.147  0.8703 -0.0985 -0.9501
10062SOL    HW130999   7.024   4.712   2.185  0.4582  1.9297 -2.7808
10062SOL    HW231000   7.172   4.720   2.215  0.0736 -0.7670  0.0482
10063SOL     OW31001   1.010   3.464   0.465 -0.3092  0.0520  0.1783
10063SOL    HW131002   0.932   3.426   0.505  0.0789 -1.7323 -0.6855
10063SOL    HW231003   1.083   3.417   0.504  0.2938  1.1721  0.4099
10064SOL     OW31004   5.381   6.287   5.050 -0.0663 -0.1885  0.4983
10064SOL    HW131005   5.331   6.368   5.035 -1.2683 -0.7318  1.4924
10064SOL    HW231006   5.404   6.257   4.962 -0.0419  0.9620  0.0987
10065SOL     OW31007   7.144   2.175   1.599 -0.0792 -0.0510 -0.2795
10065SOL    HW131008   7.139   2.256   1.650  1.0565  0.4440 -0.9294
10065SOL    HW231009   7.089   2.192   1.522  0.5931  0.3219 -0.6877
10066SOL     OW31010   5.916   2.194   5.181  0.1188  0.4091 -0.1645
10066SOL    HW131011   5.900   2.216   5.089  0.6307 -1.1467 -0.6376
10066SOL    HW231012   6.007   2.218   5.196  0.0798  0.5156 -0.0966
10067SOL     OW31013   6.697   6.048   1.390  0.3089 -0.2642 -0.3950
10067SOL    HW131014   6.640   5.987   1.436  0.6271  1.1469  1.9698
10067SOL    HW231015   6.646   6.077   1.314 -0.7508 -1.6153 -0.2077
10068SOL     OW31016   1.691   3.961   1.262 -0.8775  0.1024 -0.1666
10068SOL    HW131017   1.699   4.056   1.247 -0.5491  0.0801 -0.1159
10068SOL    HW231018   1.658   3.927   1.179 -1.4982  0.3304 -0.0224
10069SOL     OW31019   2.483   2.521   7.805 -0.2833 -0.1801 -0.1851
10069SOL    HW131020   2.436   2.439   7.818 -0.0629  0.0265  2.0157
10069SOL    HW231021   2.568   2.507   7.846 -0.3770  1.2793  0.5490
10070SOL     OW31022   4.728   6.101   6.370  0.4263 -0.2934  0.0725
10070SOL    HW131023   4.703   6.194   6.372  2.0272  0.1463  1.2130
10070SOL    HW231024   4.754   6.082   6.460  0.8973 -1.6305 -0.3467
10071SOL     OW31025   4.036   5.365   3.348  0.1559  0.4506 -0.0478
10071SOL    HW131026   3.943   5.383   3.356  0.5933  2.3435  1.0292
10071SOL    HW231027   4.049   5.284   3.399 -0.5124  1.4913  1.8211
10072SOL     OW31028   1.149   0.639   5.755 -0.5834  0.8648  0.2473
10072SOL    HW131029   1.145   0.669   5.845  1.3305  0.8557  0.3506
10072SOL    HW231030   1.231   0.589   5.749 -1.4242 -0.4067 -1.1037
10073SOL     OW31031   6.645   4.689   6.025  0.0061  0.0186  0.0012
10073SOL    HW131032   6.705   4.644   5.966 -0.7820 -0.6304 -0.3293
10073SOL    HW231033   6.594   4.618   6.065 -1.2904  0.6165 -0.5573
10074SOL     OW31034   2.631   3.116   1.674  0.3616 -0.6617  0.0984
10074SOL    HW131035   2.662   3.207   1.678 -0.0020 -0.4977 -0.6505
10074SOL    HW231036   2.708   3.064   1.697  0.2540 -0.1240  1.7145
10075SOL     OW31037   6.907   4.606   7.536  0.3435 -0.2424  0.3162
10075SOL    HW131038   6.984   4.550   7.547 -0.0166 -0.8127 -0.0617
10075SOL    HW231039   6.887   4.603   7.443  0.0966  0.2243  0.3478
10076SOL     OW31040   0.228   6.752   1.576 -0.4596 -0.0710  0.5816
10076SOL    HW131041   0.178   6.692   1.519 -0.8031  0.2953  0.4991
10076SOL    HW231042   0.277   6.807   1.515  0.8758 -1.1176  0.6656
10077SOL     OW31043   6.172   0.950   1.668  0.3609  0.2329  0.1258
10077SOL    HW131044   6.216   0.898   1.735  0.3949  1.3592  0.9882
10077SOL    HW231045   6.200   0.911   1.585  1.7913 -0.0099  0.7108
10078SOL     OW31046   0.279   7.157   2.918  0.0176 -0.4889 -0.4810
10078SOL    HW131047   0.369   7.137   2.891  0.4527  0.3648  0.3230
10078SOL    HW231048   0.280   7.148   3.013 -0.5061  0.4962 -0.3826
10079SOL     OW31049   6.961   1.530   3.798 -0.1608  0.0144 -0.4975
10079SOL    HW131050   7.009   1.476   3.735 -0.8280  0.9130 -1.8011
10079SOL    HW231051   6.926   1.468   3.862 -0.0972 -0.9973 -1.4311
10080SOL     OW31052   7.869   7.766   2.914  0.3248  0.2575 -0.1955
10080SOL    HW131053   7.800   7.827   2.889 -0.6459 -0.7697 -0.0698
10080SOL    HW231054   7.899   7.729   2.831 -1.0969 -1.2283 -0.0638
10081SOL     OW31055   4.003   0.508   7.604  0.0069  0.0203  0.1395
10081SOL    HW131056   3.954   0.431   7.575  0.7799 -0.6935  0.7043
10081SOL    HW231057   3.985   0.574   7.537  2.0908 -1.7245 -2.2166
10082SOL     OW31058   1.872   4.616   3.921 -0.1312 -0.3126  0.4309
10082SOL    HW131059   1.784   4.579   3.917 -0.6148  0.7762  0.8230
10082SOL    HW231060   1.930   4.542   3.901 -1.1732 -0.7989 -0.8929
10083SOL     OW31061   4.408   0.290   3.628 -0.0252 -0.7496 -0.1559
10083SOL    HW131062   4.393   0.307   3.535 -0.5980 -1.3287 -0.1770
10083SOL    HW231063   4.467   0.359   3.656 -1.2744  0.4880 -0.5335
10084SOL     OW31064   5.415   3.653   7.382 -0.2080 -0.8552  0.0067
10084SOL    HW131065   5.419   3.559   7.395  0.6767 -0.9315 -0.8088
10084SOL    HW231066   5.476   3.671   7.311  0.2997  0.4503  0.7540
10085SOL     OW31067   5.451   5.721   4.221  0.0849 -0.1703 -0.5741
10085SOL    HW131068   5.474   5.634   4.189  1.3266  0.2929 -0.9935
10085SOL    HW231069   5.366   5.740   4.181  0.3936 -0.6814 -1.4837
10086SOL     OW31070   7.226   5.973   1.647 -0.0489  0.3482 -1.1439
10086SOL    HW131071   7.189   5.893   1.686 -0.1719  0.8177 -0.2862
10086SOL    HW231072   7.157   6.038   1.655  0.7461  1.0740 -0.0629
10087SOL     OW31073   0.836   7.337   5.643 -0.0040 -0.3537 -0.7235
10087SOL    HW131074   0.822   7.309   5.734 -1.0621  1.5453 -0.2764
10087SOL    HW231075   0.803   7.264   5.590 -0.7622 -0.8423  0.4008
10088SOL     OW31076   2.217   6.580   3.186  0.4056  0.3247 -0.5110
10088SOL    HW131077   2.195   6.519   3.116  1.4058  0.4918 -0.9774
10088SOL    HW231078   2.155   6.652   3.176 -0.2913 -0.2556 -0.4212
10089SOL     OW31079   4.566   1.869   2.454  0.2564 -1.0209  0.0088
10089SOL    HW131080   4.646   1.835   2.414 -0.3143 -0.3741 -1.7286
10089SOL    HW231081   4.559   1.958   2.420 -1.2717 -1.1202  0.0616
10090SOL     OW31082   3.083   6.346   0.347  0.0482  0.1242 -0.3130
10090SOL    HW131083   3.042   6.262   0.326 -3.5982  1.7829 -0.3499
10090SOL    HW231084   3.152   6.356   0.281  0.2044 -2.5765 -0.6271
10091SOL     OW31085   0.406   4.864   5.811 -0.2148  0.3984 -0.3312
10091SOL    HW131086   0.466   4.921   5.859  0.4381 -0.2747 -0.3326
10091SOL    HW231087   0.449   4.779   5.812 -0.8970  0.0473 -0.8506
10092SOL     OW31088   0.229   5.290   5.361 -0.1333  0.4484  0.3373
10092SOL    HW131089   0.307   5.300   5.415  1.3906  1.0990 -1.9005
10092SOL    HW231090   0.225   5.370   5.308 -1.0240 -0.5596 -1.1787
10093SOL     OW31091   7.033   1.214   7.903  0.8092  0.1861  0.1816
10093SOL    HW131092   6.976   1.260   7.841  0.5362 -0.7141 -0.2318
10093SOL    HW231093   6.979   1.202   7.981  0.9949  0.8702  0.4275
10094SOL     OW31094   5.336   1.604   0.159  0.1758 -0.2855  0.1334
10094SOL    HW131095   5.340   1.667   0.231 -0.4194 -0.4264  0.2966
10094SOL    HW231096   5.251   1.562   0.170  1.2865 -2.3687  1.0630
10095SOL     OW31097   5.963   1.574   3.132 -0.6130 -0.0239 -0.2364
10095SOL    HW131098   5.884   1.589   3.079 -1.0162  0.1572  0.4125
10095SOL    HW231099   5.965   1.647   3.193  0.6220  0.5245 -0.9216
10096SOL     OW31100   2.369   4.100   1.000 -0.4183  0.0170  0.3392
10096SOL    HW131101   2.305   4.085   1.069 -0.7015 -0.9101 -0.1210
10096SOL    HW231102   2.453   4.106   1.046 -0.9215  2.1885  1.0408
10097SOL     OW31103   3.716   4.276   5.387  0.6754 -0.0945 -0.2490
10097SOL    HW131104   3.630   4.237   5.366  0.8542  0.0328 -1.2431
10097SOL    HW231105   3.707   4.368   5.361  1.8067 -0.5576 -2.4438
10098SOL     OW31106   6.965   6.393   1.678 -0.0451 -0.4113  0.0353
10098SOL    HW131107   7.015   6.321   1.640  0.9611  1.6186 -2.7004
10098SOL    HW231108   6.874   6.367   1.669  0.3581 -2.7660  2.1540
10099SOL     OW31109   1.750   4.866   4.078 -0.0541  0.0302  0.4641
10099SOL    HW131110   1.690   4.792   4.077  0.7512 -0.6248  0.0356
10099SOL    HW231111   1.705   4.934   4.028  1.0265 -1.6350 -2.9112
10100SOL     OW31112   4.403   6.774   1.253 -0.2234 -0.0063  0.8244
10100SOL    HW131113   4.345   6.846   1.280 -0.8115 -0.3033  0.3433
10100SOL    HW231114   4.478   6.781   1.313 -0.5690  0.6176  1.1942
10101SOL     OW31115   7.173   5.821   7.563 -0.6272  0.4199 -0.4586
10101SOL    HW131116   7.257   5.780   7.582  0.2754  1.2679 -2.5163
10101SOL    HW231117   7.157   5.878   7.639 -0.6281 -1.6967  1.1630
10102SOL     OW31118   4.192   1.320   5.025 -0.5331 -0.5487  0.7039
10102SOL    HW131119   4.102   1.335   4.994  0.0739  0.4044 -0.6557
10102SOL    HW231120   4.234   1.406   5.018  1.6145 -1.7645 -2.5125
10103SOL     OW31121   4.550   1.293   2.251  0.3851  0.8549  0.5644
10103SOL    HW131122   4.476   1.324   2.197  0.5838  1.0904  0.4273
10103SOL    HW231123   4.609   1.252   2.188  0.9914  1.8232  0.4804
10104SOL     OW31124   5.298   5.020   6.776  0.5482 -0.2139  0.1878
10104SOL    HW131125   5.298   4.926   6.758 -2.0895 -0.1723 -0.2483
10104SOL    HW231126   5.344   5.059   6.702 -2.1237 -0.8155 -1.8460
10105SOL     OW31127   4.056   7.445   4.398 -0.1226 -0.4625 -0.0593
10105SOL    HW131128   3.992   7.515   4.408  0.1096  0.0667 -2.0644
10105SOL    HW231129   4.141   7.488   4.409 -0.0199 -0.7222  0.1808
10106SOL     OW31130   0.074   4.410   3.217  0.0397  0.2411 -0.2366
10106SOL    HW131131   0.101   4.463   3.292  0.4607 -1.0315  0.5159
10106SOL    HW231132   0.045   4.475   3.152  0.0536  1.3706  0.8562
10107SOL     OW31133   1.669   1.060   6.292  0.4450  0.6439  0.2631
10107SOL    HW131134   1.738   1.116   6.256  2.3815 -1.0086  1.2977
10107SOL    HW231135   1.713   0.977   6.310 -1.3192  0.2587  2.9904
10108SOL     OW31136   2.972   2.502   3.775 -0.1174  0.1026 -0.2071
10108SOL    HW131137   2.961   2.430   3.712 -0.2863  0.1618 -0.2445
10108SOL    HW231138   2.898   2.560   3.758  0.6592  0.8860 -0.9882
10109SOL     OW31139   3.728   3.942   2.608 -0.2110 -0.3557 -0.5514
10109SOL    HW131140   3.663   3.922   2.675 -0.4952  1.1040 -0.3638
10109SOL    HW231141   3.678   3.979   2.536  0.3664  0.4872 -0.5286
10110SOL     OW31142   0.400   7.279   7.554  0.0842  0.3221  0.5928
10110SOL    HW131143   0.363   7.191   7.560  0.0737  0.2199 -0.7169
10110SOL    HW231144   0.330   7.337   7.582 -0.5201  0.0171 -0.2618
10111SOL     OW31145   1.394   2.445   2.555 -0.0664  0.6165  0.1023
10111SOL    HW131146   1.331   2.510   2.524 -0.3764 -1.0091 -2.9125
10111SOL    HW231147   1.355   2.361   2.531  2.7188 -0.4639 -0.8426
10112SOL     OW31148   4.049   5.284   5.691  0.0253 -0.2250  0.5884
10112SOL    HW131149   4.140   5.256   5.700  0.0465 -0.2048  0.4440
10112SOL    HW231150   4.055   5.373   5.656 -0.0660 -0.8433 -1.0518
10113SOL     OW31151   3.613   1.484   5.620  0.1816 -0.1304 -0.2681
10113SOL    HW131152   3.657   1.405   5.588 -0.2538  0.2859 -1.9308
10113SOL    HW231153   3.527   1.481   5.580  0.7251  2.0074 -1.6354
10114SOL     OW31154   3.218   5.707   6.709 -0.4220  0.3809  0.1598
10114SOL    HW131155   3.174   5.787   6.678  0.8395  1.1582  0.3361
10114SOL    HW231156   3.161   5.674   6.778 -1.3657  0.6872 -0.4622
10115SOL     OW31157   7.317   6.719   7.536  0.2907 -0.6643  0.3922
10115SOL    HW131158   7.243   6.659   7.523 -0.4974 -0.2807  2.8258
10115SOL    HW231159   7.276   6.805   7.546  1.2927  0.0262 -1.2481
10116SOL     OW31160   1.296   4.914   5.833  0.4248 -0.7270  0.0454
10116SOL    HW131161   1.213   4.887   5.873 -0.7695 -0.2961 -2.0366
10116SOL    HW231162   1.363   4.876   5.889 -1.1571 -0.0713  2.4854
10117SOL     OW31163   4.400   2.826   4.626 -0.3075  0.2118 -0.3570
10117SOL    HW131164   4.445   2.749   4.662 -0.1940  1.1633  1.5827
10117SOL    HW231165   4.348   2.860   4.699 -0.6585  1.7503 -1.3010
10118SOL     OW31166   2.044   7.175   1.994 -0.4708 -0.0739 -0.4926
10118SOL    HW131167   2.012   7.262   2.018 -1.6191 -0.4554 -0.6148
10118SOL    HW231168   2.019   7.119   2.067  1.0356 -0.1431 -0.0163
10119SOL     OW31169   6.945   3.893   3.080  0.3058 -0.6139 -0.2965
10119SOL    HW131170   6.907   3.949   3.011  0.0229 -2.4463 -1.6738
10119SOL    HW231171   6.915   3.932   3.162 -1.0445  0.4477 -1.2682
10120SOL     OW31172   5.426   0.677   7.901 -0.8146  0.1541 -0.6145
10120SOL    HW131173   5.490   0.605   7.899 -1.3107 -0.2833 -0.9223
10120SOL    HW231174   5.353   0.642   7.952 -0.6893  0.7557 -0.0272
10121SOL     OW31175   7.832   2.719   0.820 -0.0562  0.4169 -0.1841
10121SOL    HW131176   7.913   2.695   0.773 -0.5443  1.1417 -1.4190
10121SOL    HW231177   7.809   2.640   0.869  0.7715 -0.1888 -0.7455
10122SOL     OW31178   7.725   4.655   3.996 -0.1147  0.3261  0.1939
10122SOL    HW131179   7.694   4.740   4.026 -1.0749 -0.2641  0.8945
10122SOL    HW231180   7.653   4.595   4.015  0.6898 -0.7087  0.0255
10123SOL     OW31181   2.354   0.432   6.351 -0.2904 -0.0019  0.1692
10123SOL    HW131182   2.291   0.505   6.348 -1.3753 -0.9712 -0.7582
10123SOL    HW231183   2.303   0.358   6.385 -0.3457 -1.4812 -3.0323
10124SOL     OW31184   0.351   4.534   5.559  0.3116 -0.3143  0.3474
10124SOL    HW131185   0.397   4.496   5.485 -0.9266 -0.7503 -0.2052
10124SOL    HW231186   0.329   4.623   5.531 -1.2928 -0.9115 -0.3058
10125SOL     OW31187   6.025   4.818   5.400 -0.7091 -0.2248 -0.6422
10125SOL    HW131188   5.944   4.867   5.388 -0.6474  0.2837  0.9367
10125SOL    HW231189   6.020   4.783   5.489  1.0544  0.3198 -0.2894
10126SOL     OW31190   7.852   1.136   6.873 -0.6171  0.1017 -0.1286
10126SOL    HW131191   7.921   1.182   6.922 -0.4480  0.3532 -0.5982
10126SOL    HW231192   7.849   1.181   6.788 -0.2137 -0.9757 -0.7252
10127SOL     OW31193   4.063   4.721   1.800  0.0580  0.4845 -0.6826
10127SOL    HW131194   4.052   4.814   1.779 -0.7126  0.4392 -0.5112
10127SOL    HW231195   4.134   4.692   1.743  0.4330  1.2228 -0.6045
10128SOL     OW31196   3.446   5.148   4.196 -0.0541 -0.0436 -1.1226
10128SOL    HW131197   3.484   5.120   4.279  0.9076 -0.4325 -1.6940
10128SOL    HW231198   3.375   5.208   4.222 -0.3780 -0.8854  0.0105
10129SOL     OW31199   7.175   1.839   3.111  0.1116  0.0185  0.5276
10129SOL    HW131200   7.220   1.755   3.104  0.8782  0.5096 -0.5029
10129SOL    HW231201   7.126   1.847   3.029 -1.2296 -0.1320  1.2856
10130SOL     OW31202   5.679   5.008   0.796 -0.7370 -0.1383  0.3215
10130SOL    HW131203   5.697   4.916   0.780 -2.3997 -0.7960  2.0774
10130SOL    HW231204   5.654   5.043   0.711  1.3077 -0.9395 -0.6386
10131SOL     OW31205   7.307   6.013   5.904  0.0901  0.9146 -0.2230
10131SOL    HW131206   7.290   6.049   5.817 -1.4332 -1.1034 -0.8078
10131SOL    HW231207   7.224   6.022   5.950  0.0566 -0.5709  0.0482
10132SOL     OW31208   0.450   0.437   0.361  0.4340  0.2570 -0.6889
10132SOL    HW131209   0.478   0.364   0.306  1.1368  0.0846 -0.1133
10132SOL    HW231210   0.358   0.450   0.338  0.5225 -0.2819 -1.3754
10133SOL     OW31211   1.026   1.780   0.325  0.6314  0.0939 -0.7648
10133SOL    HW131212   0.945   1.728   0.329  0.2259  0.4602 -3.4913
10133SOL    HW231213   1.088   1.731   0.378 -0.8003 -1.2488 -0.2800
10134SOL     OW31214   7.080   6.991   0.983 -0.1281  0.4725  0.3487
10134SOL    HW131215   7.115   7.076   0.956  0.3963  0.7771  1.9784
10134SOL    HW231216   7.044   6.954   0.902 -0.0384  2.0770 -0.4498
10135SOL     OW31217   6.324   4.104   5.450 -0.0146 -0.3885 -0.1776
10135SOL    HW131218   6.235   4.082   5.424  0.0595 -0.5492 -0.2999
10135SOL    HW231219   6.322   4.199   5.463 -0.9403 -0.7925  2.8238
10136SOL     OW31220   0.179   2.958   7.347 -0.2234 -0.0005  0.7509
10136SOL    HW131221   0.271   2.981   7.336 -0.1072 -0.8431 -0.1334
10136SOL    HW231222   0.173   2.925   7.437  0.1704  0.7813  1.0701
10137SOL     OW31223   7.579   4.612   1.242 -0.3358 -0.8208  0.1809
10137SOL    HW131224   7.489   4.640   1.226  0.3896  1.1303 -0.5596
10137SOL    HW231225   7.597   4.637   1.332  0.0006  0.2786 -0.1866
10138SOL     OW31226   0.450   1.558   0.019  0.2360  0.1425  0.7292
10138SOL    HW131227   0.466   1.547  -0.075  0.7885 -3.2644  1.1521
10138SOL    HW231228   0.537   1.552   0.059 -0.0571  0.9825  1.4943
10139SOL     OW31229   7.131   0.240   1.991  0.2323  0.2799 -0.3998
10139SOL    HW131230   7.159   0.209   2.077  0.1933  1.3224 -0.0015
10139SOL    HW231231   7.098   0.328   2.007 -0.0294  0.3796 -1.4422
10140SOL     OW31232   7.148   4.888   1.930  0.0609  0.1007  0.1541
10140SOL    HW131233   7.163   4.980   1.952 -0.2346  0.2237 -0.1570
10140SOL    HW231234   7.115   4.849   2.011  0.4669  0.2015  0.3699
10141SOL     OW31235   4.657   0.216   6.315 -0.0961  0.0567  0.6444
10141SOL    HW131236   4.617   0.148   6.369 -1.3188 -0.2647 -0.6252
10141SOL    HW231237   4.644   0.185   6.225  0.6935  1.2389  0.1151
10142SOL     OW31238   6.759   0.026   0.009  0.2180  1.1323 -0.2832
10142SOL    HW131239   6.824   0.040  -0.059 -1.2367  2.8196 -1.3559
10142SOL    HW231240   6.700  -0.040  -0.026  1.6335 -0.8168  0.9180
10143SOL     OW31241   0.610   5.977   7.859 -0.4738 -0.3187 -0.3063
10143SOL    HW131242   0.680   5.950   7.800 -0.7431 -2.1420  0.1877
10143SOL    HW231243   0.558   6.039   7.808 -0.2457 -1.2736 -1.6970
10144SOL     OW31244   6.960   1.064   3.893 -0.7196  0.2107  0.0195
10144SOL    HW131245   6.973   0.984   3.841 -1.3915  0.8609 -1.1688
10144SOL    HW231246   6.866   1.080   3.889 -0.9285 -0.2758  2.2942
10145SOL     OW31247   4.708   1.788   5.723  0.0696 -0.2195  0.0485
10145SOL    HW131248   4.779   1.727   5.702  0.5987  0.5910 -0.5426
10145SOL    HW231249   4.701   1.782   5.819  0.7236 -0.5360  0.0868
10146SOL     OW31250   7.246   6.425   4.298 -0.2164 -0.6578  0.2886
10146SOL    HW131251   7.224   6.518   4.291 -0.2204 -0.7227 -0.5510
10146SOL    HW231252   7.172   6.387   4.345 -0.0841 -0.1873  0.8828
10147SOL     OW31253   1.779   3.338   6.649  0.6676  0.1999  0.1771
10147SOL    HW131254   1.717   3.393   6.601  1.8389  0.8475 -0.6138
10147SOL    HW231255   1.741   3.329   6.736  0.8704  3.0008  0.5937
10148SOL     OW31256   4.622   6.026   4.147 -0.0176 -0.2545 -0.4847
10148SOL    HW131257   4.609   6.024   4.053  0.2617 -0.7358 -0.5151
10148SOL    HW231258   4.544   6.070   4.181  0.4104  0.9476 -1.0271
10149SOL     OW31259   1.991   2.516   3.487  1.0130  0.0614 -0.2056
10149SOL    HW131260   2.059   2.564   3.440  1.8584 -1.5963 -0.7367
10149SOL    HW231261   2.022   2.425   3.488 -0.8615 -0.6081  0.1523
10150SOL     OW31262   6.098   2.081   4.364 -0.0909 -0.1575 -0.1030
10150SOL    HW131263   6.140   2.018   4.306  0.5165  0.6791 -0.5786
10150SOL    HW231264   6.163   2.098   4.432  0.0228  0.5022 -0.3752
10151SOL     OW31265   7.700   3.702   0.269 -0.2369  0.1979  0.1135
10151SOL    HW131266   7.607   3.714   0.289  0.1197  0.1088  1.9115
10151SOL    HW231267   7.727   3.629   0.325  0.8075 -0.1286 -0.7856
10152SOL     OW31268   3.742   4.056   3.740  0.3152 -0.1959  0.0864
10152SOL    HW131269   3.747   4.151   3.755 -1.9052  0.0430 -0.5654
10152SOL    HW231270   3.766   4.017   3.824 -0.2248  0.9692  0.7913
10153SOL     OW31271   1.085   3.185   6.706  0.2991 -0.0110  0.0001
10153SOL    HW131272   1.099   3.280   6.707  3.4182 -0.4117  0.2113
10153SOL    HW231273   1.083   3.161   6.799 -1.1469 -0.0918 -0.0418
10154SOL     OW31274   4.843   0.396   4.489 -0.4369  0.4507 -0.9549
10154SOL    HW131275   4.916   0.458   4.502  0.5402 -0.3400 -2.5467
10154SOL    HW231276   4.768   0.439   4.531  0.9119  1.3221  0.6383
10155SOL     OW31277   6.415   7.458   1.739  0.8974  0.1317  0.0776
10155SOL    HW131278   6.423   7.438   1.646 -1.6203 -2.2542  0.2911
10155SOL    HW231279   6.449   7.380   1.784 -0.5059  0.0739  1.0885
10156SOL     OW31280   0.626   6.993   4.044  0.5177  0.6453 -0.2957
10156SOL    HW131281   0.628   7.041   3.961  3.5284  0.0378 -0.6172
10156SOL    HW231282   0.643   6.902   4.020  0.4464  0.3136  0.8761
10157SOL     OW31283   7.113   5.941   0.622  0.0059  0.2994 -0.0228
10157SOL    HW131284   7.161   5.859   0.615 -0.3646  0.1498 -0.9388
10157SOL    HW231285   7.181   6.009   0.632  0.3193 -0.0878  0.4866
10158SOL     OW31286   4.251   7.285   2.376 -0.4581 -0.2079  0.7649
10158SOL    HW131287   4.226   7.246   2.460  0.8641 -0.6172  0.9874
10158SOL    HW231288   4.252   7.212   2.315  1.0504 -0.3604  0.9594
10159SOL     OW31289   2.868   7.210   5.848 -0.0785  0.3637 -0.1184
10159SOL    HW131290   2.837   7.137   5.794 -0.3047 -0.0052  0.5037
10159SOL    HW231291   2.940   7.173   5.899 -0.6680  0.3802  0.7300
10160SOL     OW31292   3.673   7.095   7.845  0.5681  0.1157 -0.2895
10160SOL    HW131293   3.676   7.184   7.880  0.9654 -0.5920  1.5398
10160SOL    HW231294   3.580   7.074   7.841  0.5081  0.2826  0.1660
10161SOL     OW31295   2.290   1.699   2.284 -0.0362 -0.0999  0.1685
10161SOL    HW131296   2.349   1.624   2.278  0.7595  0.2996  2.6010
10161SOL    HW231297   2.349   1.775   2.279 -0.4368  0.3107  1.4883
10162SOL     OW31298   0.034   0.057   6.532 -0.3029  0.1478 -0.2284
10162SOL    HW131299  -0.013   0.087   6.454 -0.9052  0.0468  0.0981
10162SOL    HW231300   0.066  -0.030   6.508 -2.2125 -0.7163  0.3617
10163SOL     OW31301   6.707   7.342   7.151  0.1703  0.2203 -0.4409
10163SOL    HW131302   6.751   7.287   7.216 -2.1512 -0.3137  0.7603
10163SOL    HW231303   6.754   7.326   7.070  1.5687 -1.0446  0.5922
10164SOL     OW31304   6.628   2.284   6.001  0.3484 -0.3890 -0.2620
10164SOL    HW131305   6.661   2.367   6.034 -2.6770  0.2901  1.2697
10164SOL    HW231306   6.583   2.306   5.919  1.7544 -0.9474 -1.1986
10165SOL     OW31307   5.364   6.918   6.032 -0.1600  0.0255  0.1545
10165SOL    HW131308   5.411   6.881   5.958  1.3873  1.3432  0.4487
10165SOL    HW231309   5.277   6.939   5.997  0.1247 -0.5695 -0.9294
10166SOL     OW31310   2.788   5.569   1.287 -0.2111  0.1679 -0.1712
10166SOL    HW131311   2.724   5.639   1.304 -1.1239 -0.7657  0.2968
10166SOL    HW231312   2.784   5.513   1.364  0.6277 -0.3284 -0.4764
10167SOL     OW31313   6.840   0.807   7.612  0.2252  0.1317 -0.7371
10167SOL    HW131314   6.858   0.900   7.598  1.5749 -0.1383 -0.9062
10167SOL    HW231315   6.920   0.763   7.584  0.0236 -0.9924  0.3998
10168SOL     OW31316   1.257   7.161   7.825  0.4357  0.0334 -0.7083
10168SOL    HW131317   1.192   7.210   7.877  0.8501 -0.3919  0.2344
10168SOL    HW231318   1.251   7.198   7.737 -0.9444  0.1357 -0.5791
10169SOL     OW31319   5.458   2.096   7.856  0.3930 -0.1698  0.2978
10169SOL    HW131320   5.507   2.170   7.822  1.0823 -0.5937  0.3654
10169SOL    HW231321   5.436   2.121   7.945  0.2659  0.1233  0.1874
10170SOL     OW31322   4.841   7.845   6.244 -0.3076 -0.4152  0.2778
10170SOL    HW131323   4.847   7.892   6.326 -1.5013  1.2783 -0.5716
10170SOL    HW231324   4.887   7.900   6.180 -1.1559 -0.6904 -0.5909
10171SOL     OW31325   4.547   4.112   4.433 -0.3433 -0.5101  0.1773
10171SOL    HW131326   4.565   4.092   4.525  0.9073  1.1889  0.3283
10171SOL    HW231327   4.632   4.107   4.391 -0.7373 -0.1362 -0.6674
10172SOL     OW31328   2.265   6.228   5.245 -0.0612 -0.4515 -0.4933
10172SOL    HW131329   2.349   6.183   5.257 -0.5393 -1.3238 -0.3591
10172SOL    HW231330   2.203   6.158   5.225 -1.6186 -0.3696  3.5738
10173SOL     OW31331   2.548   3.073   3.172  0.8499  0.4868 -0.0851
10173SOL    HW131332   2.476   3.135   3.186 -0.5709 -1.5719  2.2111
10173SOL    HW231333   2.559   3.070   3.077 -2.3132  0.6741 -0.5236
10174SOL     OW31334   6.203   4.643   5.007  0.4067  0.2360  0.3367
10174SOL    HW131335   6.289   4.666   4.971  0.7121 -0.6961  0.4393
10174SOL    HW231336   6.219   4.562   5.055 -0.7887 -0.6670 -0.7481
10175SOL     OW31337   5.231   0.403   0.998  0.2055 -0.0632  0.2615
10175SOL    HW131338   5.190   0.339   0.941 -0.3048 -0.6735  1.2953
10175SOL    HW231339   5.170   0.412   1.072  1.2741  0.0088  1.1530
10176SOL     OW31340   5.324   1.506   0.634 -0.1864 -0.4174  0.1375
10176SOL    HW131341   5.264   1.496   0.560  1.0000 -0.8888 -0.7813
10176SOL    HW231342   5.409   1.525   0.593  1.1267 -3.6809  1.2116
10177SOL     OW31343   6.124   2.763   5.169 -0.1642 -0.2344 -0.2865
10177SOL    HW131344   6.065   2.786   5.241  1.2521 -0.4477  0.9608
10177SOL    HW231345   6.102   2.825   5.100  0.3967  1.8474  1.3473
10178SOL     OW31346   2.207   2.549   2.157  0.3201 -0.9304 -0.0367
10178SOL    HW131347   2.177   2.638   2.169  0.9205 -0.7630  0.2709
10178SOL    HW231348   2.199   2.532   2.063  0.7407 -0.3581 -0.1766
10179SOL     OW31349   1.141   4.365   1.326  0.2290 -0.4605  1.0228
10179SOL    HW131350   1.046   4.365   1.330  0.2923  0.0169  2.5088
10179SOL    HW231351   1.161   4.308   1.251 -1.2349  0.7306 -0.3179
10180SOL     OW31352   1.401   0.910   3.697  0.4901 -0.2829  0.1367
10180SOL    HW131353   1.412   0.815   3.697  1.6799 -0.1525 -0.0189
10180SOL    HW231354   1.482   0.943   3.659 -0.6684  0.7252 -1.4904
10181SOL     OW31355   4.555   2.828   2.043 -0.4886  1.0867 -0.7615
10181SOL    HW131356   4.624   2.883   2.081  0.8529  0.7528 -2.6597
10181SOL    HW231357   4.521   2.879   1.970  0.3452 -0.3291 -2.1571
10182SOL     OW31358   5.364   2.946   7.360  0.1569 -0.0073 -0.2959
10182SOL    HW131359   5.312   2.966   7.282  2.6637 -2.4435 -2.6923
10182SOL    HW231360   5.453   2.970   7.337  1.2007 -2.2745  1.2184
10183SOL     OW31361   0.009   5.775   2.121  0.0335 -0.2924 -0.1337
10183SOL    HW131362   0.027   5.712   2.190  0.0373  1.6912  1.7415
10183SOL    HW231363   0.095   5.799   2.087  0.0352 -1.2222 -0.8103
10184SOL     OW31364   2.334   4.971   0.786 -0.1235 -0.3625 -0.2385
10184SOL    HW131365   2.298   5.007   0.867 -1.8391  1.0417 -1.5757
10184SOL    HW231366   2.358   5.048   0.734 -1.4664 -1.1881 -2.1134
10185SOL     OW31367   5.298   5.622   7.308 -0.0633  0.6585 -0.4362
10185SOL    HW131368   5.308   5.580   7.223 -1.9912  1.4979 -1.1165
10185SOL    HW231369   5.282   5.715   7.288  1.3301  1.2281  0.9181
10186SOL     OW31370   5.370   0.237   6.747 -0.3604  0.2154 -0.3266
10186SOL    HW131371   5.399   0.310   6.803 -2.0832  0.6619  0.0023
10186SOL    HW231372   5.449   0.211   6.699  0.4310  1.8598  0.0471
10187SOL     OW31373   2.130   0.118   5.079  0.2740  0.0265  0.0847
10187SOL    HW131374   2.108   0.028   5.103 -1.8730  0.1735 -1.2416
10187SOL    HW231375   2.226   0.122   5.087  0.2463 -1.8945  1.7349
10188SOL     OW31376   3.234   4.565   4.389  0.7475  0.0447 -0.0952
10188SOL    HW131377   3.207   4.653   4.413  1.4557  0.7163 -1.7165
10188SOL    HW231378   3.268   4.573   4.300  0.7454 -1.8764 -0.2968
10189SOL     OW31379   5.982   0.074   0.881  0.4694  0.4737 -0.3618
10189SOL    HW131380   6.036   0.153   0.889 -0.4327  0.9996  0.5202
10189SOL    HW231381   6.044   0.001   0.888  0.9676  1.0585  1.5046
10190SOL     OW31382   6.429   1.370   4.535  0.2726  0.9779  0.5460
10190SOL    HW131383   6.375   1.291   4.541  0.8672  0.4237 -1.1165
10190SOL    HW231384   6.519   1.338   4.543  0.4443  1.7408  1.9202
10191SOL     OW31385   4.693   7.336   4.187  0.1925 -0.4514  0.0806
10191SOL    HW131386   4.630   7.269   4.209  0.1020 -1.1423 -2.1370
10191SOL    HW231387   4.672   7.361   4.096  1.3917  1.2219  0.2226
10192SOL     OW31388   1.592   4.601   5.725  0.2055 -0.1267  0.2059
10192SOL    HW131389   1.505   4.642   5.727 -0.8515 -2.2518 -0.5512
10192SOL    HW231390   1.618   4.605   5.633 -0.3851 -2.0493 -0.0698
10193SOL     OW31391   5.371   7.883   5.885 -0.2398  0.3040  0.2772
10193SOL    HW131392   5.373   7.792   5.854  0.9678  0.1249  0.8590
10193SOL    HW231393   5.462   7.905   5.903 -0.7524  0.8002  2.5381
10194SOL     OW31394   3.273   1.715   3.679 -0.4147  0.1776 -0.0918
10194SOL    HW131395   3.204   1.734   3.743 -0.4949 -2.5526  0.6907
10194SOL    HW231396   3.234   1.736   3.595 -0.7249  2.6802  0.6302
10195SOL     OW31397   6.866   6.559   6.506 -0.2289 -0.1919 -0.1477
10195SOL    HW131398   6.952   6.547   6.466  0.4639  0.0404  1.2638
10195SOL    HW231399   6.850   6.653   6.499 -0.5054 -0.2716 -0.6592
10196SOL     OW31400   1.938   2.479   0.708 -0.0075 -0.2996  0.2243
10196SOL    HW131401   2.012   2.425   0.736  0.7256  1.2717  1.3867
10196SOL    HW231402   1.972   2.532   0.636  0.1872  0.9217  1.2184
10197SOL     OW31403   3.985   1.534   1.911 -0.1429 -0.2581 -0.1208
10197SOL    HW131404   3.927   1.467   1.875  1.4129 -2.6058  1.6163
10197SOL    HW231405   4.065   1.527   1.859  0.2876 -0.2439  0.5386
10198SOL     OW31406   0.553   1.002   7.694 -0.9329 -0.0226  0.4471
10198SOL    HW131407   0.519   1.050   7.769  0.3636  1.5284  0.0783
10198SOL    HW231408   0.479   0.997   7.633 -1.1008  1.4841  0.5125
10199SOL     OW31409   5.324   1.145   1.916 -0.1119  0.2792  0.3258
10199SOL    HW131410   5.360   1.082   1.978 -1.1642  0.6875  1.3568
10199SOL    HW231411   5.238   1.110   1.893 -0.1961  0.7221 -0.0312
10200SOL     OW31412   3.510   0.693   5.799 -0.1917  0.0878 -0.0039
10200SOL    HW131413   3.425   0.684   5.756 -0.2794  2.6607 -0.4640
10200SOL    HW231414   3.573   0.694   5.727 -0.0855  1.3952  0.0798
10201SOL     OW31415   7.854   4.711   1.458  0.1357  0.2826 -0.0813
10201SOL    HW131416   7.890   4.638   1.408 -0.9443  0.1617 -0.6915
10201SOL    HW231417   7.898   4.706   1.543 -0.0488 -1.1605 -0.0630
10202SOL     OW31418   1.319   0.653   0.432  0.3652 -0.3864  0.4790
10202SOL    HW131419   1.371   0.700   0.498 -0.4259  0.3637  0.5642
10202SOL    HW231420   1.335   0.701   0.351 -1.0508  0.4916  0.7160
10203SOL     OW31421   5.598   1.122   3.804  0.5009  0.2899  0.2376
10203SOL    HW131422   5.561   1.200   3.762 -0.7501 -0.2380  0.3335
10203SOL    HW231423   5.548   1.049   3.767  1.1298 -0.4029  0.7461
10204SOL     OW31424   5.751   1.338   2.104  0.1647  0.0488 -0.1456
10204SOL    HW131425   5.682   1.333   2.038  0.7109  0.0380 -0.7239
10204SOL    HW231426   5.729   1.270   2.167 -1.2997  1.1850  0.6042
10205SOL     OW31427   7.520   7.682   5.288 -0.0739 -0.2970  0.2586
10205SOL    HW131428   7.606   7.712   5.317  0.3405 -1.3237  0.0757
10205SOL    HW231429   7.459   7.747   5.325  0.9023  1.4664 -1.1442
10206SOL     OW31430   2.028   4.989   5.970 -0.1396  0.0184  0.2544
10206SOL    HW131431   2.079   5.031   5.901  1.9305 -2.0101  0.4828
10206SOL    HW231432   1.949   4.959   5.927 -0.6997  2.2773 -0.3449
10207SOL     OW31433   7.404   0.054   5.189  0.4063  0.1939  0.3584
10207SOL    HW131434   7.498   0.074   5.192  0.4731  0.3788 -1.8676
10207SOL    HW231435   7.364   0.136   5.160 -0.4681  0.1519  1.4346
10208SOL     OW31436   1.566   7.003   0.741  0.2095 -0.2169 -0.1495
10208SOL    HW131437   1.525   7.051   0.813  0.9106 -0.8017  0.6415
10208SOL    HW231438   1.505   7.014   0.667  0.1621  1.5579  0.1269
10209SOL     OW31439   7.949   4.106   7.047  0.1480  0.4420 -0.6048
10209SOL    HW131440   7.999   4.028   7.021  1.2159  0.9620 -0.1180
10209SOL    HW231441   7.919   4.086   7.136 -1.0034 -0.1073 -1.1105
10210SOL     OW31442   6.463   6.937   2.161 -0.0310 -0.1761  0.1268
10210SOL    HW131443   6.433   6.881   2.233  0.9863 -0.7539  0.1103
10210SOL    HW231444   6.441   7.026   2.190 -0.1165 -0.4451  0.9131
10211SOL     OW31445   3.595   0.027   7.969 -0.2637 -0.1440  0.0653
10211SOL    HW131446   3.625   0.116   7.987 -0.0847 -0.2290  0.1864
10211SOL    HW231447   3.630   0.007   7.883 -2.9082  1.0654 -1.3683
10212SOL     OW31448   1.418   3.178   0.426 -0.1196  0.2274  0.1171
10212SOL    HW131449   1.425   3.126   0.346 -1.5417  0.5614 -0.2339
10212SOL    HW231450   1.503   3.167   0.469  0.8116  0.3607 -1.6214
10213SOL     OW31451   4.255   5.928   1.326 -0.5363  0.2588 -0.2653
10213SOL    HW131452   4.290   5.918   1.415  0.0873 -0.8407 -0.6379
10213SOL    HW231453   4.215   6.015   1.327  0.1078  0.5604  0.8792
10214SOL     OW31454   7.465   4.192   7.154  0.4263  0.0041  0.0848
10214SOL    HW131455   7.456   4.150   7.239  2.3491 -1.2584 -0.2989
10214SOL    HW231456   7.376   4.198   7.119 -0.0682 -2.0741  0.9432
10215SOL     OW31457   5.993   1.973   7.424  0.0961 -0.7565  0.2515
10215SOL    HW131458   5.913   1.978   7.476  0.6077  0.1178  0.9615
10215SOL    HW231459   5.971   2.015   7.341  0.3691  1.1810  1.1475
10216SOL     OW31460   1.525   3.648   1.048  0.3639  0.0798  0.0125
10216SOL    HW131461   1.471   3.626   1.125  0.2457 -0.6020 -0.2620
10216SOL    HW231462   1.557   3.563   1.017  3.5501  0.6436  1.5802
10217SOL     OW31463   3.338   7.314   6.924 -0.3295 -0.2644  0.2788
10217SOL    HW131464   3.348   7.221   6.947  0.5999 -0.0506  0.7823
10217SOL    HW231465   3.342   7.360   7.008 -0.5518  0.2548  0.0095
10218SOL     OW31466   4.608   3.398   5.869  0.5531  0.3900 -0.7379
10218SOL    HW131467   4.556   3.463   5.915  0.9535  0.7935 -0.8520
10218SOL    HW231468   4.635   3.336   5.937  1.4366  1.1762 -0.3673
10219SOL     OW31469   6.579   3.052   7.297 -0.1402  0.9278  0.0689
10219SOL    HW131470   6.502   3.025   7.347 -0.3448  1.2273 -0.0834
10219SOL    HW231471   6.604   3.136   7.335  0.4172  0.5937  0.4543
10220SOL     OW31472   4.626   1.039   5.492 -0.9582  0.1376 -1.0636
10220SOL    HW131473   4.532   1.052   5.498 -1.1031 -0.2814 -2.3238
10220SOL    HW231474   4.644   1.035   5.398  0.6881  2.8641 -0.9240
10221SOL     OW31475   4.685   7.305   3.901 -0.2846 -0.0505  0.1753
10221SOL    HW131476   4.651   7.216   3.890  0.3527 -0.1082 -1.5286
10221SOL    HW231477   4.609   7.361   3.885 -0.1377 -0.2399 -1.2594
10222SOL     OW31478   7.210   5.192   7.989 -0.3849  0.2095 -0.1743
10222SOL    HW131479   7.176   5.261   8.047 -0.0180 -0.5844  1.0174
10222SOL    HW231480   7.158   5.200   7.909 -1.9450  0.3645  0.8300
10223SOL     OW31481   1.603   4.900   0.022 -0.0435  1.0353 -0.0473
10223SOL    HW131482   1.565   4.866  -0.059 -0.0000 -0.7021  0.6503
10223SOL    HW231483   1.561   4.850   0.092  1.6358  0.8837  0.8738
10224SOL     OW31484   7.111   2.384   2.044 -0.0640  0.7239  0.4136
10224SOL    HW131485   7.152   2.467   2.067 -0.2039  0.5223  1.4199
10224SOL    HW231486   7.077   2.350   2.127 -1.3683  0.4014 -0.2281
10225SOL     OW31487   3.878   7.634   4.396  0.2881  0.1024 -0.1597
10225SOL    HW131488   3.910   7.719   4.428  1.0176 -0.0034 -0.6017
10225SOL    HW231489   3.788   7.652   4.367  0.9869  1.1097 -1.8053
10226SOL     OW31490   0.183   2.483   6.540  0.1937 -0.2130  0.1414
10226SOL    HW131491   0.219   2.459   6.626 -0.8422  1.3298  1.0414
10226SOL    HW231492   0.258   2.486   6.482  0.9975 -0.6902  1.1357
10227SOL     OW31493   2.607   3.737   4.485 -0.6040  0.4975 -0.3297
10227SOL    HW131494   2.619   3.668   4.550 -0.4419  0.3753 -0.4882
10227SOL    HW231495   2.674   3.720   4.419 -0.6412  0.7355 -0.4304
10228SOL     OW31496   6.614   2.493   7.672  0.5307  0.5400 -0.0174
10228SOL    HW131497   6.676   2.470   7.602  0.5298 -0.1028  0.1933
10228SOL    HW231498   6.544   2.540   7.627  0.4827  0.0391 -0.4700
10229SOL     OW31499   4.043   7.872   1.509 -0.1937 -0.2364  0.1507
10229SOL    HW131500   4.120   7.919   1.475 -0.0932  0.0955  0.8419
10229SOL    HW231501   4.018   7.920   1.587 -1.3938 -0.0729 -0.3209
10230SOL     OW31502   5.024   5.210   4.558 -0.1707  0.2989  0.3602
10230SOL    HW131503   4.945   5.257   4.582 -0.2235  0.3522  0.0830
10230SOL    HW231504   5.021   5.205   4.463 -0.6982 -1.1769  0.4384
10231SOL     OW31505   6.243   5.631   6.843 -0.4622 -0.0352  0.7813
10231SOL    HW131506   6.293   5.550   6.855  0.6885  0.6188  0.4109
10231SOL    HW231507   6.187   5.614   6.768  2.3503  0.7491 -1.5585
10232SOL     OW31508   1.093   4.802   7.756  0.8162 -0.4525  0.2518
10232SOL    HW131509   1.132   4.854   7.827  0.2151 -0.1426  0.3631
10232SOL    HW231510   1.047   4.867   7.702  0.1708 -0.8508  0.3167
10233SOL     OW31511   0.492   7.948   3.005  0.3004 -0.1106  0.2662
10233SOL    HW131512   0.426   7.898   3.054  2.1857  0.0085  3.0641
10233SOL    HW231513   0.491   8.034   3.046  1.0964  0.3773 -0.7408
10234SOL     OW31514   3.043   4.352   6.124 -0.0249  0.1744  0.6337
10234SOL    HW131515   3.053   4.376   6.217 -1.2009  0.4157  0.7029
10234SOL    HW231516   3.053   4.257   6.123  2.1132  0.3623  0.7076
10235SOL     OW31517   4.073   6.705   6.599 -0.1440 -0.2317 -0.5869
10235SOL    HW131518   4.037   6.623   6.632 -0.4664  1.0404  2.3910
10235SOL    HW231519   4.135   6.678   6.531 -1.6597 -2.8090 -1.0350
10236SOL     OW31520   3.135   7.121   5.059 -0.1767 -0.0611 -0.4029
10236SOL    HW131521   3.076   7.047   5.068  1.1368 -0.7298  3.5936
10236SOL    HW231522   3.078   7.198   5.061 -1.0761 -0.7529  1.9910
10237SOL     OW31523   5.410   6.282   1.179 -0.1073  0.7681 -0.3977
10237SOL    HW131524   5.330   6.283   1.231 -0.6297  1.3641 -1.2053
10237SOL    HW231525   5.467   6.346   1.221 -0.8068  1.7928 -0.9757
10238SOL     OW31526   3.115   3.973   1.608 -0.6165 -0.1070  0.0759
10238SOL    HW131527   3.124   4.024   1.688 -0.7573  1.3395 -0.8051
10238SOL    HW231528   3.197   3.987   1.561 -0.3900 -1.2345  0.1334
10239SOL     OW31529   3.263   0.952   6.201 -0.5556 -0.3291 -0.6005
10239SOL    HW131530   3.321   0.952   6.277  0.7370  0.5940 -1.5661
10239SOL    HW231531   3.284   0.871   6.155  0.5364  0.3684 -1.3560
10240SOL     OW31532   6.329   3.340   2.739 -0.0000 -0.0022 -0.6157
10240SOL    HW131533   6.248   3.357   2.787 -0.7047 -0.1039 -1.7474
10240SOL    HW231534   6.394   3.321   2.807 -0.6185  1.3261  0.3540
10241SOL     OW31535   7.734   3.014   3.498  0.7741  0.6558  0.0973
10241SOL    HW131536   7.645   3.049   3.489  0.3433 -0.1499  1.1109
10241SOL    HW231537   7.791   3.087   3.474 -0.1613  1.0707 -0.9206
10242SOL     OW31538   6.883   6.777   5.275 -0.4799 -0.5108 -0.5485
10242SOL    HW131539   6.805   6.767   5.220 -0.6520 -0.5015 -0.3053
10242SOL    HW231540   6.942   6.707   5.246 -0.7326 -0.7564 -0.4730
10243SOL     OW31541   6.586   5.700   6.365  0.4704  0.6986 -0.3642
10243SOL    HW131542   6.539   5.778   6.336 -0.7875 -0.5931 -1.8459
10243SOL    HW231543   6.524   5.653   6.421  1.2934  0.8310  0.6872
10244SOL     OW31544   0.501   0.435   2.185 -0.2435  0.0723  0.4594
10244SOL    HW131545   0.466   0.446   2.097 -0.3829 -2.5282  0.1799
10244SOL    HW231546   0.437   0.480   2.241 -1.6068 -0.6367 -0.4983
10245SOL     OW31547   4.265   6.486   7.297  0.6820  0.1739  0.2285
10245SOL    HW131548   4.185   6.521   7.259 -1.0142 -2.5501  1.1437
10245SOL    HW231549   4.323   6.471   7.222  0.7554  3.0257 -0.3453
10246SOL     OW31550   5.887   2.294   4.930 -0.2000  0.4245  0.1510
10246SOL    HW131551   5.794   2.299   4.908 -0.4246  0.7254  1.1519
10246SOL    HW231552   5.921   2.381   4.909 -0.1351  0.3012 -0.2558
10247SOL     OW31553   0.578   0.212   5.825  0.6762  0.4710  0.5861
10247SOL    HW131554   0.558   0.125   5.789 -0.9161  1.2556 -0.4721
10247SOL    HW231555   0.659   0.237   5.783  2.4165 -1.4472  2.6149
10248SOL     OW31556   7.009   2.147   5.326  0.4634 -0.0122  0.6354
10248SOL    HW131557   6.931   2.174   5.375  0.0155 -0.3818  0.1430
10248SOL    HW231558   7.001   2.051   5.319  1.3959 -0.1422  1.3029
10249SOL     OW31559   3.760   0.599   5.376  0.4410  0.3554  0.3962
10249SOL    HW131560   3.749   0.504   5.370  0.0582  0.4134  0.1246
10249SOL    HW231561   3.746   0.630   5.286 -0.0891  0.7310  0.6044
10250SOL     OW31562   7.478   7.580   3.259 -0.4796  0.6627  0.7208
10250SOL    HW131563   7.532   7.543   3.329 -1.3020  0.6553  1.3587
10250SOL    HW231564   7.541   7.614   3.196  0.2767  0.1237  1.1695
10251SOL     OW31565   6.445   5.746   4.642 -0.0548  0.0510  0.0728
10251SOL    HW131566   6.528   5.782   4.673  1.7639 -1.3033 -3.0246
10251SOL    HW231567   6.413   5.812   4.580 -1.2674  0.4910  1.1341
10252SOL     OW31568   3.457   0.448   7.193  0.1430 -0.0639 -0.2307
10252SOL    HW131569   3.423   0.405   7.271  0.6432  0.8063  0.4823
10252SOL    HW231570   3.532   0.499   7.225 -0.6239  1.5757 -0.9943
10253SOL     OW31571   2.986   7.436   7.974 -0.5246 -0.0390 -0.3002
10253SOL    HW131572   2.932   7.473   8.044  0.1576 -1.3359  0.9356
10253SOL    HW231573   2.965   7.343   7.974  0.0701 -0.1854 -1.3009
10254SOL     OW31574   1.734   2.489   4.425 -0.0281  0.1807  0.3081
10254SOL    HW131575   1.823   2.477   4.459  0.0131 -0.7178 -0.1104
10254SOL    HW231576   1.730   2.432   4.348 -0.8116  0.5863  0.0430
10255SOL     OW31577   3.025   3.668   0.608 -0.1780  0.6440  0.0108
10255SOL    HW131578   2.972   3.589   0.602  0.4301  0.2928 -0.7772
10255SOL    HW231579   2.964   3.740   0.593 -0.7290  0.3329  0.7318
10256SOL     OW31580   5.618   7.134   4.390 -0.1521 -0.3295 -0.0772
10256SOL    HW131581   5.665   7.207   4.349  2.1047 -0.5646  2.0217
10256SOL    HW231582   5.661   7.055   4.356  0.1223 -0.5780  0.8261
10257SOL     OW31583   1.947   5.278   4.880  0.1640 -0.4465 -0.3885
10257SOL    HW131584   1.877   5.281   4.945  1.3204  0.4385  0.8461
10257SOL    HW231585   1.980   5.188   4.885  0.1691 -0.4159  0.1845
10258SOL     OW31586   0.261   7.737   5.423 -0.2358  0.4723  0.4524
10258SOL    HW131587   0.210   7.815   5.446  0.7189  0.7155  1.7745
10258SOL    HW231588   0.328   7.731   5.491  1.0814 -0.2367 -0.8957
10259SOL     OW31589   2.684   7.100   6.118  0.3904 -0.4648  0.0550
10259SOL    HW131590   2.733   7.176   6.089  0.8406 -0.2311  1.3898
10259SOL    HW231591   2.750   7.032   6.131  0.0669 -0.8932 -0.5074
10260SOL     OW31592   3.563   4.575   6.737  0.3289  0.0850 -0.1793
10260SOL    HW131593   3.612   4.558   6.817  0.3596  0.4016 -0.1303
10260SOL    HW231594   3.569   4.670   6.724  1.9267 -0.1853 -1.5986
10261SOL     OW31595   7.251   4.320   0.820 -0.1507 -0.1465 -0.2135
10261SOL    HW131596   7.280   4.297   0.731  1.7251  0.8114  0.1306
10261SOL    HW231597   7.160   4.347   0.809 -0.2998 -1.2034 -1.6675
10262SOL     OW31598   5.475   6.882   1.801  0.2203  0.2013 -0.3803
10262SOL    HW131599   5.480   6.813   1.867 -2.2180 -1.2325 -1.5904
10262SOL    HW231600   5.514   6.959   1.843  1.3559 -1.4278  1.6458
10263SOL     OW31601   3.505   3.764   0.784  0.2360 -0.4982  0.3036
10263SOL    HW131602   3.531   3.729   0.699  1.1389 -0.0114  0.3713
10263SOL    HW231603   3.505   3.689   0.843  0.8331 -0.6256  0.1456
10264SOL     OW31604   4.150   5.968   6.009  0.5225 -0.5354 -0.0474
10264SOL    HW131605   4.087   5.990   5.941  0.5245  0.3838  0.2449
10264SOL    HW231606   4.182   6.052   6.041  0.3535 -0.9440  1.2566
10265SOL     OW31607   6.052   6.024   6.209 -0.2079  0.6483  0.1631
10265SOL    HW131608   6.077   6.059   6.124 -0.0522  0.8730  0.2994
10265SOL    HW231609   6.042   5.930   6.195 -0.6867  0.7537 -0.2196
10266SOL     OW31610   0.249   3.887   7.442 -0.1429  0.1153 -0.2752
10266SOL    HW131611   0.195   3.946   7.389 -1.0832 -0.9578 -0.5388
10266SOL    HW231612   0.196   3.808   7.451  1.2883 -0.8654 -0.3176
10267SOL     OW31613   4.004   2.031   0.315  0.0773 -0.1712 -0.2070
10267SOL    HW131614   3.941   2.096   0.283  0.0049 -0.4410 -0.6187
10267SOL    HW231615   3.953   1.950   0.322 -0.0824  0.0328  1.2601
10268SOL     OW31616   2.481   5.694   1.954  0.0479  0.2858  0.1470
10268SOL    HW131617   2.504   5.759   1.888 -0.9625  0.0799 -0.4272
10268SOL    HW231618   2.544   5.623   1.941  0.0499  0.3831 -0.3939
10269SOL     OW31619   0.820   5.770   6.226 -0.2481 -0.2488 -0.6684
10269SOL    HW131620   0.842   5.677   6.215 -1.8462 -0.6015 -0.9175
10269SOL    HW231621   0.734   5.779   6.187 -1.2824  0.7805  1.7700
10270SOL     OW31622   5.591   2.470   1.227  0.1979  0.4669 -0.0805
10270SOL    HW131623   5.506   2.503   1.255 -0.3136  0.2108 -1.2816
10270SOL    HW231624   5.654   2.534   1.261 -0.3930  0.1945  1.5465
10271SOL     OW31625   7.007   2.259   4.353  0.5538  0.2287 -0.4743
10271SOL    HW131626   7.019   2.222   4.440  2.0079  2.0449  0.1458
10271SOL    HW231627   6.930   2.215   4.318  0.4586 -1.1387  1.3872
10272SOL     OW31628   3.976   1.473   0.588 -0.0246  0.2243 -0.0708
10272SOL    HW131629   3.999   1.418   0.513 -0.1979 -0.2443  0.2194
10272SOL    HW231630   4.044   1.540   0.590  0.9537 -0.7434  0.3607
10273SOL     OW31631   1.849   3.001   6.670  0.6815 -0.2693  0.2612
10273SOL    HW131632   1.838   3.051   6.589  2.2778  0.2534  0.3403
10273SOL    HW231633   1.888   3.063   6.731 -0.9648 -0.5153  1.6050
10274SOL     OW31634   3.650   2.656   6.739  0.0637 -0.3035  0.0711
10274SOL    HW131635   3.684   2.690   6.656  1.8626 -0.1607  0.8581
10274SOL    HW231636   3.582   2.594   6.713  1.3696 -1.0798 -1.5577
10275SOL     OW31637   3.545   4.664   5.134  0.5206  0.3850 -0.2596
10275SOL    HW131638   3.464   4.685   5.087 -0.0442  0.7380  0.8752
10275SOL    HW231639   3.577   4.748   5.166  1.2078  0.2125 -0.4884
10276SOL     OW31640   0.093   0.392   3.394 -0.3911  0.2710 -0.5383
10276SOL    HW131641   0.046   0.473   3.414  1.9147  1.1004  1.7502
10276SOL    HW231642   0.137   0.410   3.311 -3.4160 -0.2562 -2.3178
10277SOL     OW31643   1.518   7.891   1.897 -0.8116 -0.0585 -0.1320
10277SOL    HW131644   1.482   7.869   1.812 -0.6782  0.3121 -0.2859
10277SOL    HW231645   1.560   7.977   1.885 -1.7765  0.5289  0.5821
10278SOL     OW31646   5.468   0.015   7.618  0.2547 -0.1611 -0.0634
10278SOL    HW131647   5.374   0.022   7.601 -0.1622 -1.4810  1.5191
10278SOL    HW231648   5.473  -0.020   7.707  2.2577  0.2387 -0.0077
10279SOL     OW31649   7.279   4.679   4.775  0.1806  0.3059  0.3723
10279SOL    HW131650   7.339   4.748   4.746  0.9273 -0.8388 -0.8913
10279SOL    HW231651   7.289   4.676   4.870  2.1153  0.1836  0.1888
10280SOL     OW31652   3.976   6.325   5.561 -0.6030 -0.0476 -0.1457
10280SOL    HW131653   4.046   6.389   5.577 -0.6937  0.2294 -0.8517
10280SOL    HW231654   3.938   6.351   5.477 -1.1348 -0.5827 -0.0746
10281SOL     OW31655   6.093   4.071   3.465 -0.2323  0.5719  0.4218
10281SOL    HW131656   6.053   4.153   3.494 -2.3299 -0.6923  1.1617
10281SOL    HW231657   6.020   4.011   3.453  1.3322 -1.3919  0.5148
10282SOL     OW31658   7.331   3.950   5.490  0.3099  0.0821 -0.3597
10282SOL    HW131659   7.239   3.958   5.516  0.4847  1.4600 -0.1302
10282SOL    HW231660   7.379   3.948   5.573  0.4077 -2.0047 -0.4358
10283SOL     OW31661   7.727   7.173   0.348 -0.2137  0.4026 -1.2182
10283SOL    HW131662   7.777   7.250   0.320  0.8504  0.7402  1.4636
10283SOL    HW231663   7.771   7.099   0.308  1.7636  0.8098  0.1157
10284SOL     OW31664   1.310   0.935   3.963 -0.0572  0.6915  0.3312
10284SOL    HW131665   1.357   0.935   3.879 -1.3890  0.6167 -0.4357
10284SOL    HW231666   1.354   0.868   4.015 -2.2954 -2.8945 -2.1174
10285SOL     OW31667   4.588   3.782   2.394 -0.2961 -0.3487  0.2669
10285SOL    HW131668   4.501   3.809   2.424 -0.3029  1.2790 -1.1878
10285SOL    HW231669   4.583   3.786   2.299  1.5690  0.3896  0.1883
10286SOL     OW31670   7.514   6.867   5.695  0.1946  0.1550  0.4417
10286SOL    HW131671   7.532   6.857   5.602 -1.7411 -0.2199  0.0737
10286SOL    HW231672   7.420   6.889   5.698  0.2376  0.1241  2.2956
10287SOL     OW31673   3.751   2.653   3.170 -0.4016  0.0387  0.3341
10287SOL    HW131674   3.726   2.566   3.201  1.1181 -0.8795 -0.8941
10287SOL    HW231675   3.671   2.691   3.135 -1.0312 -0.9527  0.6903
10288SOL     OW31676   1.674   2.048   3.355  0.1930  0.3503  0.3625
10288SOL    HW131677   1.603   2.003   3.402  1.1463 -2.6891 -1.0014
10288SOL    HW231678   1.634   2.075   3.272  0.3435 -0.4277  0.0351
10289SOL     OW31679   2.201   7.187   6.934 -0.3825  0.1581  0.1970
10289SOL    HW131680   2.150   7.235   6.868  0.0030  1.8890  1.1213
10289SOL    HW231681   2.226   7.106   6.890  0.8746  1.7798 -2.2077
10290SOL     OW31682   6.906   7.298   0.657 -0.3517 -0.3697 -0.2177
10290SOL    HW131683   6.878   7.388   0.673 -0.7777 -0.3748 -0.9117
10290SOL    HW231684   6.922   7.262   0.745 -0.3005  0.3368  0.0679
10291SOL     OW31685   6.406   5.714   0.836 -0.0572 -0.3540 -0.5462
10291SOL    HW131686   6.380   5.784   0.776 -1.6781  0.0197  0.5554
10291SOL    HW231687   6.408   5.756   0.922 -0.9733 -1.6353  0.1184
10292SOL     OW31688   1.034   7.346   1.695  0.6962 -0.2497  0.2269
10292SOL    HW131689   0.982   7.285   1.642  0.8769  1.7183 -2.3420
10292SOL    HW231690   1.018   7.320   1.785 -2.7310 -1.3222 -0.6154
10293SOL     OW31691   4.854   7.164   4.864 -0.0439 -0.0007  0.5356
10293SOL    HW131692   4.791   7.210   4.920 -1.9377  0.1235 -1.6274
10293SOL    HW231693   4.905   7.110   4.925 -0.5049  1.8444  2.6345
10294SOL     OW31694   4.164   4.671   5.790  0.2956  1.0313 -0.0897
10294SOL    HW131695   4.192   4.593   5.837  1.6771  1.1906 -0.6482
10294SOL    HW231696   4.069   4.675   5.806 -0.0047 -1.4090 -1.0102
10295SOL     OW31697   3.269   2.107   1.872 -0.0220 -0.3474  0.6119
10295SOL    HW131698   3.287   2.199   1.853  0.7967 -0.4131  1.0904
10295SOL    HW231699   3.323   2.087   1.948 -0.7789 -1.0161  0.9785
10296SOL     OW31700   2.178   6.206   2.121 -0.0917 -0.2093 -0.6667
10296SOL    HW131701   2.237   6.141   2.160  0.1360 -0.1373 -0.8931
10296SOL    HW231702   2.147   6.166   2.040  0.4805  0.1862 -1.0867
10297SOL     OW31703   1.825   5.363   6.952 -0.2087 -0.0976  0.6511
10297SOL    HW131704   1.870   5.394   6.874 -1.1459  1.7273  0.8003
10297SOL    HW231705   1.738   5.337   6.921  0.6244 -2.8806  0.4906
10298SOL     OW31706   7.529   2.217   1.418  0.1169 -0.1002 -0.3355
10298SOL    HW131707   7.569   2.136   1.388  2.5774  1.5314 -1.5803
10298SOL    HW231708   7.530   2.210   1.514 -0.4857 -1.8725 -0.4350
10299SOL     OW31709   6.907   6.078   1.858  0.0091 -0.2800 -0.4366
10299SOL    HW131710   6.937   6.145   1.920  2.2373 -1.4146 -0.2362
10299SOL    HW231711   6.914   5.996   1.907 -0.9167 -0.8690 -1.2920
10300SOL     OW31712   5.119   6.613   7.539  0.3664 -0.5492 -0.4709
10300SOL    HW131713   5.045   6.586   7.594 -0.7087  0.3862 -1.4385
10300SOL    HW231714   5.196   6.582   7.586 -0.6144 -1.0728  0.8222
10301SOL     OW31715   7.485   4.976   1.917  0.0213  0.1080  0.2907
10301SOL    HW131716   7.563   5.027   1.938 -0.2335  0.8290 -0.4578
10301SOL    HW231717   7.456   5.011   1.832 -0.2931 -1.1284 -0.1244
10302SOL     OW31718   2.056   5.919   7.566 -0.3431  0.9372  0.1220
10302SOL    HW131719   2.111   5.845   7.590 -1.4940  0.1188  0.2897
10302SOL    HW231720   2.007   5.940   7.646 -1.2317  0.8003 -0.3722
10303SOL     OW31721   4.909   2.740   1.002  0.3709 -0.2948  0.4201
10303SOL    HW131722   4.969   2.813   1.019 -0.7031  0.7254 -0.1658
10303SOL    HW231723   4.856   2.734   1.081 -0.5658  0.5495 -0.1409
10304SOL     OW31724   5.012   4.828   6.264  0.4468  0.2431  0.7324
10304SOL    HW131725   5.102   4.828   6.233  0.4126 -0.1030  0.6246
10304SOL    HW231726   4.994   4.735   6.283 -0.8694 -0.1078 -2.0718
10305SOL     OW31727   5.975   2.491   6.844 -0.2249  0.2459  0.2399
10305SOL    HW131728   5.933   2.479   6.929  1.2161 -2.3003  0.6422
10305SOL    HW231729   5.941   2.420   6.790  0.4697  0.6020 -0.6797
10306SOL     OW31730   5.489   0.695   6.309  0.0669 -0.4843 -0.4473
10306SOL    HW131731   5.411   0.640   6.303  0.0935 -0.7528  1.2108
10306SOL    HW231732   5.509   0.718   6.219 -2.3704  0.2186 -0.8604
10307SOL     OW31733   7.966   2.406   3.052 -0.2189 -0.6726 -0.0057
10307SOL    HW131734   7.878   2.387   3.019 -0.4635  0.1899  0.1545
10307SOL    HW231735   8.020   2.334   3.018 -0.7561 -0.5900 -1.0592
10308SOL     OW31736   0.599   5.031   1.306 -0.0341 -0.2447  0.1919
10308SOL    HW131737   0.605   5.127   1.311  0.0701 -0.2622  0.4540
10308SOL    HW231738   0.534   5.014   1.239 -0.8163  0.0234  0.8720
10309SOL     OW31739   0.087   1.910   6.017  0.4438 -0.0630 -0.2279
10309SOL    HW131740   0.103   1.957   6.099 -0.5613 -0.4033  0.1728
10309SOL    HW231741   0.132   1.826   6.028 -1.3900 -0.9361  0.8126
10310SOL     OW31742   2.481   5.913   3.064  0.5260 -0.2591  0.2728
10310SOL    HW131743   2.523   5.939   2.982  0.0856  1.1243  0.4648
10310SOL    HW231744   2.550   5.870   3.114  0.7609 -1.2496 -0.8839
10311SOL     OW31745   1.969   3.307   0.640  0.7614  0.0039  0.2700
10311SOL    HW131746   1.880   3.325   0.670  0.6803  0.0561  0.0008
10311SOL    HW231747   2.005   3.245   0.704  1.3392  1.7762  1.7016
10312SOL     OW31748   4.464   7.387   2.752 -0.3983 -0.3080 -0.0595
10312SOL    HW131749   4.405   7.452   2.713  0.8034  0.1542 -1.1200
10312SOL    HW231750   4.536   7.380   2.690  0.5566 -1.0508  1.1254
10313SOL     OW31751   4.330   0.254   1.443 -0.3321  0.1697  0.0933
10313SOL    HW131752   4.406   0.236   1.499  0.0718  1.5388  0.0129
10313SOL    HW231753   4.368   0.278   1.359 -0.8707  0.3330 -0.1056
10314SOL     OW31754   7.812   5.441   0.556  0.4334 -0.4626  0.7991
10314SOL    HW131755   7.878   5.400   0.500 -0.3209 -0.1063 -0.3668
10314SOL    HW231756   7.794   5.525   0.514 -0.7027 -0.5252  1.1496
10315SOL     OW31757   4.820   1.510   2.710 -0.1140 -0.5549 -0.4557
10315SOL    HW131758   4.773   1.427   2.723  0.6638 -0.9274  0.0167
10315SOL    HW231759   4.752   1.571   2.682 -0.8184 -1.1884 -0.1722
10316SOL     OW31760   1.236   0.586   3.314 -0.0434 -0.2710  0.5843
10316SOL    HW131761   1.302   0.518   3.301  1.7168  1.2665  1.2149
10316SOL    HW231762   1.268   0.661   3.264 -1.1696  0.6051  1.1310
10317SOL     OW31763   4.276   7.105   5.900  0.2591  0.2342 -0.4117
10317SOL    HW131764   4.227   7.176   5.941  0.0999 -0.6938  1.0447
10317SOL    HW231765   4.210   7.039   5.880  0.2746  0.8601 -2.5943
10318SOL     OW31766   1.611   5.618   7.729  0.8446  0.3125  0.1058
10318SOL    HW131767   1.639   5.659   7.647  2.3079  3.1895  1.9587
10318SOL    HW231768   1.684   5.562   7.754  1.7243  1.7705  0.9217
10319SOL     OW31769   7.462   0.851   4.221 -0.3516  0.1469 -0.4811
10319SOL    HW131770   7.400   0.922   4.205 -0.8615 -0.5770 -1.7561
10319SOL    HW231771   7.446   0.788   4.151  1.6931 -0.1399 -0.7361
10320SOL     OW31772   5.752   3.720   3.103  0.5755  0.0415 -0.4728
10320SOL    HW131773   5.840   3.684   3.110  0.3359 -0.2499  1.5140
10320SOL    HW231774   5.712   3.700   3.188 -0.8184  1.7023 -0.7236
10321SOL     OW31775   3.506   4.388   4.540 -0.0257 -0.0840  0.0772
10321SOL    HW131776   3.442   4.459   4.539  1.3439  1.1634 -0.6180
10321SOL    HW231777   3.554   4.397   4.457  1.3318 -0.7153  0.7719
10322SOL     OW31778   4.778   0.253   3.874 -0.7728  0.9665  0.5278
10322SOL    HW131779   4.732   0.270   3.956  1.1846 -0.9456  2.0789
10322SOL    HW231780   4.729   0.180   3.834 -1.8929  2.0801 -0.1940
10323SOL     OW31781   3.225   0.388   3.599  0.2832  0.6522  0.4826
10323SOL    HW131782   3.140   0.348   3.619  0.6463 -0.1602  0.4141
10323SOL    HW231783   3.204   0.459   3.538 -0.1963 -0.4665 -0.6732
10324SOL     OW31784   0.682   5.953   0.845  0.0319 -0.3726 -0.0573
10324SOL    HW131785   0.676   5.863   0.878 -1.1021 -0.3923 -0.2823
10324SOL    HW231786   0.686   6.008   0.923 -0.8302 -0.5299  0.1018
10325SOL     OW31787   3.160   1.544   6.311 -0.1870  0.2714  0.4874
10325SOL    HW131788   3.127   1.456   6.329  2.6035 -0.9575 -0.0960
10325SOL    HW231789   3.138   1.560   6.219 -1.9797  0.7904  0.9983
10326SOL     OW31790   3.427   3.191   3.164  0.1774  0.2955  0.3164
10326SOL    HW131791   3.383   3.276   3.155  2.1124  1.3975  0.9538
10326SOL    HW231792   3.376   3.145   3.231 -1.2237  0.7057 -0.4368
10327SOL     OW31793   5.046   4.273   1.593 -0.6412  0.3657  0.6208
10327SOL    HW131794   5.137   4.244   1.590 -0.1360  1.9340  0.0870
10327SOL    HW231795   5.003   4.226   1.522 -0.7380 -1.9169  2.1429
10328SOL     OW31796   4.952   7.805   3.511 -0.5643 -0.2784  0.1357
10328SOL    HW131797   4.973   7.804   3.604  1.3843 -0.1860 -0.2806
10328SOL    HW231798   4.982   7.891   3.480  1.7285 -1.4978 -1.1837
10329SOL     OW31799   0.658   5.293   1.330 -0.3647 -0.3899  0.1758
10329SOL    HW131800   0.733   5.314   1.275  0.1704 -2.0811  0.2439
10329SOL    HW231801   0.588   5.351   1.299  0.5128  0.0947 -0.9166
10330SOL     OW31802   6.091   6.869   5.402 -0.6398 -0.1528  0.5888
10330SOL    HW131803   6.096   6.869   5.497  3.1493 -0.6006  0.4756
10330SOL    HW231804   6.180   6.892   5.373 -1.4152 -1.1144 -2.8332
10331SOL     OW31805   7.140   6.904   3.271  0.0287  0.0381 -0.3942
10331SOL    HW131806   7.196   6.982   3.264  0.2086  0.1351  1.7723
10331SOL    HW231807   7.200   6.830   3.267  0.4419  0.1522  2.4324
10332SOL     OW31808   0.260   6.761   7.718  0.2038 -0.1015 -0.0445
10332SOL    HW131809   0.234   6.686   7.665  0.1572 -0.7268  0.8375
10332SOL    HW231810   0.355   6.754   7.725  0.5259  1.5498 -2.3339
10333SOL     OW31811   2.303   6.256   0.388 -0.4856  0.1076  0.2381
10333SOL    HW131812   2.282   6.334   0.440 -1.0026  1.4206 -1.8760
10333SOL    HW231813   2.396   6.241   0.404 -0.6783  0.3802  1.6876
10334SOL     OW31814   0.037   7.737   3.555 -0.5363 -0.2966 -0.4554
10334SOL    HW131815   0.050   7.813   3.612  0.8682 -0.2594 -0.8170
10334SOL    HW231816  -0.045   7.756   3.509 -0.9314  0.3371  0.4892
10335SOL     OW31817   5.003   0.072   2.329  0.0823 -0.4305  0.3732
10335SOL    HW131818   5.077   0.124   2.359  0.2761 -0.6444  0.2620
10335SOL    HW231819   5.036   0.023   2.254 -0.1976 -0.4521  0.2634
10336SOL     OW31820   6.771   3.953   4.378  0.4510 -0.9398 -0.3704
10336SOL    HW131821   6.782   4.025   4.440  0.8754  0.9313 -2.5735
10336SOL    HW231822   6.833   3.971   4.308 -1.5282 -1.8375 -2.4258
10337SOL     OW31823   7.440   4.281   2.048  0.2056  0.5433  0.1132
10337SOL    HW131824   7.511   4.306   1.989  1.4385  1.4346  1.9463
10337SOL    HW231825   7.414   4.362   2.090 -0.7781 -0.0566  0.6710
10338SOL     OW31826   5.411   0.177   1.834 -0.5458  0.4340 -0.4078
10338SOL    HW131827   5.461   0.220   1.904 -1.3147  0.8659 -0.1086
10338SOL    HW231828   5.464   0.102   1.808  1.0589  1.8513 -1.2877
10339SOL     OW31829   5.485   7.699   6.911 -0.1960 -0.2999  0.0027
10339SOL    HW131830   5.560   7.673   6.858  0.1797  0.9192 -0.0724
10339SOL    HW231831   5.517   7.697   7.001 -0.0444  0.2643 -0.0325
10340SOL     OW31832   4.626   4.469   1.295  0.0239 -0.2588 -0.6759
10340SOL    HW131833   4.626   4.375   1.310 -0.6389 -0.1255  0.1973
10340SOL    HW231834   4.694   4.483   1.230  2.1785 -1.0076  1.3645
10341SOL     OW31835   4.666   3.887   2.683  0.4325  0.1215  0.3060
10341SOL    HW131836   4.718   3.967   2.679 -0.6610  0.8219  0.1807
10341SOL    HW231837   4.642   3.868   2.593 -0.5532  0.4701  0.4907
10342SOL     OW31838   2.297   0.721   4.344  0.0386 -0.0844  0.9459
10342SOL    HW131839   2.316   0.627   4.346  0.2813 -0.0490  0.4698
10342SOL    HW231840   2.383   0.762   4.351  0.1218  0.0829 -0.8373
10343SOL     OW31841   2.761   7.272   5.430  0.2437 -0.1743  0.2999
10343SOL    HW131842   2.667   7.256   5.419 -0.1231  1.2174  1.2713
10343SOL    HW231843   2.789   7.308   5.346 -0.5455  1.3684  0.6724
10344SOL     OW31844   4.425   1.503   1.211 -0.2678  0.3653  0.0550
10344SOL    HW131845   4.364   1.522   1.281 -0.8206 -1.5611  0.1146
10344SOL    HW231846   4.489   1.444   1.250 -1.0355 -1.3678 -1.2482
10345SOL     OW31847   3.875   0.479   2.480 -0.9539  0.4871 -0.1034
10345SOL    HW131848   3.886   0.570   2.451 -0.6824  0.5051  0.0488
10345SOL    HW231849   3.785   0.457   2.458 -0.3501  0.0258 -2.3220
10346SOL     OW31850   5.898   3.616   5.035 -0.0194 -0.0967 -0.0179
10346SOL    HW131851   5.990   3.645   5.035 -0.1955  0.4715  0.2666
10346SOL    HW231852   5.863   3.649   5.118 -0.1260 -1.4551  0.5027
10347SOL     OW31853   7.297   6.091   2.459  0.7046  0.0192  0.2287
10347SOL    HW131854   7.278   6.172   2.412 -1.3261  0.0031  0.9835
10347SOL    HW231855   7.304   6.118   2.551  1.4944 -0.4367  0.3031
10348SOL     OW31856   2.159   2.404   2.689 -0.1047  0.0894  0.4039
10348SOL    HW131857   2.114   2.350   2.625  0.3782  0.4977 -0.2783
10348SOL    HW231858   2.120   2.491   2.679  0.4898  0.3255  0.1633
10349SOL     OW31859   6.930   2.809   7.652  0.1837  0.4841 -0.1487
10349SOL    HW131860   6.917   2.901   7.676 -0.5005  0.4238 -0.2756
10349SOL    HW231861   6.873   2.761   7.712  1.2434  0.0713  0.5471
10350SOL     OW31862   2.522   7.766   2.672 -0.0785  0.1585  0.3684
10350SOL    HW131863   2.477   7.768   2.588 -0.8471 -1.4823  0.7084
10350SOL    HW231864   2.453   7.781   2.737  0.4667  1.1985  0.7104
10351SOL     OW31865   2.390   6.164   4.955  0.6927  0.1168  0.1993
10351SOL    HW131866   2.383   6.199   5.044 -0.2014  0.0098  0.1806
10351SOL    HW231867   2.312   6.109   4.945  0.1377  1.0922 -1.0584
10352SOL     OW31868   1.738   6.695   6.067  0.1648 -0.0242  0.2240
10352SOL    HW131869   1.784   6.645   6.135  0.2468 -0.9571 -0.5146
10352SOL    HW231870   1.800   6.762   6.040  0.7650 -0.7362 -0.1548
10353SOL     OW31871   3.401   6.126   1.957 -0.2870 -0.5792  0.2753
10353SOL    HW131872   3.402   6.137   2.052  0.2647 -2.1631  0.4660
10353SOL    HW231873   3.382   6.033   1.944  3.1284 -1.1485 -1.1061
10354SOL     OW31874   0.192   1.257   0.173 -0.2254 -0.3175 -0.0670
10354SOL    HW131875   0.160   1.234   0.086  0.3101 -0.3011 -0.2731
10354SOL    HW231876   0.236   1.178   0.204  0.3773 -0.0354 -0.1886
10355SOL     OW31877   1.094   0.642   0.572 -0.1031 -0.5497 -0.3122
10355SOL    HW131878   1.180   0.643   0.530  0.3212 -3.2282  0.3844
10355SOL    HW231879   1.093   0.559   0.621 -1.6987  1.0937  2.5601
10356SOL     OW31880   0.313   0.845   2.673 -0.5690  0.4745 -0.0602
10356SOL    HW131881   0.279   0.826   2.760  0.8532 -2.4169 -0.0982
10356SOL    HW231882   0.402   0.875   2.688  0.0841 -1.1647 -0.5679
10357SOL     OW31883   3.670   2.741   7.798 -0.3287 -0.1696 -0.5181
10357SOL    HW131884   3.579   2.769   7.788 -0.3350 -0.5371 -1.6059
10357SOL    HW231885   3.703   2.735   7.708  1.2551  1.5413 -0.0845
10358SOL     OW31886   0.691   0.485   2.558  0.3242  0.0235 -0.0593
10358SOL    HW131887   0.701   0.397   2.521  0.2582  0.1607 -0.4062
10358SOL    HW231888   0.781   0.516   2.570  0.3510 -0.2609  0.4694
10359SOL     OW31889   1.395   0.438   6.584  0.1987  0.2232 -0.6933
10359SOL    HW131890   1.478   0.397   6.611  0.3485  0.9687  0.0028
10359SOL    HW231891   1.414   0.531   6.582  0.3570  0.1732 -4.0669
10360SOL     OW31892   0.216   1.481   6.247  0.2069  0.0797  0.0436
10360SOL    HW131893   0.132   1.437   6.256  0.4484 -0.1296  1.4232
10360SOL    HW231894   0.281   1.415   6.272  0.9772 -0.4778 -3.1557
10361SOL     OW31895   6.267   1.448   4.215 -0.1197 -0.4307 -0.6602
10361SOL    HW131896   6.218   1.447   4.133 -1.0478 -0.9734 -0.1134
10361SOL    HW231897   6.289   1.356   4.230  3.0032  0.0419 -2.0162
10362SOL     OW31898   1.853   2.108   3.552  0.0447 -0.5220 -0.3044
10362SOL    HW131899   1.775   2.112   3.498 -0.6017 -0.7592  0.5967
10362SOL    HW231900   1.824   2.069   3.634  1.1837 -0.9500 -0.0868
10363SOL     OW31901   3.876   7.828   5.823  0.3762  0.1673  0.4322
10363SOL    HW131902   3.932   7.771   5.770 -0.0217 -0.0065  0.1932
10363SOL    HW231903   3.826   7.768   5.879 -0.0625  0.2750  0.1607
10364SOL     OW31904   1.973   2.445   7.874  0.0695  0.4143  0.3113
10364SOL    HW131905   2.048   2.499   7.899  0.2932 -0.4596  1.5950
10364SOL    HW231906   1.957   2.467   7.782  1.7075  0.8266  0.1117
10365SOL     OW31907   0.052   2.460   3.522  0.0584  0.0963  0.4967
10365SOL    HW131908   0.005   2.426   3.598  0.9545 -0.8919  0.6054
10365SOL    HW231909   0.063   2.554   3.541 -0.3957  0.0057  1.2254
10366SOL     OW31910   2.428   3.276   3.746 -0.1471  0.0305  0.1221
10366SOL    HW131911   2.422   3.186   3.777  0.3575  0.0886  0.3845
10366SOL    HW231912   2.471   3.270   3.661  0.7792  0.1144  0.5780
10367SOL     OW31913   3.642   3.173   4.835  0.0571 -0.5582 -0.0733
10367SOL    HW131914   3.554   3.160   4.869 -0.3729  1.5191 -0.3811
10367SOL    HW231915   3.697   3.179   4.913 -0.0592 -1.7621  0.1205
10368SOL     OW31916   6.218   6.527   0.503  0.2726  0.4038  0.2791
10368SOL    HW131917   6.156   6.457   0.481  0.0344  0.6744  0.0739
10368SOL    HW231918   6.298   6.503   0.457  0.5230 -0.2905  1.0858
10369SOL     OW31919   4.929   0.682   0.677  0.0296 -0.1987 -0.0487
10369SOL    HW131920   5.015   0.679   0.636  0.6206  1.5031  1.0577
10369SOL    HW231921   4.885   0.756   0.636 -0.7190 -0.7378 -0.2294
10370SOL     OW31922   6.682   0.164   7.750 -0.7053 -0.6519  0.1183
10370SOL    HW131923   6.738   0.087   7.740 -0.3331 -0.3968  0.2536
10370SOL    HW231924   6.707   0.222   7.679 -0.4378 -0.3132  0.4874
10371SOL     OW31925   0.096   2.383   4.741 -0.1075  0.3750 -0.0463
10371SOL    HW131926   0.052   2.468   4.744 -0.4306  0.1574  2.4845
10371SOL    HW231927   0.027   2.320   4.723 -0.2049  0.4401  0.1007
10372SOL     OW31928   4.813   5.948   2.625 -0.1364  0.1730 -0.3360
10372SOL    HW131929   4.882   5.964   2.560  0.5810  0.4842  0.4887
10372SOL    HW231930   4.824   6.019   2.688 -1.1243  0.1336 -0.1198
10373SOL     OW31931   5.628   3.613   4.269  0.4081 -0.5159 -0.6509
10373SOL    HW131932   5.721   3.608   4.287  0.1680 -0.9747  0.5051
10373SOL    HW231933   5.586   3.574   4.345 -0.7940  1.0996 -0.4444
10374SOL     OW31934   5.637   4.656   4.205 -0.3585  0.7049  0.0088
10374SOL    HW131935   5.620   4.745   4.175  0.8134  0.7400 -0.5746
10374SOL    HW231936   5.730   4.641   4.187 -0.5958 -0.7204 -0.1601
10375SOL     OW31937   2.962   0.262   6.950 -0.2222  0.3169  0.0836
10375SOL    HW131938   2.981   0.228   6.863 -1.5491 -0.7109  0.1771
10375SOL    HW231939   2.989   0.191   7.009 -0.5978  0.4661  0.4319
10376SOL     OW31940   7.660   6.609   4.134 -0.6393 -0.4448 -0.1387
10376SOL    HW131941   7.600   6.603   4.208  0.9783 -0.6109  1.2177
10376SOL    HW231942   7.700   6.696   4.143  0.8343 -1.1381  0.2244
10377SOL     OW31943   0.433   1.680   5.527 -0.0741  0.3665  0.0615
10377SOL    HW131944   0.374   1.720   5.591  0.9130  0.4045  0.9428
10377SOL    HW231945   0.381   1.610   5.487 -1.3776  1.6515 -0.5635
10378SOL     OW31946   0.069   7.360   6.911  0.1198 -0.0039  0.5016
10378SOL    HW131947   0.100   7.442   6.949 -0.9215  0.6290  0.0183
10378SOL    HW231948  -0.010   7.385   6.862  0.3310 -1.1236 -0.4370
10379SOL     OW31949   5.634   6.421   2.050  0.2684 -0.1655 -0.0989
10379SOL    HW131950   5.719   6.376   2.044  0.0066 -0.4983 -1.4834
10379SOL    HW231951   5.572   6.352   2.072  0.3720  0.1164  1.1367
10380SOL     OW31952   0.011   7.780   5.272  0.2457  0.2735 -0.2768
10380SOL    HW131953   0.015   7.732   5.189  0.2077 -1.5014  0.7373
10380SOL    HW231954   0.095   7.763   5.314 -0.6070 -0.6644  1.0578
10381SOL     OW31955   2.661   1.404   2.671 -0.0663 -0.6353  1.3710
10381SOL    HW131956   2.738   1.452   2.639 -0.6243  0.6174  1.8697
10381SOL    HW231957   2.644   1.441   2.757 -3.2931  1.5640 -0.0976
10382SOL     OW31958   4.054   6.550   2.347 -0.0958 -0.4052  0.5275
10382SOL    HW131959   4.001   6.515   2.275 -0.5136 -2.6071  1.8566
10382SOL    HW231960   4.092   6.631   2.312 -0.5515 -1.2597 -2.0484
10383SOL     OW31961   4.230   5.129   7.046  0.3798  0.3925 -0.2452
10383SOL    HW131962   4.248   5.084   7.129  0.9082 -2.1119 -1.6765
10383SOL    HW231963   4.268   5.216   7.058  1.2393 -0.2306  1.8360
10384SOL     OW31964   0.485   5.973   4.034 -0.3391  0.4673 -0.3765
10384SOL    HW131965   0.430   6.050   4.022 -0.7504  0.4571  1.2291
10384SOL    HW231966   0.423   5.900   4.039  0.0548  0.0025 -1.9957
10385SOL     OW31967   2.776   1.613   1.354  0.2483  0.4225  0.0673
10385SOL    HW131968   2.779   1.569   1.439  4.2303 -0.8928 -0.6534
10385SOL    HW231969   2.734   1.550   1.295  2.3684 -0.9253 -0.0714
10386SOL     OW31970   1.149   2.496   7.580  0.4180  0.1384  0.1532
10386SOL    HW131971   1.095   2.549   7.639  0.1984 -0.7746  0.7790
10386SOL    HW231972   1.091   2.427   7.549  0.6674  0.3379 -0.7706
10387SOL     OW31973   2.308   7.928   2.182 -0.9468  0.0645  0.4658
10387SOL    HW131974   2.357   7.938   2.100 -1.4582 -0.5588  0.0798
10387SOL    HW231975   2.248   7.855   2.166 -2.2324  1.0159  0.8140
10388SOL     OW31976   5.696   7.903   3.622 -0.0527 -0.3916 -0.4451
10388SOL    HW131977   5.693   7.998   3.610  0.8170 -0.2070  0.7415
10388SOL    HW231978   5.709   7.868   3.534  4.1149  0.8144 -0.3993
10389SOL     OW31979   3.504   1.312   1.921 -0.7640 -0.3606  0.2743
10389SOL    HW131980   3.434   1.271   1.872 -0.6763  0.7076 -0.7802
10389SOL    HW231981   3.461   1.355   1.994 -1.3486  1.1476 -0.9327
10390SOL     OW31982   4.917   5.367   1.356 -0.0069  0.1144  0.6730
10390SOL    HW131983   4.877   5.280   1.352 -1.5134  0.8461 -1.4989
10390SOL    HW231984   4.850   5.421   1.398  1.2000  0.1245  2.6548
10391SOL     OW31985   2.904   0.321   3.282 -0.2098 -0.4549 -0.3296
10391SOL    HW131986   2.866   0.233   3.280 -0.6661 -0.3099  1.1118
10391SOL    HW231987   2.836   0.376   3.320  0.5314  0.2870 -0.0537
10392SOL     OW31988   7.452   7.724   0.907 -0.0799 -0.4605 -0.5717
10392SOL    HW131989   7.377   7.756   0.858  0.0433 -0.9642 -1.0983
10392SOL    HW231990   7.528   7.762   0.863 -0.0194 -0.0650 -0.1265
10393SOL     OW31991   0.228   1.131   2.801 -0.3426  0.0559  0.4166
10393SOL    HW131992   0.293   1.077   2.846 -1.8861 -0.3720  2.1859
10393SOL    HW231993   0.242   1.219   2.837 -0.3478  0.0890  0.3376
10394SOL     OW31994   5.494   5.481   0.854  0.1124  0.0800  0.4765
10394SOL    HW131995   5.448   5.478   0.770 -1.2800  0.2772  1.2048
10394SOL    HW231996   5.481   5.571   0.885  0.9439  0.1157  0.7216
10395SOL     OW31997   0.255   2.176   7.256 -0.0589  0.7763 -0.6009
10395SOL    HW131998   0.279   2.223   7.336 -1.3926  0.5298 -0.0384
10395SOL    HW231999   0.333   2.124   7.235  0.2310  0.6611  0.6811
10396SOL     OW32000   3.159   5.017   0.149 -0.1857  0.4300  0.0455
10396SOL    HW132001   3.242   5.009   0.196 -0.1530  2.0469  0.3044
10396SOL    HW232002   3.184   5.056   0.064  0.0527 -4.4746 -2.2948
10397SOL     OW32003   7.946   6.624   7.503 -0.1307  0.5205 -0.0961
10397SOL    HW132004   7.903   6.614   7.588 -1.4625  0.0885 -0.7920
10397SOL    HW232005   7.893   6.570   7.443  0.7082  0.9107 -1.2149
10398SOL     OW32006   5.550   4.582   7.566 -0.3727 -0.5850 -0.2104
10398SOL    HW132007   5.471   4.595   7.514 -0.7704 -0.1012  0.5048
10398SOL    HW232008   5.523   4.521   7.635 -0.9595  1.9140  1.8340
10399SOL     OW32009   2.321   0.307   7.331  0.4068 -0.0511 -0.2579
10399SOL    HW132010   2.238   0.355   7.320  0.7920  0.7597  0.3019
10399SOL    HW232011   2.314   0.233   7.271 -1.1470 -0.5368  0.4784
10400SOL     OW32012   5.082   7.572   6.253  0.0156  0.0567  0.1989
10400SOL    HW132013   5.171   7.537   6.258 -0.3305 -0.9028 -0.1803
10400SOL    HW232014   5.056   7.559   6.162 -0.9560 -0.8131  0.5833
10401SOL     OW32015   6.475   0.208   1.185  0.1829 -0.5782  0.3024
10401SOL    HW132016   6.550   0.149   1.191  3.2834  2.6913 -3.2711
10401SOL    HW232017   6.442   0.195   1.096 -1.4777  0.3332  0.7653
10402SOL     OW32018   4.129   3.465   5.237  0.5594  0.6616 -0.0453
10402SOL    HW132019   4.101   3.533   5.176  2.7771  1.5791 -0.0762
10402SOL    HW232020   4.096   3.494   5.322 -0.5761  0.5277 -0.4259
10403SOL     OW32021   0.091   3.434   2.918 -0.4559  0.0602  0.0478
10403SOL    HW132022   0.009   3.480   2.903 -0.5053 -0.2294 -0.5813
10403SOL    HW232023   0.118   3.404   2.831 -1.0647 -2.1805  0.6012
10404SOL     OW32024   6.712   1.133   6.766  0.2407 -0.0753  0.2126
10404SOL    HW132025   6.672   1.050   6.742  0.3464  0.2174 -1.0137
10404SOL    HW232026   6.805   1.113   6.776  0.7285  0.3919 -2.7518
10405SOL     OW32027   7.782   4.920   7.642 -0.0940 -0.0034  0.1199
10405SOL    HW132028   7.738   4.837   7.659  0.0914  0.1730  1.5561
10405SOL    HW232029   7.812   4.914   7.552 -0.1473 -1.4549  0.1941
10406SOL     OW32030   2.618   6.494   3.693  0.3036 -0.0191  0.4261
10406SOL    HW132031   2.606   6.589   3.701 -0.1735 -0.0869  0.5388
10406SOL    HW232032   2.673   6.470   3.767 -2.5854 -0.3751  2.5316
10407SOL     OW32033   6.410   4.377   4.238  0.0840 -0.0542 -0.2131
10407SOL    HW132034   6.372   4.452   4.282 -1.5226 -1.0352  0.1196
10407SOL    HW232035   6.406   4.399   4.145 -0.5383  0.2039 -0.1283
10408SOL     OW32036   0.454   0.609   3.475 -0.8687 -0.3589 -0.6782
10408SOL    HW132037   0.536   0.567   3.450  0.1626 -0.2595  2.3095
10408SOL    HW232038   0.426   0.563   3.554 -2.0187  1.6599  0.1457
10409SOL     OW32039   6.410   3.792   2.768 -0.7845 -0.0219  0.4921
10409SOL    HW132040   6.446   3.864   2.716 -0.5036 -1.1257 -0.8557
10409SOL    HW232041   6.461   3.793   2.849 -0.7439  1.2431  0.4601
10410SOL     OW32042   3.079   1.554   5.526  0.3328  0.0560  0.3881
10410SOL    HW132043   3.022   1.607   5.582 -0.2324  0.8806 -0.9410
10410SOL    HW232044   3.019   1.506   5.470  0.8988 -0.7653  0.4820
10411SOL     OW32045   0.156   1.240   7.905  0.1948 -0.3972  0.2209
10411SOL    HW132046   0.105   1.260   7.827  2.5370  1.6968 -0.8738
10411SOL    HW232047   0.215   1.169   7.878 -0.1441 -0.8206  0.5909
10412SOL     OW32048   0.440   1.232   4.503 -0.1349  0.2545  0.2797
10412SOL    HW132049   0.346   1.219   4.518 -0.1407  0.8588  0.7630
10412SOL    HW232050   0.482   1.161   4.553 -0.2737  0.7532  1.1101
10413SOL     OW32051   5.474   1.539   3.182 -0.0261  0.3797  0.1952
10413SOL    HW132052   5.503   1.630   3.195 -0.1645  0.4839 -0.2160
10413SOL    HW232053   5.383   1.547   3.153 -0.2799  0.0750  0.9017
10414SOL     OW32054   7.817   5.574   6.246  0.2766  0.2340 -0.0247
10414SOL    HW132055   7.834   5.536   6.332 -0.9727 -0.9890 -0.2830
10414SOL    HW232056   7.735   5.533   6.218 -0.9219  2.8634 -0.5125
10415SOL     OW32057   4.543   6.074   4.866 -0.1930 -0.0574 -0.3280
10415SOL    HW132058   4.616   6.053   4.808 -0.0084  0.4105 -0.2693
10415SOL    HW232059   4.475   6.108   4.807 -0.2513 -0.2106 -0.3480
10416SOL     OW32060   3.367   1.483   3.817 -0.1855  0.6749  0.0531
10416SOL    HW132061   3.377   1.411   3.755 -0.5715  1.0097 -0.3980
10416SOL    HW232062   3.335   1.556   3.764  0.5791  1.2954  0.4290
10417SOL     OW32063   6.576   0.807   4.245  0.5838  0.8300  0.7310
10417SOL    HW132064   6.646   0.749   4.275  1.3542  1.0629 -0.5604
10417SOL    HW232065   6.603   0.832   4.157 -0.3872  2.1227  0.7951
10418SOL     OW32066   6.513   1.368   2.675 -0.0612 -0.0544 -0.0527
10418SOL    HW132067   6.549   1.447   2.636  1.3578  0.0233  1.3580
10418SOL    HW232068   6.496   1.392   2.766  0.2135 -1.3056  0.3450
10419SOL     OW32069   6.294   7.499   4.857  0.4601  0.0907 -0.5650
10419SOL    HW132070   6.302   7.494   4.762  3.4111  1.0027 -0.4168
10419SOL    HW232071   6.384   7.488   4.889  0.0053  3.0778  1.9479
10420SOL     OW32072   3.747   0.115   3.162 -0.5862 -0.1225  0.0694
10420SOL    HW132073   3.762   0.089   3.071  0.6791 -1.0607  0.5233
10420SOL    HW232074   3.828   0.156   3.189 -0.8742 -0.0584  0.8505
10421SOL     OW32075   7.776   3.936   2.289  0.3174 -0.0213 -0.0150
10421SOL    HW132076   7.869   3.947   2.309  0.4146  0.5439 -0.7690
10421SOL    HW232077   7.772   3.929   2.193 -0.6358  2.1061 -0.1514
10422SOL     OW32078   2.164   5.560   3.258 -0.1225  0.4189 -0.5510
10422SOL    HW132079   2.098   5.583   3.324 -1.2487  1.1697 -1.9178
10422SOL    HW232080   2.221   5.637   3.253  0.4600  0.0423  0.1205
10423SOL     OW32081   4.452   0.255   1.194  0.4205 -0.0055  0.0809
10423SOL    HW132082   4.489   0.342   1.178  0.5180 -0.1319 -0.3848
10423SOL    HW232083   4.528   0.196   1.193  0.6187  0.1473  2.3886
10424SOL     OW32084   4.980   5.891   3.045 -0.7840  0.2840  0.1174
10424SOL    HW132085   4.956   5.888   2.952 -0.3784 -0.9918  0.0448
10424SOL    HW232086   5.062   5.940   3.047  0.3350 -1.5381 -0.4494
10425SOL     OW32087   4.038   6.562   3.679 -0.0902 -0.3787 -0.5564
10425SOL    HW132088   4.021   6.604   3.763 -0.4099 -0.9688 -0.3249
10425SOL    HW232089   3.961   6.581   3.626  0.4590  0.6692 -0.9866
10426SOL     OW32090   2.179   7.057   5.845  0.5174 -0.0970 -0.8228
10426SOL    HW132091   2.140   7.110   5.914  0.7005  1.0627 -1.5825
10426SOL    HW232092   2.272   7.081   5.846  0.6499 -0.5884 -1.0146
10427SOL     OW32093   3.789   1.415   1.771 -0.1160 -0.6755  0.1087
10427SOL    HW132094   3.707   1.451   1.804  0.3211 -1.1334  1.7644
10427SOL    HW232095   3.772   1.322   1.759  0.0655 -0.7245  0.2135
10428SOL     OW32096   2.256   4.706   4.896 -0.0444  0.0319 -0.0872
10428SOL    HW132097   2.311   4.628   4.910  0.7207  0.4097 -0.9446
10428SOL    HW232098   2.314   4.768   4.853 -0.9469  0.7203 -0.3123
10429SOL     OW32099   6.730   3.668   6.431  0.0703 -0.0714 -0.0772
10429SOL    HW132100   6.817   3.666   6.472 -0.2647  1.0153  0.7012
10429SOL    HW232101   6.669   3.654   6.503 -0.3578 -2.7909 -0.8953
10430SOL     OW32102   5.280   1.166   4.710  0.1148  0.6294  0.4413
10430SOL    HW132103   5.310   1.248   4.748  1.3180  0.3410  0.1207
10430SOL    HW232104   5.193   1.186   4.674  1.1520  2.2450 -1.2630
10431SOL     OW32105   3.171   6.173   2.457  0.5276  0.6543  0.0577
10431SOL    HW132106   3.211   6.254   2.489 -1.3294  1.9222 -0.7478
10431SOL    HW232107   3.245   6.116   2.437  1.8572  2.1028  0.7446
10432SOL     OW32108   1.221   2.451   3.209 -0.0244  0.9874 -0.0079
10432SOL    HW132109   1.274   2.384   3.252  0.9920  1.6505 -0.2071
10432SOL    HW232110   1.266   2.533   3.229 -0.4694  1.4692 -0.9484
10433SOL     OW32111   2.589   0.007   6.731  0.4432 -0.0273 -0.2677
10433SOL    HW132112   2.499  -0.023   6.725  0.3714 -0.7200  3.0328
10433SOL    HW232113   2.642  -0.072   6.716  0.4116 -0.2010  0.4848
10434SOL     OW32114   5.234   1.531   4.642 -0.4471  1.1597  0.6914
10434SOL    HW132115   5.255   1.624   4.655 -1.2842  1.4726 -0.2110
10434SOL    HW232116   5.243   1.493   4.729  0.8273  1.9020  0.9033
10435SOL     OW32117   4.108   5.265   1.499  0.3410 -0.0892  0.0473
10435SOL    HW132118   4.134   5.173   1.511 -0.1635 -0.1412  0.8147
10435SOL    HW232119   4.091   5.296   1.588  2.7937  1.4367  0.0255
10436SOL     OW32120   7.431   1.713   6.206  0.0620  0.2840  0.7011
10436SOL    HW132121   7.471   1.788   6.250 -1.3395  0.3492  1.9162
10436SOL    HW232122   7.338   1.719   6.229 -0.1233 -1.6200  0.5029
10437SOL     OW32123   0.320   2.321   1.399  0.7331 -0.0573 -0.0753
10437SOL    HW132124   0.339   2.399   1.346  0.7989 -0.2327 -0.3131
10437SOL    HW232125   0.378   2.328   1.475  2.1628 -0.8782 -1.0681
10438SOL     OW32126   3.179   6.085   5.871  0.2114  0.1573 -0.0770
10438SOL    HW132127   3.246   6.140   5.829 -1.5861  1.9059 -0.7292
10438SOL    HW232128   3.117   6.147   5.909 -0.9657 -1.4383  0.6843
10439SOL     OW32129   5.455   3.828   1.022  0.1164  0.1673  0.2288
10439SOL    HW132130   5.393   3.808   1.092 -1.2168 -1.7958 -1.4425
10439SOL    HW232131   5.531   3.771   1.041 -0.2586 -0.3920  0.0593
10440SOL     OW32132   6.825   5.652   6.692  0.0878 -0.2355  0.1796
10440SOL    HW132133   6.919   5.669   6.687  0.3659 -0.9748  2.4064
10440SOL    HW232134   6.818   5.575   6.749 -1.9119  0.4033  0.8078
10441SOL     OW32135   6.222   6.796   7.221  0.1345 -0.0493  0.2245
10441SOL    HW132136   6.315   6.807   7.240  0.0219  2.5024 -0.4498
10441SOL    HW232137   6.202   6.707   7.249  2.5900 -0.3697  1.1110
10442SOL     OW32138   7.734   4.593   4.323  0.0504  0.2249  0.4032
10442SOL    HW132139   7.728   4.503   4.292  1.2999 -0.3507  1.7721
10442SOL    HW232140   7.753   4.644   4.244  1.3731 -0.9701 -0.0810
10443SOL     OW32141   6.329   2.151   5.155 -0.0145  0.0083  0.0086
10443SOL    HW132142   6.248   2.125   5.199  2.1971 -3.1706  2.4477
10443SOL    HW232143   6.328   2.103   5.072 -0.6330 -0.0053  0.0235
10444SOL     OW32144   0.996   6.377   5.797  0.4546 -0.4244  0.5647
10444SOL    HW132145   1.031   6.302   5.750  0.5035  0.5817 -1.0352
10444SOL    HW232146   0.911   6.347   5.830  0.5720 -1.2433  0.1412
10445SOL     OW32147   0.101   1.376   2.060 -0.1115  0.2465 -0.4224
10445SOL    HW132148   0.183   1.401   2.017 -0.3436 -0.5082 -1.3053
10445SOL    HW232149   0.127   1.308   2.122 -0.2339 -0.7741 -1.4820
10446SOL     OW32150   6.084   1.861   7.911  0.4096 -0.5663 -0.0667
10446SOL    HW132151   6.015   1.915   7.873  1.2926  0.2573 -0.5292
10446SOL    HW232152   6.049   1.772   7.910 -0.3797 -0.2510 -0.8970
10447SOL     OW32153   1.591   0.265   0.397 -0.1954 -0.3235  0.0832
10447SOL    HW132154   1.515   0.310   0.361 -1.0604 -0.1011  2.0842
10447SOL    HW232155   1.554   0.195   0.451  1.0606 -1.2923 -0.2827
10448SOL     OW32156   6.053   3.589   7.533 -0.2979 -0.1663 -0.2920
10448SOL    HW132157   6.065   3.677   7.569 -1.3315 -0.4382  0.7674
10448SOL    HW232158   6.020   3.604   7.444  0.6445  0.5145 -0.5332
10449SOL     OW32159   2.195   6.949   6.386 -1.1482 -0.3930 -0.1145
10449SOL    HW132160   2.147   7.009   6.329 -0.3811 -0.7626 -1.1640
10449SOL    HW232161   2.179   6.862   6.348  0.1883 -0.5428 -0.3628
10450SOL     OW32162   2.260   0.064   0.971 -0.4854 -0.4319  0.0337
10450SOL    HW132163   2.183   0.082   1.026 -1.4936  0.4719 -1.6328
10450SOL    HW232164   2.316   0.141   0.981 -0.6120 -0.3213 -0.1061
10451SOL     OW32165   7.228   4.620   7.775 -0.0809 -0.6086  0.0875
10451SOL    HW132166   7.188   4.677   7.840 -0.7513 -0.3149 -0.5749
10451SOL    HW232167   7.323   4.636   7.784 -0.0274 -2.0079  2.3066
10452SOL     OW32168   7.434   4.267   7.893  0.3202 -0.2741  0.0094
10452SOL    HW132169   7.422   4.292   7.984  1.6774  0.3922  0.0240
10452SOL    HW232170   7.468   4.178   7.897  2.7183  0.5984  0.2935
10453SOL     OW32171   1.985   3.578   7.732 -0.0781 -0.4993  0.5676
10453SOL    HW132172   1.901   3.617   7.756  0.4113 -0.1771  1.8063
10453SOL    HW232173   1.965   3.486   7.715 -0.9131 -0.1296 -0.5111
10454SOL     OW32174   3.357   0.856   4.864 -0.4513 -0.0451  0.0974
10454SOL    HW132175   3.372   0.766   4.836  1.8976  0.5203 -0.5331
10454SOL    HW232176   3.320   0.848   4.952 -1.0206 -1.6354 -0.2678
10455SOL     OW32177   2.613   4.734   0.946 -0.6236 -0.5885 -0.4060
10455SOL    HW132178   2.635   4.731   1.040  0.1033  1.1178 -0.5136
10455SOL    HW232179   2.527   4.776   0.943 -0.2631  0.1413 -0.5614
10456SOL     OW32180   0.406   3.529   0.892 -0.2026 -0.5328  0.4909
10456SOL    HW132181   0.428   3.606   0.841  0.2416 -0.6157  0.5619
10456SOL    HW232182   0.344   3.481   0.837  0.0040 -0.4425  0.1815
10457SOL     OW32183   3.057   1.847   6.928 -0.3254  0.1904 -0.2710
10457SOL    HW132184   3.073   1.920   6.988  0.4244 -0.1976  0.0114
10457SOL    HW232185   2.967   1.820   6.946 -1.1093  2.0065 -1.4286
10458SOL     OW32186   7.982   7.217   2.185 -0.2257  0.5227 -0.2716
10458SOL    HW132187   8.056   7.221   2.246  1.8967  1.5463 -2.8046
10458SOL    HW232188   7.930   7.295   2.206  0.1306  0.5244  0.6334
10459SOL     OW32189   7.693   0.255   4.165  0.3002  0.3477 -0.1056
10459SOL    HW132190   7.718   0.165   4.185 -1.0356  0.0218  0.1900
10459SOL    HW232191   7.697   0.300   4.249  0.3290  0.3986 -0.1346
10460SOL     OW32192   2.959   4.765   2.962  0.5551 -0.2872 -0.0804
10460SOL    HW132193   2.935   4.777   3.054  0.2880  0.2729 -0.2224
10460SOL    HW232194   2.884   4.799   2.913  0.7911 -0.3818 -0.5079
10461SOL     OW32195   4.533   6.746   5.663 -0.3003 -0.1756 -0.1787
10461SOL    HW132196   4.625   6.756   5.688  0.5004 -2.1232 -2.2044
10461SOL    HW232197   4.515   6.821   5.607  0.0816  0.1431  0.1200
10462SOL     OW32198   5.465   3.653   5.842  0.1563  0.3388  0.3561
10462SOL    HW132199   5.415   3.682   5.767  0.8296 -1.4711 -0.8267
10462SOL    HW232200   5.443   3.561   5.852  1.5245  0.0830  1.2056
10463SOL     OW32201   3.356   2.359   3.704 -0.5639 -0.5303  0.2673
10463SOL    HW132202   3.301   2.363   3.782 -2.3962 -1.2121 -0.9587
10463SOL    HW232203   3.441   2.331   3.737 -0.6486  1.4425  2.3283
10464SOL     OW32204   6.057   6.445   4.800 -0.9363 -0.4734  0.4000
10464SOL    HW132205   6.149   6.421   4.810 -0.6972  0.6356  0.9099
10464SOL    HW232206   6.028   6.471   4.887 -1.8647 -1.2438  0.3361
10465SOL     OW32207   7.879   3.558   0.677 -0.4512  0.3964  0.0472
10465SOL    HW132208   7.820   3.631   0.657 -0.2516  1.4000  2.9159
10465SOL    HW232209   7.939   3.556   0.602 -1.5911  2.0071 -0.9542
10466SOL     OW32210   6.133   2.050   0.263  0.3104 -0.0359 -0.4534
10466SOL    HW132211   6.151   2.078   0.174 -1.1089  1.5509 -0.2513
10466SOL    HW232212   6.145   2.128   0.317  1.3155 -1.0068  0.7920
10467SOL     OW32213   6.943   1.784   5.830  0.5557  0.1659  0.8028
10467SOL    HW132214   6.889   1.861   5.819 -2.6054 -2.0198  0.3554
10467SOL    HW232215   6.989   1.798   5.913 -0.3285  2.3007  0.9482
10468SOL     OW32216   1.696   5.039   3.640  0.3517 -0.2545 -0.0752
10468SOL    HW132217   1.750   4.964   3.618 -0.4836 -1.3764  1.5222
10468SOL    HW232218   1.645   5.010   3.716 -0.5766  1.6510  0.0696
10469SOL     OW32219   7.474   0.566   7.146 -0.2599 -0.1960 -0.4943
10469SOL    HW132220   7.529   0.595   7.073 -0.6688 -1.6675 -1.4049
10469SOL    HW232221   7.391   0.612   7.133 -0.1843 -0.1135 -0.6997
10470SOL     OW32222   2.895   6.234   1.795 -0.5795 -0.3065 -0.2941
10470SOL    HW132223   2.959   6.172   1.831 -1.7309 -1.1380  0.3748
10470SOL    HW232224   2.892   6.213   1.702 -3.1483 -3.3462  0.3930
10471SOL     OW32225   7.525   7.926   3.169  0.4098  0.3530  0.4733
10471SOL    HW132226   7.565   7.926   3.082 -1.6150 -1.9242 -0.4946
10471SOL    HW232227   7.522   8.018   3.194  3.1670  0.8611 -0.8263
10472SOL     OW32228   1.237   5.677   0.808  0.6172 -0.0631  0.0634
10472SOL    HW132229   1.211   5.704   0.896 -0.0295 -3.0448  0.8601
10472SOL    HW232230   1.250   5.582   0.816 -0.3026 -0.5222 -3.2408
10473SOL     OW32231   6.887   6.721   3.411 -0.1527  0.1169  0.4899
10473SOL    HW132232   6.836   6.782   3.465 -0.9277  0.2565 -0.3699
10473SOL    HW232233   6.960   6.774   3.378  0.8061 -0.1986  2.0772
10474SOL     OW32234   2.521   6.042   7.518 -0.1825 -0.0310  0.3542
10474SOL    HW132235   2.577   6.114   7.548  0.1280 -0.2462  0.2974
10474SOL    HW232236   2.443   6.085   7.484 -0.1218  0.2650  0.5837
10475SOL     OW32237   4.413   7.978   7.463 -0.5389 -0.2867 -0.0654
10475SOL    HW132238   4.359   7.972   7.384 -1.1573 -2.2217  0.4568
10475SOL    HW232239   4.350   7.992   7.534  0.1485  3.0519 -0.0635
10476SOL     OW32240   5.440   7.087   0.115 -0.0590 -0.5912  0.6175
10476SOL    HW132241   5.498   7.066   0.042 -1.2958 -1.4022 -0.1444
10476SOL    HW232242   5.362   7.124   0.074 -0.2990  0.0189  1.6030
10477SOL     OW32243   3.353   1.141   4.257 -0.2841 -0.1252  0.0660
10477SOL    HW132244   3.334   1.229   4.289 -0.2555 -1.1708  3.1337
10477SOL    HW232245   3.449   1.138   4.251 -0.2030 -0.4282  1.4489
10478SOL     OW32246   7.619   0.815   5.217 -0.3004  0.1466  0.5270
10478SOL    HW132247   7.595   0.757   5.145 -2.3374 -0.3815  1.6031
10478SOL    HW232248   7.693   0.771   5.260 -0.0798 -0.2949 -0.3035
10479SOL     OW32249   1.145   1.755   3.418  0.8258 -0.2118  0.3247
10479SOL    HW132250   1.194   1.796   3.347  1.1392 -0.5450  0.3476
10479SOL    HW232251   1.112   1.674   3.380 -2.0931  1.3210 -0.5752
10480SOL     OW32252   1.435   1.482   7.211  0.7824  0.2354  0.4101
10480SOL    HW132253   1.456   1.548   7.144 -0.4475  2.1632  1.8812
10480SOL    HW232254   1.358   1.436   7.175  1.7571 -0.5603 -0.7053
10481SOL     OW32255   1.007   7.613   1.683 -0.4052  0.1286  0.1992
10481SOL    HW132256   0.920   7.647   1.662  0.5711  0.8127 -3.1323
10481SOL    HW232257   0.998   7.518   1.673 -0.8175  0.1928 -0.0542
10482SOL     OW32258   2.954   6.700   0.454 -0.9638  0.2080 -0.2604
10482SOL    HW132259   2.973   6.779   0.505 -0.4870  0.2599 -0.5201
10482SOL    HW232260   2.992   6.718   0.368 -0.6621 -0.4012 -0.2538
10483SOL     OW32261   4.849   5.828   1.285  0.5395 -0.7110 -0.3678
10483SOL    HW132262   4.878   5.917   1.267 -1.1765 -0.1786 -0.6557
10483SOL    HW232263   4.864   5.780   1.204  0.8787 -0.5305 -0.4117
10484SOL     OW32264   6.490   0.182   4.186  0.3900  0.1670 -0.0165
10484SOL    HW132265   6.439   0.242   4.240  0.8463  1.0697 -0.5828
10484SOL    HW232266   6.570   0.230   4.164  1.2546 -1.0300  0.4059
10485SOL     OW32267   3.624   5.193   1.338 -0.3111 -0.4027 -0.1365
10485SOL    HW132268   3.540   5.236   1.322 -1.1380 -1.9989 -0.1572
10485SOL    HW232269   3.690   5.258   1.312 -1.5492  0.3003 -1.5781
10486SOL     OW32270   4.941   4.763   0.117  0.2249 -0.0288  0.0226
10486SOL    HW132271   4.961   4.680   0.074  0.6275 -1.1887  2.3588
10486SOL    HW232272   5.027   4.797   0.143 -0.2238 -1.1217  3.0551
10487SOL     OW32273   1.103   4.920   3.667  0.3591  0.3075 -0.3914
10487SOL    HW132274   1.187   4.902   3.625  0.2787 -1.7091  0.2530
10487SOL    HW232275   1.042   4.860   3.625 -0.5175  0.9269 -0.0140
10488SOL     OW32276   5.943   2.895   4.986  0.0579  0.4950 -0.0590
10488SOL    HW132277   5.873   2.875   5.048  0.2842  0.5902  0.2297
10488SOL    HW232278   5.977   2.980   5.016  1.6748 -0.5173  1.0544
10489SOL     OW32279   6.038   0.091   5.223 -0.1348 -0.4852  0.1056
10489SOL    HW132280   6.033   0.103   5.128 -0.2943 -1.1802  0.0217
10489SOL    HW232281   5.957   0.045   5.245 -0.5772  0.5799  0.7274
10490SOL     OW32282   5.945   7.589   5.940 -0.2454 -0.0377 -0.1844
10490SOL    HW132283   5.998   7.650   5.992  0.0996  0.2401 -0.8669
10490SOL    HW232284   6.006   7.552   5.876 -1.2623  1.6273 -2.1465
10491SOL     OW32285   7.140   6.141   7.732 -0.7291 -0.0808 -0.1598
10491SOL    HW132286   7.231   6.153   7.757 -0.8653 -1.2142  0.9543
10491SOL    HW232287   7.127   6.201   7.659  1.4986 -1.3784 -1.7011
10492SOL     OW32288   4.057   4.969   2.019 -0.2304 -0.2744  0.2219
10492SOL    HW132289   4.107   4.905   2.069  1.1476 -0.6437 -1.5634
10492SOL    HW232290   3.978   4.924   1.992 -0.7996 -0.1906  1.7084
10493SOL     OW32291   1.710   2.765   4.361 -0.0196 -0.0566  0.3979
10493SOL    HW132292   1.725   2.731   4.273 -1.3270 -1.0789  0.5496
10493SOL    HW232293   1.724   2.690   4.418  0.2772  0.4666  1.0209
10494SOL     OW32294   3.763   1.900   2.658 -0.0235 -0.5509  0.1577
10494SOL    HW132295   3.844   1.861   2.626 -0.9402 -1.5028 -1.0714
10494SOL    HW232296   3.765   1.990   2.626  0.7311 -0.4505  0.4845
10495SOL     OW32297   4.967   0.013   2.609 -0.4038 -0.5310  0.6115
10495SOL    HW132298   5.022  -0.008   2.533  0.7773  0.7572  1.0902
10495SOL    HW232299   4.995  -0.048   2.676 -1.3366 -1.5647  0.0803
10496SOL     OW32300   3.744   5.876   7.507  0.2384 -0.0919 -0.1347
10496SOL    HW132301   3.797   5.928   7.446  0.3415  0.0844  0.1032
10496SOL    HW232302   3.719   5.798   7.457  1.8305 -0.8165  0.1824
10497SOL     OW32303   6.962   6.277   2.484  0.8041  0.1570  0.0323
10497SOL    HW132304   6.870   6.300   2.474  0.9374  0.3936 -0.6917
10497SOL    HW232305   7.008   6.361   2.483  1.2165 -0.0651 -1.7545
10498SOL     OW32306   5.006   7.003   2.221 -0.0939 -0.6011 -0.1467
10498SOL    HW132307   5.041   7.062   2.154 -0.4319  0.4100  0.5597
10498SOL    HW232308   5.083   6.975   2.270 -0.0744  0.4050  0.4256
10499SOL     OW32309   4.445   7.386   4.038 -0.4245 -0.6283  0.4403
10499SOL    HW132310   4.402   7.426   4.114  2.0498  1.4550  0.8174
10499SOL    HW232311   4.429   7.448   3.966 -0.7793 -1.4416 -0.1897
10500SOL     OW32312   4.815   5.651   7.925 -0.1803 -0.0671 -0.3138
10500SOL    HW132313   4.834   5.714   7.856  0.5624 -0.1880 -0.2278
10500SOL    HW232314   4.826   5.701   8.006 -2.0501  0.3426 -0.3007
10501SOL     OW32315   4.170   2.782   1.377 -0.2109  1.1710  0.0182
10501SOL    HW132316   4.227   2.786   1.454  1.4491 -1.4755 -0.9864
10501SOL    HW232317   4.204   2.850   1.318  0.8537  0.7601  0.1398
10502SOL     OW32318   6.268   5.483   3.513  0.2851  0.2196 -0.3656
10502SOL    HW132319   6.195   5.426   3.537  1.7114 -0.7267  1.9214
10502SOL    HW232320   6.268   5.484   3.418 -1.5387 -1.2902 -0.4069
10503SOL     OW32321   2.547   2.701   5.323  0.2363  0.5133 -0.1279
10503SOL    HW132322   2.508   2.740   5.401  0.2062  0.1455  0.0417
10503SOL    HW232323   2.641   2.710   5.337  0.2571 -0.3645  0.3772
10504SOL     OW32324   0.349   7.961   3.821 -0.3793 -0.3860 -0.2822
10504SOL    HW132325   0.358   8.041   3.873  1.3000 -0.1207 -0.9295
10504SOL    HW232326   0.344   7.891   3.886 -0.9915  0.1666  0.2770
10505SOL     OW32327   4.595   5.862   0.498 -0.5841 -0.5218 -0.1143
10505SOL    HW132328   4.681   5.821   0.490  0.2360  1.3696 -1.3007
10505SOL    HW232329   4.552   5.844   0.415 -0.4137  0.5678 -0.4424
10506SOL     OW32330   6.235   0.221   2.383 -0.3593  0.7240 -0.3145
10506SOL    HW132331   6.206   0.275   2.457 -0.4739  0.6753 -0.3240
10506SOL    HW232332   6.222   0.131   2.412 -1.2511  0.7147 -0.7356
10507SOL     OW32333   1.027   3.929   0.705 -0.0927  0.0618 -0.2636
10507SOL    HW132334   1.036   3.964   0.616  0.5040 -0.0763 -0.2584
10507SOL    HW232335   1.117   3.912   0.733 -0.3300 -0.6450  0.0679
10508SOL     OW32336   2.370   3.754   1.215  0.2556 -0.0295  0.0210
10508SOL    HW132337   2.441   3.818   1.208  0.9443 -0.6814  0.9480
10508SOL    HW232338   2.404   3.675   1.174  0.5376 -0.7261  1.5647
10509SOL     OW32339   0.438   7.540   3.066 -0.2538  0.1709  0.7937
10509SOL    HW132340   0.503   7.567   3.001 -0.4563  0.0023  0.5185
10509SOL    HW232341   0.457   7.447   3.082 -1.7668 -0.4767 -0.9002
10510SOL     OW32342   4.395   4.827   6.257 -0.3374  0.0734 -0.1936
10510SOL    HW132343   4.385   4.851   6.165  1.5698  0.9771 -0.1957
10510SOL    HW232344   4.312   4.785   6.281 -1.2513  0.8041 -2.0158
10511SOL     OW32345   4.989   1.116   6.530  0.1122 -0.7666  0.0981
10511SOL    HW132346   4.996   1.023   6.510 -1.3852 -0.7998 -0.3453
10511SOL    HW232347   5.078   1.143   6.552  0.7756 -2.0211 -0.9998
10512SOL     OW32348   3.568   1.060   3.302  0.8583 -0.6718  0.0509
10512SOL    HW132349   3.609   1.133   3.255 -1.7011  0.1470 -1.0026
10512SOL    HW232350   3.511   1.101   3.367  0.1678 -1.7230  0.1374
10513SOL     OW32351   2.352   3.041   6.539 -0.3023 -0.3651  0.5439
10513SOL    HW132352   2.284   3.082   6.486  1.7317  1.5492 -0.6480
10513SOL    HW232353   2.366   3.101   6.613  1.2534  0.1356 -0.1250
10514SOL     OW32354   2.266   3.939   2.418  0.8320 -0.0399 -0.1982
10514SOL    HW132355   2.244   3.872   2.482  3.4902 -0.2812  0.5423
10514SOL    HW232356   2.286   4.017   2.469  1.0912  0.3298 -0.8470
10515SOL     OW32357   5.206   3.288   4.883 -0.4331  0.3867  0.4600
10515SOL    HW132358   5.250   3.210   4.849 -0.1938  0.3692  0.8038
10515SOL    HW232359   5.114   3.276   4.861 -0.0352  1.2289 -1.8150
10516SOL     OW32360   0.764   6.309   1.024  0.3147 -0.0043  0.1448
10516SOL    HW132361   0.796   6.230   1.068  1.3467 -0.6816 -1.7726
10516SOL    HW232362   0.669   6.304   1.032  0.3088 -2.0505 -0.9495
10517SOL     OW32363   7.399   0.015   2.628 -0.5486  0.1354 -0.4036
10517SOL    HW132364   7.349  -0.034   2.562  0.2414 -1.0306 -0.1491
10517SOL    HW232365   7.370  -0.020   2.712 -0.1072  0.2267 -0.2108
10518SOL     OW32366   1.094   1.388   5.247 -0.4073 -0.3040  0.3398
10518SOL    HW132367   1.163   1.391   5.180  0.4264 -0.5787  1.1763
10518SOL    HW232368   1.051   1.304   5.233 -0.4079 -0.2474 -0.0143
10519SOL     OW32369   3.725   5.099   7.683  0.1356  0.1441  0.0044
10519SOL    HW132370   3.685   5.031   7.629  1.8812 -0.9442  0.0266
10519SOL    HW232371   3.806   5.121   7.636 -0.5480  2.4456 -0.1729
10520SOL     OW32372   2.399   0.271   2.048 -0.6372  0.4522  0.3369
10520SOL    HW132373   2.456   0.201   2.081 -0.3083  0.1888 -0.7593
10520SOL    HW232374   2.330   0.224   2.000 -0.9058  0.8415  0.3438
10521SOL     OW32375   7.551   1.400   6.523  0.1832 -0.5785  0.3125
10521SOL    HW132376   7.583   1.328   6.469 -0.4906 -1.9903  1.7718
10521SOL    HW232377   7.627   1.458   6.533  1.2029 -1.9311  0.5036
10522SOL     OW32378   7.159   1.647   4.528  0.0819 -0.2470  0.3146
10522SOL    HW132379   7.168   1.657   4.622  0.7793 -0.3226  0.2591
10522SOL    HW232380   7.247   1.665   4.493  0.5193 -2.8729 -0.0833
10523SOL     OW32381   6.551   0.514   3.283  0.0936  0.4025 -0.7237
10523SOL    HW132382   6.611   0.466   3.340  0.6209  1.7405 -0.1118
10523SOL    HW232383   6.466   0.472   3.295  0.6538 -0.6918 -0.6028
10524SOL     OW32384   2.073   2.641   2.569  0.4669 -0.3748 -0.3575
10524SOL    HW132385   2.066   2.709   2.636 -0.0791 -0.6336 -0.1519
10524SOL    HW232386   2.138   2.675   2.507 -0.0217  0.4541 -0.4145
10525SOL     OW32387   0.281   1.527   0.262 -0.9778 -0.2733 -0.3949
10525SOL    HW132388   0.223   1.451   0.266  0.3333 -1.2748  0.1939
10525SOL    HW232389   0.342   1.508   0.191  0.1978 -0.4069  0.6258
10526SOL     OW32390   3.008   6.786   4.965  0.3444 -0.5975 -0.1886
10526SOL    HW132391   2.918   6.806   4.991  0.7523 -0.2636  0.9907
10526SOL    HW232392   3.008   6.795   4.870 -1.0614 -1.3606 -0.2775
10527SOL     OW32393   0.155   1.417   3.175 -0.5499 -0.1035  0.0649
10527SOL    HW132394   0.157   1.480   3.248  1.9984  1.3397 -1.1771
10527SOL    HW232395   0.089   1.451   3.116  0.6409  1.3170 -0.4788
10528SOL     OW32396   7.630   7.781   7.303 -0.1977 -0.3375  0.8580
10528SOL    HW132397   7.593   7.727   7.373  0.5648  1.7430  2.8957
10528SOL    HW232398   7.597   7.869   7.320 -0.0006  0.2160 -1.4294
10529SOL     OW32399   5.597   0.746   3.388  0.0322 -0.5781  0.2797
10529SOL    HW132400   5.595   0.836   3.356  2.2761  0.4131  2.7271
10529SOL    HW232401   5.618   0.755   3.481  2.5990 -3.7368  0.0861
10530SOL     OW32402   5.678   3.694   2.362  0.9797  0.0653  0.2385
10530SOL    HW132403   5.669   3.782   2.327  0.7742 -0.2018 -0.3965
10530SOL    HW232404   5.600   3.682   2.417  0.3598 -0.1760 -0.6879
10531SOL     OW32405   2.037   1.271   2.728 -0.2985 -0.3022 -0.1419
10531SOL    HW132406   2.017   1.321   2.649  0.4475  0.1625 -0.0428
10531SOL    HW232407   1.964   1.289   2.787  0.7826  2.0096  0.5142
10532SOL     OW32408   4.770   7.874   0.388  0.1034  0.8193  0.5394
10532SOL    HW132409   4.849   7.908   0.432  1.1794  2.7556 -2.7166
10532SOL    HW232410   4.716   7.951   0.375  0.3314  0.5094 -2.5027
10533SOL     OW32411   2.736   1.821   7.158  0.3847 -0.2814  0.6213
10533SOL    HW132412   2.685   1.894   7.192  2.4941  0.9142  1.3354
10533SOL    HW232413   2.747   1.839   7.065  0.4811  0.0676  0.7008
10534SOL     OW32414   1.179   0.351   4.735 -0.3586  0.0033  0.2056
10534SOL    HW132415   1.187   0.265   4.694 -0.2691  0.4784 -0.8004
10534SOL    HW232416   1.196   0.336   4.827  0.4551 -0.9289 -0.0926
10535SOL     OW32417   7.941   6.961   2.675 -0.5016 -0.1330  0.5773
10535SOL    HW132418   7.913   7.049   2.701  0.9180 -0.2192  2.4761
10535SOL    HW232419   8.015   6.976   2.617 -2.0426 -0.0256 -1.4327
10536SOL     OW32420   5.437   3.831   1.736 -0.3506  0.0746  0.0498
10536SOL    HW132421   5.414   3.763   1.800 -2.4625  1.4189  0.7349
10536SOL    HW232422   5.492   3.892   1.785 -1.3481  0.7042  0.3978
10537SOL     OW32423   4.322   6.587   4.235 -0.4209 -0.3858  0.2900
10537SOL    HW132424   4.361   6.611   4.319 -0.6493 -1.3121  0.6611
10537SOL    HW232425   4.358   6.650   4.173 -0.3145  0.3548  1.0955
10538SOL     OW32426   6.784   6.566   0.983  0.0564 -0.4859  0.6387
10538SOL    HW132427   6.831   6.595   1.061  0.2804  0.4420  0.1841
10538SOL    HW232428   6.852   6.526   0.928  0.0934 -0.2580  0.5134
10539SOL     OW32429   7.781   1.060   5.120 -0.1645  0.2306  0.6088
10539SOL    HW132430   7.749   1.146   5.149  0.3612  1.7139 -2.9589
10539SOL    HW232431   7.702   1.011   5.100 -0.4308  0.4312  1.1475
10540SOL     OW32432   1.022   3.662   4.879 -0.6779  0.0850 -0.3287
10540SOL    HW132433   1.110   3.682   4.847 -0.5529 -0.0317 -0.0578
10540SOL    HW232434   1.013   3.715   4.958 -1.7442  1.9325 -1.6637
10541SOL     OW32435   4.731   5.052   5.856  0.2819 -0.1211  0.4429
10541SOL    HW132436   4.719   5.139   5.894  2.4214  0.8573 -1.0200
10541SOL    HW232437   4.761   4.997   5.929  1.4053  1.0031  0.8442
10542SOL     OW32438   6.459   0.345   7.539  0.3863  0.1416 -0.3155
10542SOL    HW132439   6.411   0.278   7.589  1.0150 -0.2432 -0.2217
10542SOL    HW232440   6.517   0.294   7.482  0.3846  0.5996 -0.7253
10543SOL     OW32441   0.626   1.413   3.615  0.0495 -0.0901  0.5917
10543SOL    HW132442   0.647   1.369   3.697 -0.6881  0.8948  1.3286
10543SOL    HW232443   0.530   1.407   3.608  0.1167 -0.3031 -0.2804
10544SOL     OW32444   2.166   2.980   7.356 -0.8097  0.2712  0.2544
10544SOL    HW132445   2.125   3.058   7.320 -1.2015 -0.9100 -1.9324
10544SOL    HW232446   2.148   2.911   7.292  0.0971 -1.4762  1.8051
10545SOL     OW32447   4.988   7.034   7.115  0.3245  0.1462 -0.4021
10545SOL    HW132448   5.034   6.953   7.140 -0.7324  0.2161  1.9442
10545SOL    HW232449   5.032   7.102   7.165 -1.0275  0.5043  0.3082
10546SOL     OW32450   6.416   6.594   2.582 -0.0409 -0.6934 -0.2178
10546SOL    HW132451   6.438   6.524   2.642 -0.3924 -0.9209 -0.3548
10546SOL    HW232452   6.404   6.551   2.497  3.1262 -0.0440 -1.0468
10547SOL     OW32453   0.990   1.153   3.596 -0.5849 -0.2249 -0.1978
10547SOL    HW132454   1.007   1.061   3.577 -2.1603 -0.7478  0.8791
10547SOL    HW232455   0.971   1.192   3.511 -1.9296 -1.3362 -0.4201
10548SOL     OW32456   3.374   6.478   7.027 -0.0987 -0.6101 -0.4465
10548SOL    HW132457   3.410   6.533   7.095 -2.0959  0.4850 -0.2237
10548SOL    HW232458   3.404   6.518   6.945 -1.7358  1.0015 -0.2939
10549SOL     OW32459   7.825   7.562   7.325 -0.0889  0.0338 -0.3542
10549SOL    HW132460   7.783   7.478   7.307 -0.1286  0.2643 -1.3477
10549SOL    HW232461   7.755   7.626   7.317 -0.2377  0.0832  1.2335
10550SOL     OW32462   1.636   5.162   3.402 -0.3730  1.2316 -0.0999
10550SOL    HW132463   1.646   5.080   3.354  0.8293  1.8978 -1.0450
10550SOL    HW232464   1.687   5.150   3.482 -0.0595  1.1087 -0.3174
10551SOL     OW32465   0.764   7.940   6.698  0.4928 -0.0380  0.0457
10551SOL    HW132466   0.719   8.015   6.660 -0.0840 -0.5592 -0.3145
10551SOL    HW232467   0.753   7.870   6.633  0.9547 -0.4549  0.4089
10552SOL     OW32468   6.203   3.586   6.415  0.0363 -0.3276 -0.1389
10552SOL    HW132469   6.199   3.637   6.496 -0.7158  0.4669 -0.6585
10552SOL    HW232470   6.289   3.606   6.378  0.5028 -0.9349  0.6126
10553SOL     OW32471   6.028   5.338   0.718 -0.3109  0.3693 -0.5530
10553SOL    HW132472   6.071   5.326   0.803 -1.3907 -1.8067 -0.2608
10553SOL    HW232473   5.936   5.353   0.740 -0.5671 -0.0531 -1.3141
10554SOL     OW32474   5.714   6.241   2.931 -0.8497 -0.1710  0.0901
10554SOL    HW132475   5.755   6.265   3.014 -1.1431  1.7122 -0.2820
10554SOL    HW232476   5.775   6.181   2.890  0.6753  1.1673  0.3647
10555SOL     OW32477   6.434   5.893   1.374 -0.4516 -0.1418 -0.1515
10555SOL    HW132478   6.404   5.822   1.431  1.3016 -0.1316  0.8251
10555SOL    HW232479   6.412   5.973   1.423 -1.1645 -0.0536 -0.6147
10556SOL     OW32480   0.462   3.243   0.925 -0.3443 -0.3398  0.2295
10556SOL    HW132481   0.438   3.238   0.833 -2.3083  0.6013  0.6654
10556SOL    HW232482   0.467   3.337   0.944 -2.5745 -0.4912  1.7115
10557SOL     OW32483   0.028   5.085   4.563 -0.1294  0.0285 -0.2436
10557SOL    HW132484   0.032   5.172   4.604  0.9014  0.6317 -1.5937
10557SOL    HW232485   0.096   5.034   4.607 -2.7874 -1.0874  2.7341
10558SOL     OW32486   7.345   7.951   0.106  0.3223 -0.3071 -0.3532
10558SOL    HW132487   7.394   8.024   0.143 -0.7700  0.8879 -1.2069
10558SOL    HW232488   7.263   7.950   0.156  0.4731 -1.1545 -0.1229
10559SOL     OW32489   1.884   6.850   6.503  0.9044  0.2027 -0.3769
10559SOL    HW132490   1.894   6.858   6.408 -1.1548  3.0128 -0.3928
10559SOL    HW232491   1.958   6.898   6.539  0.0693  1.6294 -0.5570
10560SOL     OW32492   4.884   6.456   4.311 -0.2508 -0.0952 -0.5998
10560SOL    HW132493   4.815   6.495   4.364 -0.4318 -1.6821  0.3715
10560SOL    HW232494   4.886   6.508   4.231 -0.4133  1.9307  0.6908
10561SOL     OW32495   2.083   7.783   4.169  0.8044 -0.2591  0.4858
10561SOL    HW132496   2.080   7.731   4.249 -0.0111  0.6644  1.0835
10561SOL    HW232497   2.109   7.870   4.199 -0.4642  0.3407 -0.0917
10562SOL     OW32498   1.547   4.848   7.125 -0.5120 -0.0393 -0.0671
10562SOL    HW132499   1.637   4.858   7.092 -0.3719  0.9816  0.6062
10562SOL    HW232500   1.556   4.848   7.220 -1.1926 -0.2443 -0.0046
10563SOL     OW32501   5.988   2.067   5.961 -0.5778  0.0034 -0.3456
10563SOL    HW132502   5.895   2.089   5.966 -0.5601  0.1510 -0.6414
10563SOL    HW232503   5.991   1.982   5.917 -0.6193 -0.3742  0.3773
10564SOL     OW32504   3.018   1.977   4.606  0.2663 -0.8375 -0.3693
10564SOL    HW132505   2.995   1.928   4.526 -1.2072 -0.5881 -0.1172
10564SOL    HW232506   3.021   2.068   4.578 -3.1645 -0.4021  0.4086
10565SOL     OW32507   2.716   0.140   1.136  0.0301  0.1129 -0.3514
10565SOL    HW132508   2.694   0.192   1.058  1.6520  0.6138 -0.4902
10565SOL    HW232509   2.720   0.204   1.207  2.3830  0.2437 -0.5852
10566SOL     OW32510   1.872   0.249   2.643 -0.0170 -0.6393 -0.0595
10566SOL    HW132511   1.933   0.290   2.582  1.8459 -0.1165  2.0980
10566SOL    HW232512   1.808   0.205   2.586  0.6918  1.1984 -2.3780
10567SOL     OW32513   0.909   5.709   6.561 -0.2195  0.1660 -0.7727
10567SOL    HW132514   0.872   5.791   6.531 -1.1025  0.2608  0.5259
10567SOL    HW232515   0.950   5.730   6.645  2.5880  0.0103 -2.0180
10568SOL     OW32516   3.959   0.755   6.744  0.1223 -0.2608 -0.0054
10568SOL    HW132517   3.968   0.733   6.837 -0.9401  0.8115  0.3714
10568SOL    HW232518   4.037   0.807   6.725 -0.2607  0.5631  0.6221
10569SOL     OW32519   7.414   2.759   2.605  0.4741 -0.0062 -0.2589
10569SOL    HW132520   7.452   2.674   2.584 -0.3762 -0.4651  0.0509
10569SOL    HW232521   7.327   2.758   2.565 -0.1921  0.0719  1.1468
10570SOL     OW32522   1.745   2.317   4.227  0.7862 -0.3205  0.6912
10570SOL    HW132523   1.704   2.233   4.208  0.1463  0.4717 -1.5751
10570SOL    HW232524   1.828   2.315   4.179  2.2856 -0.9206  3.2322
10571SOL     OW32525   2.451   5.153   1.430 -0.2507 -0.1698 -0.0221
10571SOL    HW132526   2.356   5.152   1.442 -0.2679  2.9950  0.6468
10571SOL    HW232527   2.467   5.226   1.369  1.7090 -1.0043 -0.5621
10572SOL     OW32528   6.408   7.065   4.465 -0.0967 -0.5384  0.3402
10572SOL    HW132529   6.374   7.154   4.450  0.3271  0.0974  2.9216
10572SOL    HW232530   6.339   7.021   4.514 -0.4915 -1.7987 -1.3328
10573SOL     OW32531   7.942   6.044   6.607 -0.9239 -0.2484 -0.1618
10573SOL    HW132532   7.919   6.067   6.698 -2.5633  0.6165 -0.7660
10573SOL    HW232533   8.022   6.094   6.590 -1.0313  0.1922  0.5628
10574SOL     OW32534   6.993   6.094   0.839 -0.2552 -0.3010 -0.4620
10574SOL    HW132535   6.901   6.110   0.819 -0.6027 -0.4280  0.9438
10574SOL    HW232536   7.023   6.034   0.771 -0.6606  1.2967 -2.0866
10575SOL     OW32537   1.912   5.219   3.907  0.0067  0.2286 -0.3554
10575SOL    HW132538   1.956   5.285   3.960 -0.1208 -0.7690  1.0137
10575SOL    HW232539   1.901   5.261   3.821 -0.7026  2.2372  0.6791
10576SOL     OW32540   5.449   2.253   2.666  0.2687  0.3779  0.1175
10576SOL    HW132541   5.462   2.268   2.760 -0.7220  0.6352  0.2249
10576SOL    HW232542   5.535   2.228   2.633  0.6356  0.3465  1.0859
10577SOL     OW32543   4.219   1.912   3.300 -0.0083  0.0384 -0.0534
10577SOL    HW132544   4.277   1.860   3.244 -0.4105 -0.5568  0.0777
10577SOL    HW232545   4.278   1.965   3.353  0.4023 -0.1228 -0.3490
10578SOL     OW32546   7.476   4.458   3.017 -0.0165 -0.3476 -0.6698
10578SOL    HW132547   7.478   4.545   3.055 -1.3453  0.2095 -1.8346
10578SOL    HW232548   7.566   4.441   2.990  0.1638  0.8478 -0.8333
10579SOL     OW32549   4.056   1.507   3.745  0.4556  0.3227  0.4394
10579SOL    HW132550   3.978   1.454   3.726  0.0498  0.4220  1.7810
10579SOL    HW232551   4.064   1.565   3.669 -0.4234 -0.1174  0.0021
10580SOL     OW32552   2.784   6.153   3.959  0.0084 -0.5014  0.0541
10580SOL    HW132553   2.822   6.110   4.035 -0.4225  0.9932  1.1277
10580SOL    HW232554   2.691   6.131   3.963 -0.0928 -0.0310  0.2075
10581SOL     OW32555   3.239   7.536   0.826 -0.2198 -0.4998 -0.0399
10581SOL    HW132556   3.259   7.490   0.907 -0.2170 -1.1025 -0.3786
10581SOL    HW232557   3.176   7.480   0.781  0.6688 -0.7525 -0.9958
10582SOL     OW32558   7.772   6.144   7.531 -0.5578  0.1445  0.4963
10582SOL    HW132559   7.712   6.218   7.522 -0.5607  0.1076  0.1772
10582SOL    HW232560   7.730   6.074   7.481 -0.1360  0.1904  0.0686
10583SOL     OW32561   2.055   0.302   2.452 -0.2457 -0.2554 -0.4598
10583SOL    HW132562   2.127   0.273   2.396  0.3470  0.6459 -0.1855
10583SOL    HW232563   2.009   0.367   2.399 -1.4111 -1.4734 -0.9752
10584SOL     OW32564   4.752   6.205   6.122  0.1816  0.2306  0.1227
10584SOL    HW132565   4.770   6.150   6.198 -0.7149 -0.3513 -0.0788
10584SOL    HW232566   4.835   6.247   6.102  0.3500  0.5975  1.5935
10585SOL     OW32567   2.412   1.045   3.185  0.6001  0.3851  0.5587
10585SOL    HW132568   2.358   0.980   3.139  0.9105 -0.0934  0.8588
10585SOL    HW232569   2.442   1.104   3.116 -1.7272  1.6966  0.6342
10586SOL     OW32570   4.211   4.409   7.994 -0.2684 -0.2753  0.1090
10586SOL    HW132571   4.298   4.368   7.995 -0.1910 -0.0791  1.5264
10586SOL    HW232572   4.162   4.363   8.062 -1.9602 -1.8361 -2.1176
10587SOL     OW32573   0.396   2.564   1.064 -0.5248 -0.0511  0.1452
10587SOL    HW132574   0.476   2.617   1.072  0.3525 -1.1971 -0.7729
10587SOL    HW232575   0.345   2.608   0.996  0.1140 -0.2535 -0.4759
10588SOL     OW32576   2.243   0.793   4.768 -0.2303  0.6996 -0.0368
10588SOL    HW132577   2.240   0.704   4.733 -0.6301  0.9465 -0.6435
10588SOL    HW232578   2.258   0.782   4.862  1.5628  0.0460 -0.3886
10589SOL     OW32579   5.192   7.395   4.678  1.0779  0.1866 -0.2878
10589SOL    HW132580   5.221   7.370   4.766  1.2453  1.0051 -0.1134
10589SOL    HW232581   5.102   7.363   4.672  0.8230  0.7602  0.4396
10590SOL     OW32582   4.195   2.695   2.851 -0.3236  0.0983  0.0807
10590SOL    HW132583   4.182   2.789   2.841  1.1028  0.1564 -1.4953
10590SOL    HW232584   4.278   2.687   2.898 -1.2784 -0.3789  1.7435
10591SOL     OW32585   4.618   1.624   0.679  0.0335 -0.3952 -0.3650
10591SOL    HW132586   4.626   1.712   0.643 -4.7932  0.9804  1.5747
10591SOL    HW232587   4.625   1.636   0.774  0.3136 -2.2859 -0.1269
10592SOL     OW32588   3.431   5.411   5.000  0.7735 -0.2485 -0.1746
10592SOL    HW132589   3.442   5.407   4.905 -0.1834  0.9314 -0.3374
10592SOL    HW232590   3.345   5.451   5.013  1.9891  2.0185  1.2047
10593SOL     OW32591   0.917   5.023   2.512 -0.3609  0.0922 -0.7223
10593SOL    HW132592   0.893   4.932   2.491  0.9050 -0.6720  1.0526
10593SOL    HW232593   0.835   5.072   2.504 -1.1243 -1.2499 -1.3628
10594SOL     OW32594   7.573   1.096   7.386 -0.1011  0.7798  0.4455
10594SOL    HW132595   7.648   1.095   7.326 -1.8272  1.5005 -1.8309
10594SOL    HW232596   7.610   1.119   7.471  2.3933  0.0883 -0.4106
10595SOL     OW32597   4.775   2.643   2.639 -0.4919 -0.0686  0.0378
10595SOL    HW132598   4.865   2.616   2.659 -0.9821 -1.5113  0.3685
10595SOL    HW232599   4.750   2.590   2.564  0.1749  2.9658 -2.4459
10596SOL     OW32600   6.961   0.485   0.003 -0.0610 -0.6593  0.6837
10596SOL    HW132601   6.963   0.462  -0.090  0.1819 -0.7842  0.7204
10596SOL    HW232602   6.895   0.427   0.040 -1.2577  0.4339  0.3098
10597SOL     OW32603   6.416   6.704   4.703 -0.1136  0.2334  0.2013
10597SOL    HW132604   6.494   6.709   4.648 -0.1771  0.6019  0.1426
10597SOL    HW232605   6.347   6.743   4.649  0.0001  1.3505  0.8643
10598SOL     OW32606   5.690   2.440   0.575  0.1499 -0.0212 -0.1083
10598SOL    HW132607   5.627   2.504   0.610  0.0203 -0.4643  0.4850
10598SOL    HW232608   5.655   2.416   0.490 -1.1228 -1.1458  0.7139
10599SOL     OW32609   7.197   7.159   1.627  0.2984  0.1864  0.4555
10599SOL    HW132610   7.238   7.073   1.624  1.1575  0.5787  0.7391
10599SOL    HW232611   7.128   7.156   1.561  0.9238 -0.4163 -0.1747
10600SOL     OW32612   4.628   1.443   5.663  0.3656  0.4449  0.1835
10600SOL    HW132613   4.539   1.423   5.693  0.3223  1.6821  0.9078
10600SOL    HW232614   4.616   1.508   5.595  0.6482 -0.3509 -0.6402
10601SOL     OW32615   1.304   2.827   7.749 -0.4461  0.1919 -0.5274
10601SOL    HW132616   1.300   2.915   7.788 -0.7146 -0.4845  1.0206
10601SOL    HW232617   1.213   2.802   7.736 -0.4643 -0.7277  1.1237
10602SOL     OW32618   4.875   6.820   2.820 -0.0133  0.7072 -0.0321
10602SOL    HW132619   4.780   6.826   2.806  0.2438  0.4682 -2.1014
10602SOL    HW232620   4.910   6.898   2.777  0.8777 -0.2556 -1.1059
10603SOL     OW32621   4.496   0.310   5.956  0.4956 -0.0613  0.1804
10603SOL    HW132622   4.468   0.369   6.026  0.1760  1.0180 -0.8202
10603SOL    HW232623   4.484   0.362   5.876  2.5318 -0.6505 -0.5255
10604SOL     OW32624   3.330   1.136   3.444  0.0122 -0.4327 -0.1897
10604SOL    HW132625   3.256   1.084   3.472 -0.6678  1.1996  1.1556
10604SOL    HW232626   3.292   1.206   3.391  0.7753 -0.5982 -0.9698
10605SOL     OW32627   1.152   4.994   0.981  0.4028 -0.4214  0.4416
10605SOL    HW132628   1.188   4.908   0.963  1.4404  0.2105 -0.6108
10605SOL    HW232629   1.130   4.992   1.074 -0.9876 -2.3032  0.0986
10606SOL     OW32630   4.243   1.438   6.482  0.4869  0.3231  0.4098
10606SOL    HW132631   4.267   1.467   6.394 -1.5852  1.7342  0.2773
10606SOL    HW232632   4.277   1.506   6.539 -1.2734  1.2279  0.3951
10607SOL     OW32633   4.445   2.761   2.290  0.3797 -0.1127  0.0846
10607SOL    HW132634   4.357   2.781   2.258  0.9731  1.9501 -0.3722
10607SOL    HW232635   4.499   2.758   2.211  0.8329 -0.7049  0.4151
10608SOL     OW32636   0.226   1.477   6.697  0.1570  0.4464 -0.2331
10608SOL    HW132637   0.255   1.566   6.676 -1.2504  0.0500 -4.3501
10608SOL    HW232638   0.294   1.420   6.660 -0.3966 -0.2694 -0.1673
10609SOL     OW32639   3.715   3.416   2.469  0.2191  0.7620  0.0038
10609SOL    HW132640   3.686   3.506   2.482 -0.6149  0.9170 -2.5718
10609SOL    HW232641   3.790   3.424   2.409  0.6151 -0.2034  0.3692
10610SOL     OW32642   6.690   3.764   0.117  0.0561 -0.0871  0.3957
10610SOL    HW132643   6.781   3.756   0.145  0.4311 -0.6039 -0.9168
10610SOL    HW232644   6.685   3.851   0.077  0.2825 -0.5129 -0.5811
10611SOL     OW32645   3.221   5.116   2.833 -0.3038  0.0707 -0.5772
10611SOL    HW132646   3.200   5.023   2.831 -0.0684  0.0018  0.1796
10611SOL    HW232647   3.137   5.160   2.823 -0.7525 -0.2092  1.7210
10612SOL     OW32648   1.351   6.579   5.693 -0.5233  0.0905 -0.8445
10612SOL    HW132649   1.349   6.638   5.617  0.6110 -0.9247 -1.6916
10612SOL    HW232650   1.369   6.493   5.655 -0.4089 -0.5059  0.5422
10613SOL     OW32651   6.471   4.876   2.957 -0.4187 -0.1268  0.2618
10613SOL    HW132652   6.430   4.927   2.887 -2.8510 -1.1685  0.8662
10613SOL    HW232653   6.450   4.785   2.935 -0.2807 -0.5357  1.7662
10614SOL     OW32654   0.983   5.294   4.246  0.3511  0.3604 -0.1101
10614SOL    HW132655   0.949   5.382   4.230 -0.0266 -0.0565 -1.6055
10614SOL    HW232656   0.964   5.278   4.339 -2.1088  0.7586 -0.5167
10615SOL     OW32657   6.057   5.583   1.498  0.3140  0.2955  0.0623
10615SOL    HW132658   6.083   5.608   1.410  0.6713  0.9728  0.3591
10615SOL    HW232659   6.086   5.655   1.554 -1.7454  0.8565  0.4686
10616SOL     OW32660   5.773   7.688   5.442 -0.5651 -0.6206  0.3249
10616SOL    HW132661   5.864   7.669   5.420 -0.5901 -0.9214  0.4743
10616SOL    HW232662   5.761   7.651   5.530 -1.5337 -2.8772 -0.7071
10617SOL     OW32663   5.652   1.907   7.763 -0.0037  0.2401 -0.2631
10617SOL    HW132664   5.691   1.827   7.798  2.0264  0.8192 -1.0960
10617SOL    HW232665   5.587   1.933   7.828  0.0132 -1.5491  0.4872
10618SOL     OW32666   7.526   2.685   3.617 -0.4185  0.1320 -0.1967
10618SOL    HW132667   7.432   2.700   3.622 -0.8500 -1.9665 -1.3146
10618SOL    HW232668   7.547   2.636   3.696 -0.8596 -2.1398 -1.4505
10619SOL     OW32669   3.549   2.396   0.864  0.4368 -0.0913  0.1780
10619SOL    HW132670   3.473   2.348   0.895 -0.7764  0.6823 -1.5394
10619SOL    HW232671   3.519   2.487   0.856  1.7559  0.3630  0.2142
10620SOL     OW32672   6.845   1.769   1.136 -0.3713  0.3861  0.3458
10620SOL    HW132673   6.777   1.757   1.069  0.1290  2.9551 -0.6549
10620SOL    HW232674   6.814   1.843   1.189  0.9718  0.6512  0.7659
10621SOL     OW32675   3.333   1.293   5.751 -0.1626 -0.0874  0.1373
10621SOL    HW132676   3.394   1.259   5.817 -0.2460  2.0723  1.3839
10621SOL    HW232677   3.248   1.291   5.793 -0.1482  1.7499  0.3240
10622SOL     OW32678   6.033   7.023   0.620 -0.5324  0.2498  0.0972
10622SOL    HW132679   6.115   7.073   0.627 -1.3834  1.9105 -1.3419
10622SOL    HW232680   6.060   6.932   0.616  1.3572  0.8792 -2.1591
10623SOL     OW32681   6.689   0.810   2.819 -0.4146  0.1054  0.0765
10623SOL    HW132682   6.619   0.746   2.809 -1.5019  1.1816  0.7247
10623SOL    HW232683   6.669   0.878   2.755  1.2437 -0.6280 -1.2486
10624SOL     OW32684   6.798   1.051   5.284  0.4874  0.3065 -0.0241
10624SOL    HW132685   6.847   1.087   5.358 -0.3796  0.2824  0.5645
10624SOL    HW232686   6.861   1.051   5.212  0.5038  3.0262 -0.0652
10625SOL     OW32687   3.515   1.377   4.792  0.0682 -0.0519 -0.4115
10625SOL    HW132688   3.534   1.390   4.885  0.3033  0.5464 -0.5387
10625SOL    HW232689   3.600   1.366   4.751 -0.0889 -1.1854 -0.4319
10626SOL     OW32690   1.795   5.141   4.542  0.0462  0.4123 -0.0869
10626SOL    HW132691   1.880   5.184   4.552  0.6058 -0.4152 -1.1813
10626SOL    HW232692   1.740   5.180   4.611  1.0631  1.5408  0.1050
10627SOL     OW32693   1.671   3.468   7.253 -0.5443  0.0735  0.1187
10627SOL    HW132694   1.576   3.476   7.263 -0.6861  1.8832 -2.4720
10627SOL    HW232695   1.707   3.529   7.318 -1.1640  0.0288  0.5055
10628SOL     OW32696   6.756   6.344   4.879  0.3163 -0.2952 -0.2260
10628SOL    HW132697   6.801   6.277   4.827 -0.3441  0.0556 -1.2742
10628SOL    HW232698   6.743   6.416   4.818 -2.0020 -0.5390 -0.0426
10629SOL     OW32699   4.886   4.878   6.878  0.1938 -0.4268  0.1905
10629SOL    HW132700   4.910   4.953   6.823  0.8399 -1.2702 -0.6935
10629SOL    HW232701   4.791   4.877   6.877  0.1965 -0.1266 -0.4847
10630SOL     OW32702   3.621   4.577   3.444 -0.2593 -0.0607 -0.0686
10630SOL    HW132703   3.663   4.560   3.360 -1.7696 -1.8613 -0.4775
10630SOL    HW232704   3.529   4.595   3.421 -0.5494  0.0145  1.1469
10631SOL     OW32705   1.981   4.217   7.333  0.5114 -0.4694  0.0822
10631SOL    HW132706   1.937   4.279   7.390  0.8116 -1.0137  0.9339
10631SOL    HW232707   2.000   4.265   7.253 -1.9724 -0.3459 -0.4623
10632SOL     OW32708   6.358   4.053   3.007  0.1337  0.3617  0.3555
10632SOL    HW132709   6.330   4.129   3.058 -0.9616 -0.0935  0.4610
10632SOL    HW232710   6.276   4.016   2.974  0.7483 -0.0212 -0.7740
10633SOL     OW32711   6.255   5.042   4.668 -0.1342  0.1044 -0.0707
10633SOL    HW132712   6.333   5.089   4.637 -0.2361 -0.2943 -0.9442
10633SOL    HW232713   6.208   5.106   4.720 -0.7485  1.2872 -2.0195
10634SOL     OW32714   5.265   7.101   0.560  0.4111  0.1557 -0.0288
10634SOL    HW132715   5.181   7.073   0.524  1.0872 -1.8638 -0.0958
10634SOL    HW232716   5.244   7.180   0.611 -1.5651 -0.4442  0.1398
10635SOL     OW32717   4.636   0.505   5.014 -0.2361 -0.1364 -0.3612
10635SOL    HW132718   4.620   0.596   4.990 -1.7351 -0.0435  0.9210
10635SOL    HW232719   4.693   0.510   5.090 -0.1431 -0.2740 -0.4226
10636SOL     OW32720   7.896   1.390   5.885 -0.3820 -0.4522 -0.7245
10636SOL    HW132721   7.806   1.374   5.915 -1.0406  0.8635 -1.9275
10636SOL    HW232722   7.920   1.473   5.926  0.0130 -0.4321 -0.9925
10637SOL     OW32723   2.425   5.937   1.468  0.2596 -0.3131 -0.6600
10637SOL    HW132724   2.384   6.022   1.453  1.4694  0.4539  0.2819
10637SOL    HW232725   2.397   5.912   1.556  0.2175 -0.7043 -0.7849
10638SOL     OW32726   3.556   2.656   2.789 -0.0774  0.0428  0.2625
10638SOL    HW132727   3.498   2.586   2.761  2.6742 -2.7009  1.1509
10638SOL    HW232728   3.558   2.716   2.715  0.5463 -2.8186 -2.1109
10639SOL     OW32729   0.681   3.875   6.964  0.4091  0.0954 -0.9205
10639SOL    HW132730   0.640   3.882   6.877  0.0751  1.2871 -0.6758
10639SOL    HW232731   0.709   3.965   6.984 -1.0789  0.1588  0.9550
10640SOL     OW32732   2.482   0.278   7.878 -0.5953  0.0241 -0.0691
10640SOL    HW132733   2.475   0.345   7.810 -0.2415  1.2448  1.0742
10640SOL    HW232734   2.528   0.205   7.835  0.2991  1.0689 -0.9286
10641SOL     OW32735   1.651   6.498   5.901 -0.7368  0.0844 -0.2717
10641SOL    HW132736   1.697   6.577   5.929 -1.6446  0.7299 -0.5977
10641SOL    HW232737   1.565   6.503   5.944 -0.5005 -1.1397  0.3767
10642SOL     OW32738   4.291   0.613   7.241 -0.3066 -0.0830  0.0314
10642SOL    HW132739   4.340   0.550   7.294  1.0718 -0.5536 -1.7640
10642SOL    HW232740   4.201   0.580   7.240  0.1380 -1.2998  0.1925
10643SOL     OW32741   0.382   0.603   1.948 -0.2770  0.7083 -0.3331
10643SOL    HW132742   0.312   0.639   2.002 -0.8035  1.2870 -1.4056
10643SOL    HW232743   0.337   0.550   1.882  0.4143 -0.8240  0.3824
10644SOL     OW32744   2.351   1.264   7.651 -0.4165  0.2837 -0.2221
10644SOL    HW132745   2.371   1.333   7.588 -2.1614  1.2368  0.2283
10644SOL    HW232746   2.435   1.222   7.669  0.1042 -0.0665 -3.2358
10645SOL     OW32747   6.711   1.457   4.704  0.0238  0.2274 -0.1024
10645SOL    HW132748   6.626   1.479   4.742 -0.3544  0.3031 -0.9964
10645SOL    HW232749   6.774   1.492   4.767 -0.5981  0.8302  0.1939
10646SOL     OW32750   6.691   0.847   3.997 -0.6894  0.0252 -0.0265
10646SOL    HW132751   6.696   0.929   3.949 -0.5243 -0.2862 -0.5497
10646SOL    HW232752   6.782   0.817   4.003 -0.8924 -0.8734 -1.1794
10647SOL     OW32753   4.043   7.791   3.576  0.0085  0.4263 -0.3802
10647SOL    HW132754   4.018   7.847   3.649 -0.2605  0.2392 -0.3288
10647SOL    HW232755   4.099   7.847   3.522 -0.6711  0.9080 -0.5966
10648SOL     OW32756   1.758   1.822   6.794 -0.2282 -0.2890  0.5395
10648SOL    HW132757   1.708   1.742   6.779 -1.9491  0.7222  0.8190
10648SOL    HW232758   1.744   1.842   6.887  0.8046 -0.0464  0.6553
10649SOL     OW32759   5.243   3.948   2.393 -0.2865 -0.2182  0.1938
10649SOL    HW132760   5.237   3.855   2.371  0.9382 -0.4439  0.7836
10649SOL    HW232761   5.261   3.991   2.310 -0.6446 -0.5377 -0.0480
10650SOL     OW32762   3.653   1.469   6.414  0.2255  0.1407  0.1349
10650SOL    HW132763   3.602   1.508   6.485  1.0365 -0.5780  1.1275
10650SOL    HW232764   3.625   1.517   6.336 -0.3709  1.2334  0.9927
10651SOL     OW32765   1.199   4.564   2.312 -0.0461 -0.1348 -0.0595
10651SOL    HW132766   1.285   4.593   2.341  0.4479 -0.4929 -1.1422
10651SOL    HW232767   1.150   4.548   2.393  1.2084 -0.8179  0.5685
10652SOL     OW32768   6.826   5.538   7.282  0.3192  0.6952  0.5318
10652SOL    HW132769   6.821   5.516   7.375 -0.9705  0.5587  0.4426
10652SOL    HW232770   6.816   5.633   7.279 -1.6834  0.4884  0.3973
10653SOL     OW32771   4.244   3.264   3.985  0.1712 -0.4389  0.2523
10653SOL    HW132772   4.261   3.173   3.958  1.8886 -0.5653  1.6655
10653SOL    HW232773   4.329   3.307   3.978 -0.5756  1.0086 -0.1107
10654SOL     OW32774   3.781   7.102   6.337  0.2946  0.3869  0.4879
10654SOL    HW132775   3.708   7.132   6.283  0.9049  0.1887 -0.4554
10654SOL    HW232776   3.858   7.145   6.300  0.7127  0.3244  1.2630
10655SOL     OW32777   2.610   7.528   4.504  0.6119 -0.0951 -0.4361
10655SOL    HW132778   2.526   7.569   4.481  0.2666 -0.6035 -0.0724
10655SOL    HW232779   2.674   7.577   4.452 -0.0262 -0.4390 -1.5721
10656SOL     OW32780   4.203   1.712   7.597  0.0844 -0.2731 -0.6809
10656SOL    HW132781   4.109   1.726   7.605  0.0112 -1.6108  1.2487
10656SOL    HW232782   4.213   1.647   7.528 -0.4179 -0.3258 -0.7016
10657SOL     OW32783   1.657   0.989   2.181  0.3248  0.2458 -0.6608
10657SOL    HW132784   1.703   0.956   2.103 -1.4717 -0.1028 -1.5965
10657SOL    HW232785   1.569   1.009   2.150 -0.1995  0.8001  1.1394
10658SOL     OW32786   4.811   3.901   5.252 -0.2050  0.3894 -0.4218
10658SOL    HW132787   4.812   3.967   5.183  0.2195  1.2480  0.3923
10658SOL    HW232788   4.863   3.829   5.218 -0.0287  0.7930 -1.0077
10659SOL     OW32789   3.006   1.203   6.073  0.2103  0.5372  0.0420
10659SOL    HW132790   3.017   1.116   6.110  2.1755  0.5974 -0.3349
10659SOL    HW232791   2.968   1.188   5.986 -1.6552  0.2282  0.8841
10660SOL     OW32792   4.216   6.394   0.181  0.0749  0.1507 -0.9547
10660SOL    HW132793   4.142   6.356   0.134 -1.7523 -2.2316  3.4826
10660SOL    HW232794   4.192   6.485   0.196 -0.4788  0.2306 -2.3038
10661SOL     OW32795   4.567   7.103   2.080 -0.1089 -0.1262 -0.0917
10661SOL    HW132796   4.637   7.105   2.145 -0.2895  0.1906  0.0969
10661SOL    HW232797   4.607   7.064   2.002  0.6677  1.2859 -0.4271
10662SOL     OW32798   7.043   7.700   2.405 -0.1494  0.1448  0.5927
10662SOL    HW132799   7.036   7.644   2.327  1.4249  1.5293 -0.6020
10662SOL    HW232800   6.957   7.740   2.413 -1.3253 -2.5164  1.5391
10663SOL     OW32801   7.298   5.453   6.050 -0.1267 -0.2053 -0.3902
10663SOL    HW132802   7.203   5.441   6.040 -0.6708  0.5207  3.0656
10663SOL    HW232803   7.311   5.547   6.056  0.3227 -0.3862  2.4887
10664SOL     OW32804   6.449   3.283   6.508 -0.2229 -0.3934  0.1694
10664SOL    HW132805   6.425   3.246   6.423  0.0260  1.6928 -0.8440
10664SOL    HW232806   6.421   3.217   6.572 -2.3732 -1.0436 -1.3907
10665SOL     OW32807   1.841   6.003   6.293  0.2685  0.5456 -0.0178
10665SOL    HW132808   1.898   5.934   6.258  0.3145  0.2853  0.5751
10665SOL    HW232809   1.753   5.976   6.266  0.1106 -0.5836  1.5746
10666SOL     OW32810   1.429   3.347   6.409  0.2882 -0.1912 -0.1675
10666SOL    HW132811   1.490   3.402   6.458  2.5631 -1.8964 -0.9827
10666SOL    HW232812   1.424   3.265   6.458 -2.3602  0.3579  0.5507
10667SOL     OW32813   3.896   5.743   2.207  0.0054  0.7867  0.6540
10667SOL    HW132814   3.854   5.664   2.172 -0.2596  0.6761  1.2142
10667SOL    HW232815   3.969   5.710   2.260  1.5756  1.0198 -1.3143
10668SOL     OW32816   0.385   4.351   1.205 -0.5089 -0.3225  0.0027
10668SOL    HW132817   0.333   4.429   1.224 -1.3636 -0.9247  0.2065
10668SOL    HW232818   0.376   4.339   1.111  0.2983  0.2948 -0.1509
10669SOL     OW32819   6.956   2.545   6.069 -0.3569  0.3327  0.3597
10669SOL    HW132820   6.865   2.572   6.079 -0.6769 -0.2147 -0.9512
10669SOL    HW232821   6.955   2.485   5.994  1.6472  3.0516 -1.9284
10670SOL     OW32822   1.249   4.336   3.838 -0.0862 -0.5480  0.5333
10670SOL    HW132823   1.160   4.357   3.810  0.6194  1.1708 -0.5061
10670SOL    HW232824   1.281   4.272   3.775 -0.4468 -0.8531  0.6644
10671SOL     OW32825   4.901   1.649   1.507 -0.2660  0.0368 -0.0821
10671SOL    HW132826   4.818   1.601   1.508  1.0053 -2.3892 -3.0495
10671SOL    HW232827   4.967   1.581   1.521  1.3107  1.7865  1.1378
10672SOL     OW32828   6.753   3.560   4.223  0.1271  0.4489  0.0462
10672SOL    HW132829   6.754   3.577   4.129  1.1894 -0.4112 -0.1100
10672SOL    HW232830   6.663   3.580   4.250 -0.3687  0.0590 -1.2734
10673SOL     OW32831   1.617   6.324   2.068  0.7319  0.2984  0.0671
10673SOL    HW132832   1.533   6.369   2.052  1.5715  1.9710  0.2214
10673SOL    HW232833   1.627   6.324   2.163  1.3211  0.8982  0.0096
10674SOL     OW32834   4.194   1.397   1.368 -0.1200  0.4494 -0.0844
10674SOL    HW132835   4.125   1.402   1.434  0.4457 -0.7866  0.6426
10674SOL    HW232836   4.148   1.389   1.285 -0.8582  3.4771 -0.0231
10675SOL     OW32837   2.512   0.790   4.598  0.1426 -0.0866  0.3477
10675SOL    HW132838   2.512   0.695   4.610 -0.8453 -0.0586  0.6041
10675SOL    HW232839   2.429   0.819   4.635 -1.6697  0.3674 -3.8349
10676SOL     OW32840   3.697   0.476   1.001 -0.4511  0.1509 -1.0002
10676SOL    HW132841   3.722   0.545   0.941 -1.1492 -0.1288 -1.6232
10676SOL    HW232842   3.674   0.401   0.945  0.8788 -0.7883 -0.3145
10677SOL     OW32843   1.179   4.180   1.752 -0.0268 -0.1076  0.0781
10677SOL    HW132844   1.265   4.167   1.714  0.2614  0.4314  0.5473
10677SOL    HW232845   1.118   4.165   1.680  0.5626  2.5090 -0.9974
10678SOL     OW32846   4.641   1.660   4.115 -0.3855 -0.1737  0.1137
10678SOL    HW132847   4.720   1.703   4.083 -2.4588  2.6376 -1.5850
10678SOL    HW232848   4.648   1.664   4.210  1.4376  0.1348 -0.0135
10679SOL     OW32849   1.899   2.727   4.626  0.6485 -0.3838 -0.2079
10679SOL    HW132850   1.869   2.818   4.620  0.5609 -0.4301 -0.5063
10679SOL    HW232851   1.901   2.708   4.720 -0.6288 -0.4970 -0.1957
10680SOL     OW32852   4.399   2.246   2.267  0.2357 -0.1383 -0.1542
10680SOL    HW132853   4.349   2.264   2.188  0.4016  0.8817 -0.0345
10680SOL    HW232854   4.333   2.223   2.333 -0.0445  0.7397 -0.1227
10681SOL     OW32855   0.561   2.114   4.905  0.2449 -0.0822 -0.0341
10681SOL    HW132856   0.518   2.188   4.862 -1.2394 -1.4272 -0.9136
10681SOL    HW232857   0.538   2.038   4.851 -0.0860 -1.5128  2.0776
10682SOL     OW32858   2.864   2.204   1.402  0.0046 -0.5197  0.1162
10682SOL    HW132859   2.950   2.232   1.370 -0.3056  1.0324  0.5683
10682SOL    HW232860   2.874   2.198   1.497  0.2119 -2.5565 -0.0103
10683SOL     OW32861   1.548   3.690   6.763  0.0405  0.4212 -0.3445
10683SOL    HW132862   1.583   3.655   6.844  0.5039  0.4554 -0.5258
10683SOL    HW232863   1.605   3.764   6.742  0.1549  0.1843 -0.8962
10684SOL     OW32864   4.400   2.045   3.457 -0.2944  0.3112  0.0901
10684SOL    HW132865   4.481   2.083   3.424 -0.2570  1.6023  1.6112
10684SOL    HW232866   4.420   2.020   3.546 -0.6158 -2.4532 -0.5847
10685SOL     OW32867   7.492   2.167   6.491 -0.2079  0.7149  0.1795
10685SOL    HW132868   7.573   2.207   6.461 -0.6201  1.4745  0.0634
10685SOL    HW232869   7.425   2.200   6.431 -0.7367  0.7501  0.7781
10686SOL     OW32870   4.420   3.729   2.064 -0.2421 -0.5514  0.2520
10686SOL    HW132871   4.424   3.787   1.988 -0.1795 -0.8666  0.0121
10686SOL    HW232872   4.327   3.710   2.075 -0.8243  3.6192  3.4162
10687SOL     OW32873   4.706   0.307   1.971 -0.1250  0.4109  0.3902
10687SOL    HW132874   4.668   0.356   1.897 -0.8147  0.4814  0.7882
10687SOL    HW232875   4.630   0.280   2.023  0.1101 -2.3917 -0.6327
10688SOL     OW32876   1.034   6.431   5.447 -0.3479 -0.0325 -0.5457
10688SOL    HW132877   0.948   6.428   5.406  0.0825 -2.3524 -1.3462
10688SOL    HW232878   1.019   6.474   5.531 -2.3623 -0.8470 -0.4615
10689SOL     OW32879   3.299   4.104   0.004 -0.0377  0.4944 -0.2838
10689SOL    HW132880   3.277   4.196   0.015 -0.5704  0.4277 -0.7549
10689SOL    HW232881   3.326   4.075   0.091 -1.8211  0.5948  0.3268
10690SOL     OW32882   7.165   5.157   1.222 -0.3741  0.1729  0.4211
10690SOL    HW132883   7.163   5.079   1.278  0.1735 -1.0806 -1.2604
10690SOL    HW232884   7.245   5.148   1.170 -0.5926  1.5764 -0.1910
10691SOL     OW32885   7.872   4.932   1.094  0.0512  0.4213  0.3119
10691SOL    HW132886   7.888   4.957   1.003 -0.8307 -0.0734  0.0118
10691SOL    HW232887   7.878   4.837   1.094  0.6424  0.4629  0.8916
10692SOL     OW32888   7.022   6.532   6.195  0.1138 -0.1543 -0.0998
10692SOL    HW132889   6.946   6.487   6.159 -0.2826  1.8880 -1.9259
10692SOL    HW232890   7.061   6.469   6.257 -2.9376 -1.2665  0.7499
10693SOL     OW32891   0.788   0.537   2.867 -0.6160 -0.0607  0.4090
10693SOL    HW132892   0.697   0.562   2.858 -0.5436 -0.4344 -1.8178
10693SOL    HW232893   0.834   0.592   2.803  0.4457 -1.1160  0.2474
10694SOL     OW32894   3.292   4.104   4.326  0.2228 -0.4145  0.0549
10694SOL    HW132895   3.200   4.081   4.332 -0.0859  1.0967  1.6448
10694SOL    HW232896   3.295   4.173   4.260  0.3161 -0.9572 -0.5079
10695SOL     OW32897   7.583   1.461   0.022 -0.1615  0.2394  0.7034
10695SOL    HW132898   7.665   1.510   0.029 -0.6753  0.9736  1.7934
10695SOL    HW232899   7.609   1.376  -0.015  0.6958  1.4289 -1.4927
10696SOL     OW32900   0.818   0.371   3.715  0.2699  0.3296 -0.6462
10696SOL    HW132901   0.897   0.421   3.734  0.4118 -0.9130  2.1825
10696SOL    HW232902   0.752   0.407   3.773  0.4375 -2.8409  1.6369
10697SOL     OW32903   0.965   7.708   3.026 -0.4384 -0.2378 -0.3310
10697SOL    HW132904   0.895   7.769   3.005 -1.2261 -0.7478  0.7490
10697SOL    HW232905   0.920   7.630   3.059  0.6678  0.1095  2.1198
10698SOL     OW32906   6.288   3.260   3.797  0.3577  0.1962 -0.3048
10698SOL    HW132907   6.311   3.206   3.873 -0.0283 -0.3823 -0.5923
10698SOL    HW232908   6.207   3.221   3.764 -0.2567  1.3411 -0.1543
10699SOL     OW32909   7.850   1.011   7.732 -0.2542  0.4888 -0.2693
10699SOL    HW132910   7.775   0.953   7.721  2.0811 -2.6457 -0.2161
10699SOL    HW232911   7.891   1.014   7.645  0.4367  0.9369  0.0696
10700SOL     OW32912   2.064   7.128   3.625  0.1046  0.1632 -0.2355
10700SOL    HW132913   2.046   7.148   3.533  1.3102  1.4235 -0.2045
10700SOL    HW232914   2.135   7.063   3.621 -0.7619 -0.8142 -0.2074
10701SOL     OW32915   1.081   0.533   5.503  0.0714  0.1548  0.3715
10701SOL    HW132916   1.145   0.591   5.544  1.4481 -0.2542 -1.1545
10701SOL    HW232917   1.132   0.456   5.476 -1.7125 -1.8268  2.4200
10702SOL     OW32918   5.344   0.218   3.052  0.1140 -0.0189  0.0643
10702SOL    HW132919   5.317   0.138   3.099 -1.2455  0.1014 -0.5006
10702SOL    HW232920   5.268   0.241   2.999  1.5803 -0.0404 -2.0713
10703SOL     OW32921   2.199   3.943   1.980 -0.3811 -0.3002  0.6035
10703SOL    HW132922   2.128   3.901   1.931 -2.3244  1.9326  1.4142
10703SOL    HW232923   2.212   3.888   2.057 -0.0622 -1.6239 -0.3801
10704SOL     OW32924   3.612   0.605   0.567  0.6057  0.1125  0.1132
10704SOL    HW132925   3.647   0.629   0.653  0.2902  0.6988  0.0793
10704SOL    HW232926   3.547   0.671   0.548  1.7624  0.8866 -1.2714
10705SOL     OW32927   6.327   6.970   0.510 -0.2161 -0.4681  0.0425
10705SOL    HW132928   6.282   6.933   0.434 -2.7316  1.4157  0.5681
10705SOL    HW232929   6.337   6.896   0.570 -0.9992 -1.2951 -0.8188
10706SOL     OW32930   1.630   7.828   6.957 -0.4752  0.2481 -1.2670
10706SOL    HW132931   1.556   7.779   6.995  0.4388  0.7946  1.3507
10706SOL    HW232932   1.638   7.794   6.868 -2.8743 -0.9616 -1.0652
10707SOL     OW32933   5.324   2.578   2.926  0.3855 -0.2305  0.3479
10707SOL    HW132934   5.273   2.498   2.910  0.6259 -0.5903  1.2872
10707SOL    HW232935   5.400   2.548   2.975  1.6521  0.2745 -1.2757
10708SOL     OW32936   4.909   3.947   6.342  0.1476 -0.2942  0.4637
10708SOL    HW132937   4.950   3.960   6.428  0.5890 -0.4061  0.2683
10708SOL    HW232938   4.917   3.854   6.325 -2.9787 -0.8767  1.8244
10709SOL     OW32939   5.916   0.840   6.871 -0.1396 -0.7266 -0.8261
10709SOL    HW132940   5.867   0.800   6.799 -1.4754 -0.9376  0.1850
10709SOL    HW232941   5.964   0.767   6.910 -0.8775 -0.9654 -0.3463
10710SOL     OW32942   4.232   4.752   3.970  0.2652  0.4933 -0.1759
10710SOL    HW132943   4.254   4.805   3.893  1.7036 -0.3860 -0.3729
10710SOL    HW232944   4.154   4.703   3.943 -1.3180  2.7586  0.1343
10711SOL     OW32945   4.417   5.759   2.134 -0.2485 -0.5038 -0.4069
10711SOL    HW132946   4.343   5.820   2.139  0.9552  1.0276 -0.9022
10711SOL    HW232947   4.431   5.732   2.225  0.0967  1.0783  0.0367
10712SOL     OW32948   3.855   5.496   5.584  0.4527  0.1213 -0.1261
10712SOL    HW132949   3.931   5.551   5.603 -1.0741  2.6747 -1.1321
10712SOL    HW232950   3.823   5.469   5.670  0.8110  1.4120  0.4293
10713SOL     OW32951   6.111   3.320   6.397 -0.0541  0.2782  0.3757
10713SOL    HW132952   6.180   3.385   6.389 -1.2540  1.5116  0.0051
10713SOL    HW232953   6.052   3.338   6.324  0.5148 -2.3560 -0.8119
10714SOL     OW32954   4.158   6.570   0.960 -0.0830 -0.0766 -0.3921
10714SOL    HW132955   4.088   6.561   1.026 -0.4299  1.0979 -0.5983
10714SOL    HW232956   4.238   6.549   1.008 -0.5628 -1.4303 -0.1503
10715SOL     OW32957   1.714   5.995   3.750  0.1557 -0.3238 -0.1385
10715SOL    HW132958   1.634   6.036   3.783 -0.0795 -0.5551 -0.4187
10715SOL    HW232959   1.784   6.059   3.770  0.3666 -1.3892  2.7731
10716SOL     OW32960   2.141   1.027   2.441  0.1348 -0.3946 -0.6898
10716SOL    HW132961   2.100   1.114   2.438 -0.5363 -0.6498  0.7793
10716SOL    HW232962   2.221   1.040   2.492  0.4022 -0.5094 -1.0715
10717SOL     OW32963   6.790   5.668   1.197  0.1495  1.1324  0.4147
10717SOL    HW132964   6.763   5.733   1.132 -0.7281  3.7461  3.2336
10717SOL    HW232965   6.872   5.704   1.232 -0.4404  0.8289  2.1252
10718SOL     OW32966   0.114   7.400   3.313  0.1688 -0.4980  0.1563
10718SOL    HW132967   0.103   7.437   3.225 -0.4783 -0.6752  0.1626
10718SOL    HW232968   0.025   7.400   3.350  0.3141 -1.2184  0.4923
10719SOL     OW32969   4.610   2.837   6.789 -0.0562 -0.0345 -0.4091
10719SOL    HW132970   4.609   2.745   6.762  1.2208 -0.1743 -0.0220
10719SOL    HW232971   4.517   2.861   6.797 -0.4000 -0.9470 -1.6329
10720SOL     OW32972   7.982   1.728   6.509 -0.3783 -0.3734 -0.2307
10720SOL    HW132973   8.045   1.745   6.579 -1.2567 -0.9250  0.7040
10720SOL    HW232974   7.917   1.798   6.517 -1.1735 -1.1603  0.3365
10721SOL     OW32975   5.096   7.985   0.053  0.3716  0.1585  0.4599
10721SOL    HW132976   5.123   7.893   0.054  0.7244  0.2468 -0.7054
10721SOL    HW232977   5.017   7.986  -0.001  0.4025  0.5624  0.4218
10722SOL     OW32978   3.557   2.039   6.193  0.2730 -0.0544 -0.1601
10722SOL    HW132979   3.518   1.952   6.195  0.6051 -0.1881  0.5748
10722SOL    HW232980   3.643   2.026   6.154  0.4632 -0.1121  0.2776
10723SOL     OW32981   7.238   1.937   6.985 -0.3174 -0.1671 -0.1701
10723SOL    HW132982   7.254   1.863   7.044 -0.3296  0.1408  0.2197
10723SOL    HW232983   7.261   2.015   7.036 -1.9659  0.2169 -0.0008
10724SOL     OW32984   4.901   2.718   0.230  0.3549  0.0893 -0.8947
10724SOL    HW132985   4.945   2.778   0.171 -0.8355  0.9275 -0.9342
10724SOL    HW232986   4.822   2.691   0.183  0.4275 -0.8106 -0.5139
10725SOL     OW32987   7.195   0.979   4.816 -0.3088  0.3648 -0.7830
10725SOL    HW132988   7.243   0.987   4.734  0.6641 -0.2347 -0.2764
10725SOL    HW232989   7.193   1.068   4.851 -0.2833  0.5299 -1.1940
10726SOL     OW32990   7.616   3.495   3.598  0.6151  0.0871 -0.4661
10726SOL    HW132991   7.683   3.454   3.653  1.0728  1.2121 -0.1710
10726SOL    HW232992   7.575   3.561   3.655 -0.8010 -0.6507 -0.6148
10727SOL     OW32993   5.763   4.904   3.685  0.6523  0.3643  0.1211
10727SOL    HW132994   5.683   4.929   3.638 -0.5148 -1.8982  0.8463
10727SOL    HW232995   5.828   4.889   3.616 -0.1747  0.0510 -0.5983
10728SOL     OW32996   6.540   6.985   6.514 -0.1909  0.2466  0.0060
10728SOL    HW132997   6.511   6.914   6.570 -0.6808  0.0835 -0.4436
10728SOL    HW232998   6.475   7.054   6.527  1.5493  1.5279  2.2117
10729SOL     OW32999   4.781   4.586   7.371  0.3824  0.6857  0.3779
10729SOL    HW133000   4.841   4.577   7.298  2.6082 -0.9822  2.3146
10729SOL    HW233001   4.701   4.542   7.343  0.7457  1.1983 -1.4961
10730SOL     OW33002   6.810   2.030   4.326 -0.0365  0.3036 -0.2476
10730SOL    HW133003   6.832   1.988   4.409  1.3728  0.9688 -0.2676
10730SOL    HW233004   6.757   1.966   4.280  0.7370 -0.8194  0.3940
10731SOL     OW33005   7.059   2.601   6.715 -0.6754 -0.2554 -0.3803
10731SOL    HW133006   7.154   2.615   6.711 -1.0384  2.0396 -1.4128
10731SOL    HW233007   7.036   2.572   6.627 -0.9143 -0.9658 -0.0846
10732SOL     OW33008   4.886   1.740   2.876 -0.2796  0.5577  0.1815
10732SOL    HW133009   4.864   1.649   2.855  1.8369  0.3957 -1.4114
10732SOL    HW233010   4.802   1.779   2.901 -1.8787 -0.8283 -2.7837
10733SOL     OW33011   7.384   6.806   2.466  0.0474  0.0299 -0.0053
10733SOL    HW133012   7.389   6.760   2.549 -0.0912 -0.2114 -0.1271
10733SOL    HW233013   7.311   6.867   2.477 -0.4137 -0.4742 -0.1717
10734SOL     OW33014   4.954   6.341   2.970 -0.1262  0.3498 -0.1131
10734SOL    HW133015   4.973   6.326   3.062 -0.8768  3.4925  0.6190
10734SOL    HW233016   4.950   6.437   2.961 -1.5894  0.0867 -3.0813
10735SOL     OW33017   5.807   7.708   1.439  0.1048  0.3660 -0.4020
10735SOL    HW133018   5.849   7.707   1.353  0.1289 -1.5018 -0.3779
10735SOL    HW233019   5.743   7.637   1.435  3.5088 -3.0585  2.7834
10736SOL     OW33020   5.418   4.538   4.573  0.1871  0.0859  0.6418
10736SOL    HW133021   5.504   4.572   4.549 -1.2308  2.9849 -0.4761
10736SOL    HW233022   5.387   4.495   4.493 -0.4172  1.1332  0.3187
10737SOL     OW33023   6.061   6.351   6.818  0.4012 -0.6024 -1.0144
10737SOL    HW133024   5.995   6.365   6.886  1.6183 -0.0019  0.0705
10737SOL    HW233025   6.143   6.345   6.866  1.2033 -0.7892 -2.3937
10738SOL     OW33026   4.230   3.857   7.201  0.3132 -0.0899  0.8388
10738SOL    HW133027   4.244   3.846   7.294 -0.1582 -2.9708  0.6037
10738SOL    HW233028   4.145   3.901   7.194  0.2229 -0.1216  1.7567
10739SOL     OW33029   6.574   4.826   1.354 -0.2889  0.2584 -0.1031
10739SOL    HW133030   6.564   4.756   1.288 -0.2480 -0.7194  0.9132
10739SOL    HW233031   6.487   4.832   1.394  0.3101 -0.8490  1.4165
10740SOL     OW33032   0.658   6.866   2.133 -0.9837 -0.2762 -0.2649
10740SOL    HW133033   0.626   6.802   2.068 -2.6166 -1.8837  2.0375
10740SOL    HW233034   0.698   6.812   2.201 -1.3295  1.2450  1.1516
10741SOL     OW33035   5.691   6.276   5.516 -0.2299 -0.1051 -0.2844
10741SOL    HW133036   5.743   6.260   5.437  0.8595  0.4465  0.3151
10741SOL    HW233037   5.751   6.322   5.575 -1.7815  1.6576 -0.0576
10742SOL     OW33038   7.656   2.373   4.721  0.4409  0.3694 -1.2160
10742SOL    HW133039   7.570   2.371   4.763  0.5125 -2.5439 -1.0988
10742SOL    HW233040   7.707   2.435   4.774 -0.8209  0.1832  0.2476
10743SOL     OW33041   1.882   3.210   2.477  0.2663  0.6368 -0.6125
10743SOL    HW133042   1.904   3.126   2.438 -0.7877  0.6786 -1.3369
10743SOL    HW233043   1.848   3.262   2.404 -1.1948  0.9186  0.2312
10744SOL     OW33044   2.409   6.311   2.530 -0.5881 -0.6305 -0.4619
10744SOL    HW133045   2.452   6.332   2.447  0.3086  1.2827  0.4455
10744SOL    HW233046   2.316   6.328   2.514 -0.4306 -0.3692 -1.1177
10745SOL     OW33047   6.948   2.346   3.577 -0.5815  0.0101 -0.4080
10745SOL    HW133048   6.885   2.412   3.550 -1.8810 -1.3972 -0.8969
10745SOL    HW233049   6.913   2.312   3.660 -0.8458 -1.2600 -1.0296
10746SOL     OW33050   4.378   7.372   6.197 -0.3834  0.3347  0.1024
10746SOL    HW133051   4.299   7.398   6.244 -0.1053  0.4947  0.4818
10746SOL    HW233052   4.445   7.364   6.265 -0.2691 -0.5831 -0.1095
10747SOL     OW33053   0.347   1.693   7.642 -0.2222 -0.3749 -0.2258
10747SOL    HW133054   0.264   1.715   7.601  0.1313  0.1679 -0.6579
10747SOL    HW233055   0.336   1.603   7.672 -0.6856 -0.5781 -0.9987
10748SOL     OW33056   2.071   4.247   4.410 -0.0627  0.0647  0.1969
10748SOL    HW133057   2.011   4.321   4.417 -1.0315 -0.6917  0.0378
10748SOL    HW233058   2.039   4.198   4.334  0.2994 -0.7664  0.5805
10749SOL     OW33059   5.006   4.155   3.230 -0.4539  0.4652  0.4996
10749SOL    HW133060   5.021   4.242   3.266 -0.7438  2.0314 -2.9610
10749SOL    HW233061   4.947   4.169   3.155  0.1451 -2.5787 -0.6421
10750SOL     OW33062   7.758   5.524   2.736  0.1553 -0.5297 -0.1481
10750SOL    HW133063   7.663   5.516   2.723  0.1052 -0.4067  0.1380
10750SOL    HW233064   7.788   5.434   2.750 -0.0491 -0.4781  0.6350
10751SOL     OW33065   5.129   7.070   1.574  0.0530  0.0980  0.1259
10751SOL    HW133066   5.207   7.014   1.581 -1.1870 -1.9105 -1.6197
10751SOL    HW233067   5.115   7.081   1.480 -1.5990  0.7073  0.4236
10752SOL     OW33068   1.647   2.629   3.845 -0.0206 -0.1533  0.3373
10752SOL    HW133069   1.740   2.636   3.864  0.0612  0.6627 -0.3561
10752SOL    HW233070   1.604   2.646   3.930  0.3751  2.4528  0.0636
10753SOL     OW33071   6.018   4.005   2.510  0.5674 -0.1046  0.0452
10753SOL    HW133072   6.002   4.018   2.416  2.4455  1.1233 -0.1260
10753SOL    HW233073   6.078   3.930   2.514 -0.2533 -0.7518  0.3265
10754SOL     OW33074   3.183   3.792   2.928  0.2915 -0.3365 -0.3514
10754SOL    HW133075   3.257   3.834   2.972 -1.9021  2.5878  0.7575
10754SOL    HW233076   3.191   3.819   2.837 -0.0258  0.9397 -0.0112
10755SOL     OW33077   4.573   1.762   4.487  0.8488  0.5365  0.1430
10755SOL    HW133078   4.604   1.841   4.531  3.2868  0.3255 -1.1515
10755SOL    HW233079   4.641   1.697   4.502 -0.1100 -0.6834 -0.6578
10756SOL     OW33080   1.507   5.413   4.061 -0.0905 -0.7490 -0.3364
10756SOL    HW133081   1.412   5.419   4.053  0.0335 -0.6224 -1.8169
10756SOL    HW233082   1.525   5.320   4.069 -0.1865 -0.9683 -2.3604
10757SOL     OW33083   0.836   7.231   6.830  1.0114 -0.5191  0.2470
10757SOL    HW133084   0.819   7.167   6.760 -1.4374 -0.4543  0.7402
10757SOL    HW233085   0.853   7.313   6.783 -2.4171 -0.0530 -0.3048
10758SOL     OW33086   6.990   2.437   0.416 -0.4000  0.1542  0.2462
10758SOL    HW133087   7.078   2.447   0.379 -0.7070 -1.1814 -0.9148
10758SOL    HW233088   6.956   2.526   0.423  1.8266  0.8759  2.7340
10759SOL     OW33089   2.054   3.431   4.755 -0.0691  0.3785 -0.9004
10759SOL    HW133090   1.997   3.358   4.779 -0.2528  0.5379 -0.8445
10759SOL    HW233091   2.088   3.408   4.669 -0.9429  0.7104 -1.3393
10760SOL     OW33092   5.432   3.042   3.000 -0.4813 -0.0142  0.5330
10760SOL    HW133093   5.441   2.998   3.085  0.5584  1.0885  1.0161
10760SOL    HW233094   5.343   3.077   3.000  0.6560  3.0955  2.7420
10761SOL     OW33095   5.802   0.656   6.649 -0.6075 -0.3199  0.3693
10761SOL    HW133096   5.718   0.700   6.637 -1.3891 -1.1090  2.5068
10761SOL    HW233097   5.819   0.614   6.565 -1.7951  0.7824 -0.4494
10762SOL     OW33098   5.294   5.639   6.515 -0.1538  0.2385 -0.3199
10762SOL    HW133099   5.212   5.687   6.517 -1.3214 -1.6450 -2.1358
10762SOL    HW233100   5.361   5.707   6.522 -1.8256  1.8451  0.4759
10763SOL     OW33101   4.464   4.365   7.543  0.6208  0.1725  0.5428
10763SOL    HW133102   4.492   4.431   7.480  0.4247 -0.3441 -0.0922
10763SOL    HW233103   4.532   4.365   7.610  0.0503  1.8165  1.1419
10764SOL     OW33104   7.645   1.198   4.088  0.4505 -0.5309  0.1664
10764SOL    HW133105   7.603   1.256   4.152 -1.5092 -0.4078 -1.2036
10764SOL    HW233106   7.723   1.246   4.061 -0.1657  0.6368  0.4239
10765SOL     OW33107   6.259   2.169   6.003  0.2306 -0.1062 -0.0479
10765SOL    HW133108   6.192   2.103   5.981  1.2149 -1.3032  0.4622
10765SOL    HW233109   6.209   2.246   6.029 -0.9506 -0.7152 -0.4522
10766SOL     OW33110   4.676   6.665   7.458  0.2598 -0.3954 -0.1320
10766SOL    HW133111   4.645   6.620   7.537 -0.8057  0.0478 -0.2930
10766SOL    HW233112   4.683   6.757   7.483 -0.3532 -0.2089 -0.6315
10767SOL     OW33113   5.652   7.875   0.155  0.0301 -0.1376  0.4354
10767SOL    HW133114   5.558   7.878   0.136  0.2966  1.3014 -0.6417
10767SOL    HW233115   5.693   7.850   0.072  0.6307 -0.5664  0.8546
10768SOL     OW33116   3.762   5.620   6.237  0.5205  0.1353 -0.0344
10768SOL    HW133117   3.838   5.678   6.241  0.5329  0.2011 -1.0126
10768SOL    HW233118   3.799   5.532   6.250  0.8710  0.0983 -1.2088
10769SOL     OW33119   6.175   5.510   6.605  0.2485 -0.3716  0.1905
10769SOL    HW133120   6.260   5.501   6.562  0.5225 -1.9062  1.0464
10769SOL    HW233121   6.173   5.440   6.669 -1.4346  0.0256  0.5803
10770SOL     OW33122   4.086   1.556   5.233  0.1686  0.4611 -0.4529
10770SOL    HW133123   4.024   1.555   5.306  1.8495 -1.0647  1.0002
10770SOL    HW233124   4.084   1.646   5.202 -1.7980  0.7493  0.3950
10771SOL     OW33125   4.230   3.671   1.175  0.4579 -0.0301 -0.5137
10771SOL    HW133126   4.270   3.705   1.095  1.1103 -0.8717 -0.5514
10771SOL    HW233127   4.289   3.701   1.245  0.4032 -0.1073 -0.4356
10772SOL     OW33128   0.020   3.699   3.208  0.0035 -0.8018  0.5639
10772SOL    HW133129   0.059   3.658   3.131  1.0751  1.3571 -0.0982
10772SOL    HW233130  -0.072   3.713   3.184  0.0870 -1.0927  0.0763
10773SOL     OW33131   0.529   4.396   0.116  0.2012 -0.2177 -0.4370
10773SOL    HW133132   0.504   4.395   0.024  0.4116  0.3065 -0.4972
10773SOL    HW233133   0.474   4.328   0.156  0.3061 -0.6265 -0.9957
10774SOL     OW33134   7.881   2.380   0.681  0.2248 -0.1235  0.2853
10774SOL    HW133135   7.907   2.294   0.713  1.8331 -0.6312 -2.1911
10774SOL    HW233136   7.963   2.429   0.678 -0.3715  0.8513 -0.2000
10775SOL     OW33137   3.962   4.686   2.932 -0.8706  0.1920  0.7245
10775SOL    HW133138   3.920   4.616   2.882  0.6747  0.0528 -0.4227
10775SOL    HW233139   3.944   4.765   2.881  0.9846  0.0025 -0.2519
10776SOL     OW33140   3.834   0.238   7.680 -0.0418 -0.0955  0.3752
10776SOL    HW133141   3.905   0.220   7.742  1.7319  2.6742 -0.7113
10776SOL    HW233142   3.791   0.153   7.667  0.8870 -1.1753  3.6701
10777SOL     OW33143   7.409   0.891   2.551 -0.1035  0.1610 -0.5291
10777SOL    HW133144   7.340   0.914   2.614 -1.5491  0.8034 -2.3057
10777SOL    HW233145   7.367   0.899   2.466  2.4662  1.4623 -1.7156
10778SOL     OW33146   3.605   2.009   7.270  0.4285  0.6072 -0.3129
10778SOL    HW133147   3.637   2.006   7.360  2.5747  1.1517 -1.0279
10778SOL    HW233148   3.610   2.101   7.246  0.9586  0.3113 -1.3606
10779SOL     OW33149   5.355   4.426   1.316  0.1131  0.1397  0.6147
10779SOL    HW133150   5.437   4.388   1.285 -0.0404  0.2721  0.0457
10779SOL    HW233151   5.325   4.365   1.383 -0.2362 -0.8518 -0.4242
10780SOL     OW33152   2.950   7.263   2.656 -0.3804  0.0179 -0.3996
10780SOL    HW133153   2.884   7.296   2.717  1.6539  0.7931  1.4647
10780SOL    HW233154   2.997   7.341   2.627  1.4729 -0.7568  0.4222
10781SOL     OW33155   7.759   5.336   2.470  0.0515 -0.1762  0.7022
10781SOL    HW133156   7.671   5.342   2.506 -0.2050  1.5636 -0.1828
10781SOL    HW233157   7.780   5.424   2.441  1.1697 -1.0488 -1.2564
10782SOL     OW33158   3.626   0.531   3.751  1.0565 -0.0238  0.6472
10782SOL    HW133159   3.584   0.604   3.797 -0.9079 -1.6569  1.4822
10782SOL    HW233160   3.578   0.524   3.669  1.0297 -0.5989  0.7140
10783SOL     OW33161   5.637   5.264   4.560 -0.3632 -0.0812  0.4637
10783SOL    HW133162   5.730   5.270   4.538 -0.4763  2.3261  0.4852
10783SOL    HW233163   5.603   5.198   4.500  1.3286 -0.9678  0.4191
10784SOL     OW33164   7.807   2.553   5.932  0.1487 -0.3229 -0.0418
10784SOL    HW133165   7.834   2.643   5.952 -0.8106  0.0945 -0.6058
10784SOL    HW233166   7.890   2.504   5.928  0.5928  0.2481  1.5745
10785SOL     OW33167   1.517   4.174   3.133  0.5508  0.2242 -0.2078
10785SOL    HW133168   1.527   4.116   3.057  0.3434  0.5356 -0.4761
10785SOL    HW233169   1.546   4.260   3.101 -0.0506  0.4693 -0.0911
10786SOL     OW33170   2.262   0.573   6.779 -0.4328  0.0962  0.4576
10786SOL    HW133171   2.303   0.585   6.864  0.3814  0.6051 -0.0053
10786SOL    HW233172   2.282   0.653   6.730 -1.8388  0.2863  0.1677
10787SOL     OW33173   1.373   4.356   4.710  0.1901 -0.7989  0.4062
10787SOL    HW133174   1.295   4.361   4.655 -1.1184 -1.1861  2.1695
10787SOL    HW233175   1.446   4.348   4.648 -1.4500 -3.9709 -1.2512
10788SOL     OW33176   0.424   6.757   0.010 -0.2864 -0.3275 -0.3503
10788SOL    HW133177   0.410   6.830   0.070  0.1504 -1.2117  0.8240
10788SOL    HW233178   0.368   6.778  -0.066  0.5376  1.6705 -0.4334
10789SOL     OW33179   5.568   4.447   5.123 -0.1212 -0.0387  0.4789
10789SOL    HW133180   5.564   4.369   5.067 -0.0241  1.3567 -1.5349
10789SOL    HW233181   5.483   4.489   5.112  1.0166  1.9340 -1.1797
10790SOL     OW33182   3.993   3.590   6.590  0.5353 -0.2292  0.5887
10790SOL    HW133183   3.950   3.625   6.512 -0.2603 -0.4853  0.9129
10790SOL    HW233184   3.923   3.580   6.654  1.2421  0.3140  1.4614
10791SOL     OW33185   4.179   4.025   6.241  0.7679 -0.1765  0.2904
10791SOL    HW133186   4.138   3.953   6.194  1.5481 -1.6782  1.8486
10791SOL    HW233187   4.251   3.984   6.289  0.3888  1.3983  2.2555
10792SOL     OW33188   7.775   3.088   5.842 -0.7150 -0.3307  0.0289
10792SOL    HW133189   7.737   3.031   5.908  0.2354 -0.3265  0.6044
10792SOL    HW233190   7.859   3.047   5.820 -0.2751  0.5278  0.0492
10793SOL     OW33191   4.010   6.949   3.652  0.2387 -0.0939 -0.0031
10793SOL    HW133192   4.081   6.910   3.703 -1.2694 -1.2824  1.2488
10793SOL    HW233193   3.992   7.033   3.694 -1.4106 -1.3361  1.8913
10794SOL     OW33194   0.411   2.687   3.647 -0.0218  0.1932  0.4981
10794SOL    HW133195   0.470   2.627   3.601 -0.2410  0.1448  0.2804
10794SOL    HW233196   0.420   2.663   3.740  0.8472  0.6681  0.5409
10795SOL     OW33197   2.631   0.357   1.677 -0.0828 -0.6541  0.0003
10795SOL    HW133198   2.691   0.302   1.626 -0.2969 -0.5164 -0.4082
10795SOL    HW233199   2.557   0.300   1.697 -0.1433 -0.6173 -0.1178
10796SOL     OW33200   0.874   0.690   6.929  0.1334  0.2173  0.0986
10796SOL    HW133201   0.906   0.661   7.015  0.5017 -0.3917 -0.2418
10796SOL    HW233202   0.934   0.650   6.866  1.4097  2.6930 -0.3402
10797SOL     OW33203   7.628   7.305   7.401  0.1288 -0.1393  0.4242
10797SOL    HW133204   7.620   7.214   7.428  2.1417 -0.4307  0.0814
10797SOL    HW233205   7.650   7.302   7.308  2.1163  0.6067  0.8322
10798SOL     OW33206   7.526   3.191   5.984 -0.2139  0.3384 -0.4024
10798SOL    HW133207   7.497   3.187   5.892 -1.6151 -0.4775  0.0596
10798SOL    HW233208   7.580   3.113   5.995  0.1711  0.5750 -0.5974
10799SOL     OW33209   4.906   3.818   0.715  0.3382 -0.2006 -0.5442
10799SOL    HW133210   4.992   3.786   0.686  0.1205 -1.1228 -0.2089
10799SOL    HW233211   4.844   3.751   0.685  0.0362 -0.8426  1.4129
10800SOL     OW33212   6.381   7.056   7.699  0.1482 -0.2031  0.6605
10800SOL    HW133213   6.468   7.076   7.733  0.9332 -0.6471 -1.0101
10800SOL    HW233214   6.332   7.139   7.707  0.7524  0.0807  1.4828
10801SOL     OW33215   4.850   6.708   4.778 -0.8068  0.1769 -0.2301
10801SOL    HW133216   4.877   6.617   4.789  1.0998  0.5769 -1.5046
10801SOL    HW233217   4.803   6.709   4.695 -1.2237  0.2936  0.0017
10802SOL     OW33218   1.748   6.589   5.194 -0.7351 -0.3091 -0.1988
10802SOL    HW133219   1.734   6.521   5.128  1.5376 -2.3191  1.3052
10802SOL    HW233220   1.719   6.670   5.151 -4.1882 -2.2607 -1.7881
10803SOL     OW33221   4.969   3.500   2.084  0.0918  0.3716 -0.1255
10803SOL    HW133222   4.925   3.441   2.145 -0.0538  0.7978  0.1785
10803SOL    HW233223   4.901   3.526   2.022  0.6279 -1.4066 -1.4893
10804SOL     OW33224   0.283   7.500   5.808 -0.4641  0.0777 -0.5493
10804SOL    HW133225   0.364   7.509   5.858  1.1653 -1.2434 -2.8933
10804SOL    HW233226   0.258   7.590   5.786  0.1307  0.5069  0.4818
10805SOL     OW33227   1.272   5.733   1.768 -0.7916  0.6402 -0.0238
10805SOL    HW133228   1.333   5.665   1.797 -0.4504  0.4890 -1.0557
10805SOL    HW233229   1.268   5.794   1.841 -1.0525 -0.4509  0.8932
10806SOL     OW33230   1.055   2.296   5.422 -0.7075 -0.7579 -0.6617
10806SOL    HW133231   1.127   2.270   5.365 -0.3519 -0.0027 -0.5676
10806SOL    HW233232   1.027   2.381   5.387 -0.5653 -0.3458  0.2117
10807SOL     OW33233   5.086   5.147   6.896  0.2232 -0.6404  0.3417
10807SOL    HW133234   5.160   5.099   6.860  0.9062  0.1885  0.6205
10807SOL    HW233235   5.020   5.147   6.827  0.9417 -0.3722 -0.3496
10808SOL     OW33236   3.450   6.251   0.648  0.0666 -0.9302  0.4228
10808SOL    HW133237   3.423   6.331   0.602 -1.0885  0.0610  2.7649
10808SOL    HW233238   3.371   6.197   0.650  0.0507 -0.8796  1.3929
10809SOL     OW33239   2.026   7.072   0.974  0.5991  0.6275 -0.3726
10809SOL    HW133240   1.988   6.985   0.982  0.5577  0.6904  0.0894
10809SOL    HW233241   2.027   7.088   0.879  1.7891 -0.3959 -0.5428
10810SOL     OW33242   4.936   3.288   4.866 -1.1489  0.2176  0.1373
10810SOL    HW133243   4.949   3.321   4.777  0.7411  0.8859  0.6446
10810SOL    HW233244   4.879   3.354   4.907  0.8248  1.7813  0.4656
10811SOL     OW33245   2.808   2.961   1.386  0.0962  0.1252  0.6277
10811SOL    HW133246   2.791   2.898   1.456 -0.2872 -0.3306  0.1330
10811SOL    HW233247   2.863   2.912   1.324  0.7442  0.6449  0.7861
10812SOL     OW33248   3.663   4.752   7.210 -0.0482  0.1999 -0.1616
10812SOL    HW133249   3.696   4.663   7.213 -1.5898 -0.3937 -0.4238
10812SOL    HW233250   3.574   4.746   7.242 -0.1923  1.6382 -0.2615
10813SOL     OW33251   1.483   3.152   0.823 -0.1656 -0.1475  0.1718
10813SOL    HW133252   1.389   3.137   0.820  0.0897 -2.3312  1.9768
10813SOL    HW233253   1.513   3.141   0.733 -1.6605  0.8345 -0.4611
10814SOL     OW33254   2.275   3.071   5.350 -0.0352  0.0127 -0.0340
10814SOL    HW133255   2.336   2.998   5.347 -1.1416 -1.0920  2.7765
10814SOL    HW233256   2.313   3.133   5.412 -0.2687  0.7671 -0.6241
10815SOL     OW33257   7.656   4.676   7.576 -0.1706  0.4774  0.3319
10815SOL    HW133258   7.626   4.598   7.621  1.0328 -0.1195  0.1357
10815SOL    HW233259   7.614   4.672   7.490 -0.6915  0.4367  0.5887
10816SOL     OW33260   2.207   0.124   5.679  0.0914 -0.7818 -0.2478
10816SOL    HW133261   2.267   0.194   5.650  1.0957 -0.8734  1.5374
10816SOL    HW233262   2.178   0.083   5.598  1.1307  0.3655 -1.2327
10817SOL     OW33263   2.508   1.869   4.378  0.0842 -0.0865  0.1183
10817SOL    HW133264   2.554   1.924   4.442  1.6486 -0.5874 -0.5442
10817SOL    HW233265   2.538   1.902   4.293 -0.6336 -0.5598 -0.3172
10818SOL     OW33266   7.169   5.396   6.692  0.5145  0.6137  0.0887
10818SOL    HW133267   7.172   5.480   6.646 -0.2771 -0.4075 -1.8807
10818SOL    HW233268   7.234   5.342   6.647 -0.7054 -0.5934 -0.2479
10819SOL     OW33269   5.824   2.090   7.920  0.2023 -0.2068  0.0575
10819SOL    HW133270   5.874   2.102   7.839  0.0367 -1.8805 -0.3190
10819SOL    HW233271   5.767   2.016   7.902 -2.1359  1.4120  0.6347
10820SOL     OW33272   0.873   4.503   6.475  0.0171 -0.2759 -0.3775
10820SOL    HW133273   0.919   4.582   6.447 -1.5896  1.2944  1.2876
10820SOL    HW233274   0.858   4.453   6.394  1.3825  0.9232 -1.3827
10821SOL     OW33275   7.947   0.281   6.807 -0.5093  0.0179  0.1972
10821SOL    HW133276   8.016   0.273   6.742 -0.6440 -3.2652  0.3656
10821SOL    HW233277   7.970   0.360   6.857  2.9341 -0.7785  0.0193
10822SOL     OW33278   0.648   1.539   5.925  0.5937  0.7114 -0.1522
10822SOL    HW133279   0.595   1.470   5.886  0.4044  0.5609  0.3598
10822SOL    HW233280   0.585   1.608   5.945  0.3903  0.0667  1.5197
10823SOL     OW33281   1.849   0.603   7.156  0.4170  0.3529  0.1942
10823SOL    HW133282   1.807   0.519   7.175 -2.2995  1.7128  0.2927
10823SOL    HW233283   1.939   0.591   7.188 -0.2877 -2.0524  1.4537
10824SOL     OW33284   4.984   7.908   5.146 -0.6714  0.0044  0.0668
10824SOL    HW133285   4.964   7.873   5.233 -1.5560  0.8331  0.1989
10824SOL    HW233286   5.056   7.853   5.114  0.2904  0.2985  1.6964
10825SOL     OW33287   2.160   3.704   4.995  0.5285  0.5210  0.0372
10825SOL    HW133288   2.117   3.730   5.076  0.2929 -1.1332  0.4654
10825SOL    HW233289   2.156   3.608   4.995  1.0102  0.4785 -1.6641
10826SOL     OW33290   3.181   4.083   6.545 -0.0119 -0.0406  0.6269
10826SOL    HW133291   3.230   4.071   6.627 -0.3214 -0.0580  0.8080
10826SOL    HW233292   3.249   4.093   6.478  0.2465  1.1280  1.0580
10827SOL     OW33293   6.513   2.568   5.686  0.5008  0.3105  0.2668
10827SOL    HW133294   6.441   2.522   5.730 -0.1309  1.6029  0.5988
10827SOL    HW233295   6.508   2.658   5.719  0.2352  1.2253 -2.1818
10828SOL     OW33296   1.147   3.002   0.111  0.1448  0.0237 -0.0179
10828SOL    HW133297   1.074   3.037   0.162 -1.7104 -0.8902 -1.9602
10828SOL    HW233298   1.140   2.908   0.122 -0.7617 -0.2322 -2.5358
10829SOL     OW33299   6.477   4.616   4.568 -0.2290 -0.0964 -0.0771
10829SOL    HW133300   6.388   4.628   4.535 -0.1640 -2.1255 -1.0931
10829SOL    HW233301   6.465   4.587   4.659 -0.5830  0.1947 -0.0309
10830SOL     OW33302   7.074   0.346   2.670  0.0014  0.1484 -0.1693
10830SOL    HW133303   7.068   0.440   2.683 -0.1980  0.0459  0.4789
10830SOL    HW233304   7.168   0.329   2.665  0.0147  0.5364 -1.4614
10831SOL     OW33305   3.876   7.030   5.641 -0.1008  0.0682  0.0018
10831SOL    HW133306   3.783   7.012   5.656  0.1600 -1.8360 -0.5781
10831SOL    HW233307   3.922   6.962   5.689  1.0236  1.2996  0.7033
10832SOL     OW33308   6.452   2.312   4.275  0.5639  0.1556  0.4084
10832SOL    HW133309   6.439   2.317   4.180 -0.8927  0.1052  0.5985
10832SOL    HW233310   6.410   2.391   4.309 -0.1841 -0.5545  1.1431
10833SOL     OW33311   3.729   3.431   6.782  0.3782 -0.5597  0.3438
10833SOL    HW133312   3.737   3.455   6.875  0.0059  1.5199 -0.1246
10833SOL    HW233313   3.686   3.507   6.742 -0.3977 -1.8686 -1.3544
10834SOL     OW33314   5.435   5.254   3.595 -0.3972 -0.5855 -0.2429
10834SOL    HW133315   5.408   5.340   3.625  0.5792  0.1379 -1.3821
10834SOL    HW233316   5.374   5.233   3.523 -0.1851 -0.5332 -0.4385
10835SOL     OW33317   7.746   7.784   6.458 -0.1508  0.2772 -0.2862
10835SOL    HW133318   7.680   7.715   6.448  0.4986 -0.1501 -1.6613
10835SOL    HW233319   7.701   7.851   6.510 -2.4924  1.0452 -3.1495
10836SOL     OW33320   3.639   5.240   7.005 -0.0326  0.5968 -0.1258
10836SOL    HW133321   3.596   5.163   7.044  0.5070 -0.3173 -1.3094
10836SOL    HW233322   3.731   5.214   6.995 -0.5527 -0.0706 -4.0887
10837SOL     OW33323   4.651   7.273   5.029  0.4029  0.6285  0.1605
10837SOL    HW133324   4.698   7.345   5.073  0.4745  1.0014 -0.5159
10837SOL    HW233325   4.566   7.311   5.007 -0.6225 -0.3501  2.2726
10838SOL     OW33326   4.542   7.317   2.303  0.4323 -0.2722  0.7454
10838SOL    HW133327   4.465   7.339   2.250  0.3123 -0.0332  1.0171
10838SOL    HW233328   4.591   7.255   2.250  0.6769  0.5104  0.0473
10839SOL     OW33329   2.758   7.994   4.412  0.4349 -0.4739  0.1203
10839SOL    HW133330   2.665   8.015   4.415  0.5164  0.2283 -1.4414
10839SOL    HW233331   2.761   7.898   4.404 -0.2922 -0.3206 -2.8164
10840SOL     OW33332   5.340   7.658   2.235 -0.2056 -0.5389  0.2662
10840SOL    HW133333   5.321   7.695   2.149 -2.4703 -0.2223  0.8778
10840SOL    HW233334   5.435   7.667   2.244 -0.0419  0.1724 -1.8455
10841SOL     OW33335   6.302   4.478   7.038  0.3915  0.6494  0.1116
10841SOL    HW133336   6.346   4.462   7.122  2.0750  0.4018 -0.8083
10841SOL    HW233337   6.372   4.502   6.978 -0.6448 -0.4698 -1.5717
10842SOL     OW33338   7.768   4.771   7.108  0.7573  0.0686 -0.6322
10842SOL    HW133339   7.846   4.726   7.075  1.8068  0.1316  1.6073
10842SOL    HW233340   7.803   4.838   7.166 -0.9408  1.0003 -0.6609
10843SOL     OW33341   1.479   2.561   7.081  0.5841  0.5098  0.4182
10843SOL    HW133342   1.405   2.616   7.058 -0.0296 -0.4261  0.1092
10843SOL    HW233343   1.477   2.555   7.177 -2.0372 -2.5653  0.2674
10844SOL     OW33344   6.882   7.446   1.398  0.2230 -0.2327  0.4387
10844SOL    HW133345   6.826   7.369   1.388  0.1894 -0.0955 -0.4657
10844SOL    HW233346   6.971   7.411   1.406  0.2947 -0.3249 -0.7689
10845SOL     OW33347   0.975   4.755   5.946  0.0295  0.0913  0.3592
10845SOL    HW133348   1.013   4.795   6.024  0.6576 -0.2181  0.2165
10845SOL    HW233349   0.913   4.691   5.980 -1.1433  1.3166  0.5883
10846SOL     OW33350   3.386   4.150   6.337  0.7774 -0.2812  0.4487
10846SOL    HW133351   3.394   4.231   6.286  0.3778 -0.2167  0.4867
10846SOL    HW233352   3.446   4.161   6.410  1.1470 -0.2555  0.1391
10847SOL     OW33353   6.559   7.078   0.393  0.3914 -0.0915 -0.0293
10847SOL    HW133354   6.550   7.087   0.298 -0.7229  0.4635  0.1212
10847SOL    HW233355   6.482   7.027   0.419 -0.2980  1.3436  0.7976
10848SOL     OW33356   4.563   5.276   4.845 -0.0871 -0.1666 -0.3717
10848SOL    HW133357   4.560   5.231   4.761 -0.2510 -0.9777  0.0654
10848SOL    HW233358   4.472   5.302   4.861 -0.1467 -0.4877 -0.1896
10849SOL     OW33359   2.468   3.189   2.896  0.1356 -0.2297  0.4097
10849SOL    HW133360   2.413   3.266   2.913  1.6251  1.1176 -0.6961
10849SOL    HW233361   2.422   3.142   2.826  0.8311  1.4148 -1.2094
10850SOL     OW33362   7.505   5.923   6.074 -0.5780 -0.2318 -0.1748
10850SOL    HW133363   7.455   5.985   6.021 -2.0746 -1.2299  0.0205
10850SOL    HW233364   7.591   5.919   6.032 -1.0223  0.6511 -1.2064
10851SOL     OW33365   0.375   7.809   2.772 -0.0217 -0.2320  0.4827
10851SOL    HW133366   0.429   7.732   2.787 -0.1764 -0.4386 -0.0369
10851SOL    HW233367   0.400   7.869   2.842  0.0121 -0.7976  0.9565
10852SOL     OW33368   2.918   7.085   2.254  0.4991 -0.5387  1.0514
10852SOL    HW133369   2.968   7.157   2.216 -0.2659 -0.2123  0.6631
10852SOL    HW233370   2.921   7.016   2.188 -1.5434  0.3357  0.0337
10853SOL     OW33371   5.323   6.250   3.879  0.0471  0.3423  0.3500
10853SOL    HW133372   5.338   6.339   3.846 -0.8728  0.4090  0.1231
10853SOL    HW233373   5.284   6.263   3.966 -0.7567  0.1572  0.0149
10854SOL     OW33374   6.611   4.042   1.604 -0.2528  0.5003 -0.6409
10854SOL    HW133375   6.643   3.976   1.666  1.2515 -0.1199 -2.0316
10854SOL    HW233376   6.652   4.123   1.632 -0.3233  0.4067 -0.2655
10855SOL     OW33377   0.007   5.268   7.718 -0.0103  0.7080  0.7714
10855SOL    HW133378  -0.006   5.180   7.752  1.7957  0.9151  2.0425
10855SOL    HW233379   0.099   5.287   7.735  0.3876  1.7208 -2.1492
10856SOL     OW33380   7.753   1.177   1.385  0.4704 -0.0093  0.9863
10856SOL    HW133381   7.696   1.254   1.377  0.9154  0.0271 -2.5013
10856SOL    HW233382   7.692   1.105   1.404 -0.7675  0.1661 -1.9491
10857SOL     OW33383   3.627   4.047   4.800  0.3969 -0.0319  0.1057
10857SOL    HW133384   3.559   4.084   4.855 -1.2281 -0.9671 -1.2179
10857SOL    HW233385   3.626   3.953   4.820 -1.0611 -0.5835 -2.3464
10858SOL     OW33386   7.466   0.203   0.922 -0.4895  0.2660  0.3511
10858SOL    HW133387   7.553   0.179   0.952 -0.6555 -0.2861  0.4009
10858SOL    HW233388   7.472   0.200   0.826 -0.4089  0.3855  0.3531
10859SOL     OW33389   2.485   6.954   7.594 -0.1345  0.4245 -0.1849
10859SOL    HW133390   2.444   7.019   7.536  1.5970  0.8069 -1.0279
10859SOL    HW233391   2.487   6.997   7.680 -1.7984  0.2546 -0.0450
10860SOL     OW33392   0.822   1.907   5.077  0.6374  0.0066  0.1269
10860SOL    HW133393   0.900   1.864   5.043 -0.0667  0.6897 -2.4354
10860SOL    HW233394   0.825   1.995   5.041 -2.3737 -0.5777 -1.8116
10861SOL     OW33395   0.006   6.272   2.198 -0.0450  0.9585  0.2811
10861SOL    HW133396  -0.027   6.191   2.158  1.0808  1.0688 -0.8981
10861SOL    HW233397  -0.026   6.342   2.141 -0.9191  1.3551  1.2370
10862SOL     OW33398   7.477   0.610   2.441 -0.6168  0.5205 -0.7668
10862SOL    HW133399   7.479   0.703   2.416 -4.6759  1.2355  1.2687
10862SOL    HW233400   7.403   0.573   2.392 -1.5977 -0.6559  1.5351
10863SOL     OW33401   3.889   2.602   0.940 -0.0376  0.3945 -0.2743
10863SOL    HW133402   3.830   2.533   0.909 -3.2597  2.0411  1.9509
10863SOL    HW233403   3.918   2.571   1.026 -0.6744  1.3343  0.2805
10864SOL     OW33404   3.187   3.754   6.997 -0.2608  0.2561  0.2486
10864SOL    HW133405   3.131   3.758   7.074 -0.5132  0.1148  0.0690
10864SOL    HW233406   3.273   3.731   7.031 -0.2105  0.9072  0.5769
10865SOL     OW33407   3.687   4.348   2.639  0.0076 -0.6426 -0.6933
10865SOL    HW133408   3.671   4.254   2.641 -1.0016 -0.4847 -0.8663
10865SOL    HW233409   3.600   4.388   2.651  0.8214  0.2986  2.5563
10866SOL     OW33410   2.594   4.465   0.517  0.5088 -0.2525 -0.5013
10866SOL    HW133411   2.578   4.529   0.587 -1.7089  0.7680 -1.8837
10866SOL    HW233412   2.582   4.515   0.436 -3.5875 -2.8579 -1.6343
10867SOL     OW33413   7.457   7.284   2.729 -0.0144  0.3258 -0.1219
10867SOL    HW133414   7.504   7.315   2.806 -0.7914  1.9525 -0.2751
10867SOL    HW233415   7.376   7.336   2.727 -0.4524 -0.3576 -1.4921
10868SOL     OW33416   5.051   0.154   6.490  0.4834 -0.4524 -0.3024
10868SOL    HW133417   4.957   0.141   6.478  0.4266 -0.7295  0.4049
10868SOL    HW233418   5.089   0.066   6.480  0.4867 -0.6072  1.0162
10869SOL     OW33419   4.641   6.416   1.077 -0.0441 -0.3692 -0.1504
10869SOL    HW133420   4.691   6.386   1.001  0.7138 -0.7431  0.4877
10869SOL    HW233421   4.636   6.339   1.133  1.4897  0.5300  1.2752
10870SOL     OW33422   2.354   4.233   0.488 -0.0568 -0.3189  0.2419
10870SOL    HW133423   2.285   4.299   0.494  0.6897  0.4186  0.7116
10870SOL    HW233424   2.389   4.227   0.577  3.9124  2.9745 -0.9990
10871SOL     OW33425   2.794   2.541   0.755 -0.5523 -0.0954 -0.1677
10871SOL    HW133426   2.791   2.622   0.805 -1.3153  0.2958 -0.8310
10871SOL    HW233427   2.702   2.514   0.749 -0.5519  0.2472 -1.9643
10872SOL     OW33428   7.287   7.635   6.846 -0.4590 -0.1652  0.4001
10872SOL    HW133429   7.331   7.711   6.884  1.0611 -0.1945 -1.2399
10872SOL    HW233430   7.199   7.637   6.884  0.0405  1.5446  1.5277
10873SOL     OW33431   7.518   3.791   7.801  0.4276  0.1329 -0.0531
10873SOL    HW133432   7.555   3.744   7.875 -0.9586 -1.1737 -0.1796
10873SOL    HW233433   7.429   3.758   7.793 -0.0795  1.6882 -1.0859
10874SOL     OW33434   3.957   1.750   4.934  0.5644  0.5308 -0.1923
10874SOL    HW133435   4.022   1.798   4.883 -0.1600  1.3958 -0.3128
10874SOL    HW233436   3.915   1.816   4.990  0.6700 -0.2347  0.8165
10875SOL     OW33437   4.281   3.286   7.182 -0.3669 -0.0152  0.2706
10875SOL    HW133438   4.313   3.250   7.100 -0.0389  0.1413  0.3313
10875SOL    HW233439   4.258   3.209   7.234  2.0911 -0.2198  1.1267
10876SOL     OW33440   2.200   1.408   5.279 -0.0447 -0.7074  0.1186
10876SOL    HW133441   2.255   1.474   5.236 -1.3260  0.6074  0.4633
10876SOL    HW233442   2.179   1.346   5.209 -0.7615  0.5326 -0.7979
10877SOL     OW33443   7.312   5.662   5.185 -0.0836 -0.1916 -0.1329
10877SOL    HW133444   7.238   5.632   5.238 -0.0963 -0.0793 -0.0857
10877SOL    HW233445   7.313   5.757   5.197  0.4103 -0.2517  0.3201
10878SOL     OW33446   0.858   2.711   5.486 -0.0254 -0.0137  0.6592
10878SOL    HW133447   0.819   2.643   5.541  1.2314 -0.7538  0.6291
10878SOL    HW233448   0.782   2.757   5.449 -0.8803 -1.4652  0.5695
10879SOL     OW33449   0.716   6.922   6.494  0.1224  0.0926  0.3687
10879SOL    HW133450   0.810   6.905   6.498  0.0102 -1.1756 -1.6028
10879SOL    HW233451   0.676   6.843   6.530 -0.2230  0.1331  0.0708
10880SOL     OW33452   2.191   7.222   3.348  0.2583  0.1606 -0.5451
10880SOL    HW133453   2.146   7.153   3.299 -0.3072 -0.3426  0.6386
10880SOL    HW233454   2.174   7.302   3.299  0.2272 -0.4295 -1.4943
10881SOL     OW33455   3.023   5.771   2.622  0.3397 -0.1834  0.6659
10881SOL    HW133456   3.036   5.859   2.587  2.5159 -0.2647  1.1864
10881SOL    HW233457   3.054   5.713   2.552 -0.6646 -0.5307  0.5025
10882SOL     OW33458   1.431   7.391   3.180  0.2602 -0.6516  0.0131
10882SOL    HW133459   1.392   7.375   3.094 -0.8551  2.2939 -0.0918
10882SOL    HW233460   1.374   7.344   3.241 -0.0865 -1.1486 -0.6817
10883SOL     OW33461   4.044   2.123   3.215  0.0237  0.0345 -0.5644
10883SOL    HW133462   4.082   2.042   3.248 -0.7661  0.2940  1.0300
10883SOL    HW233463   3.971   2.096   3.159  0.2076 -0.3742 -0.6005
10884SOL     OW33464   3.642   6.691   4.678  0.0395  0.0093  0.0724
10884SOL    HW133465   3.646   6.633   4.754  0.4091 -0.3496 -0.2214
10884SOL    HW233466   3.647   6.779   4.715 -0.9027 -0.1377  0.5451
10885SOL     OW33467   0.886   6.754   2.702 -0.1872 -0.3713  0.7915
10885SOL    HW133468   0.843   6.769   2.617 -0.2218 -0.8313  0.7248
10885SOL    HW233469   0.846   6.674   2.735  0.2174 -0.4906  0.9938
10886SOL     OW33470   7.733   6.302   5.385  0.0332 -0.1296 -0.5119
10886SOL    HW133471   7.734   6.392   5.415  1.9492 -0.7308  1.3909
10886SOL    HW233472   7.817   6.292   5.339  0.3369 -1.2221  0.2590
10887SOL     OW33473   7.400   2.453   1.343  0.6761 -0.0838  0.4929
10887SOL    HW133474   7.307   2.441   1.324  1.1016 -0.4909 -1.4486
10887SOL    HW233475   7.431   2.366   1.370  0.8150 -0.3092 -0.3707
10888SOL     OW33476   1.937   3.733   2.095  0.0890  0.3815 -0.1280
10888SOL    HW133477   1.969   3.776   2.016 -1.7941 -0.5368 -1.4200
10888SOL    HW233478   1.851   3.772   2.111  0.4588  0.5892  1.5087
10889SOL     OW33479   0.275   4.567   6.753 -0.1107 -0.5272 -0.0772
10889SOL    HW133480   0.334   4.556   6.678  0.2794  0.0204  0.1508
10889SOL    HW233481   0.201   4.510   6.733  0.3346 -0.9570 -0.5284
10890SOL     OW33482   1.036   7.442   4.228 -0.3064 -0.0714 -0.0126
10890SOL    HW133483   0.953   7.461   4.184 -1.0822 -1.3024  0.8985
10890SOL    HW233484   1.094   7.513   4.200 -1.4465  0.4109 -1.2260
10891SOL     OW33485   5.038   3.066   3.450 -0.4238  0.4225 -0.1272
10891SOL    HW133486   4.977   3.139   3.447 -0.1186  0.6676 -0.3399
10891SOL    HW233487   5.113   3.094   3.396 -0.1747  0.0801  0.0373
10892SOL     OW33488   3.363   3.982   7.356  0.3623  0.6035 -0.3063
10892SOL    HW133489   3.430   4.042   7.387 -1.1706  1.9190  0.5637
10892SOL    HW233490   3.287   4.037   7.337 -0.6153 -0.8828 -0.8667
10893SOL     OW33491   2.091   3.501   1.177 -0.2826  0.8152  0.3800
10893SOL    HW133492   1.998   3.478   1.173 -0.2341  0.8044 -1.1372
10893SOL    HW233493   2.096   3.586   1.135  0.4437  0.6579  0.1480
10894SOL     OW33494   3.152   5.473   4.979  0.3913  0.1819 -0.3014
10894SOL    HW133495   3.106   5.549   4.943  2.8245  1.2046 -1.3607
10894SOL    HW233496   3.120   5.467   5.069 -0.0021  2.3600 -0.2589
10895SOL     OW33497   7.144   6.509   7.476  0.0196  0.3849  0.1869
10895SOL    HW133498   7.060   6.518   7.520  0.4306  0.5548  0.9359
10895SOL    HW233499   7.178   6.424   7.504  0.3871  0.5926  0.3742
10896SOL     OW33500   3.532   3.212   6.044 -0.3829 -0.0062  0.0937
10896SOL    HW133501   3.554   3.279   5.978 -0.2141 -0.2334 -0.0782
10896SOL    HW233502   3.614   3.166   6.060 -0.2729  0.4543  0.9289
10897SOL     OW33503   7.996   1.987   0.197 -0.4727 -0.2056 -0.1621
10897SOL    HW133504   8.038   1.901   0.196 -0.5449 -0.2332 -1.1072
10897SOL    HW233505   7.929   1.981   0.129  0.6172  1.1384 -1.3828
10898SOL     OW33506   0.408   1.047   7.464  0.6105 -0.1091 -0.5374
10898SOL    HW133507   0.366   1.133   7.458  0.9044 -0.0697 -2.2569
10898SOL    HW233508   0.502   1.065   7.458  0.6337 -0.6126 -1.9283
10899SOL     OW33509   6.158   1.545   7.910  0.1103  0.5017  0.3984
10899SOL    HW133510   6.186   1.599   7.836 -0.4647 -0.2143 -0.3548
10899SOL    HW233511   6.218   1.471   7.910 -0.1035  0.3272  0.4307
10900SOL     OW33512   6.694   2.360   7.434 -0.2852  0.1218  0.3730
10900SOL    HW133513   6.629   2.336   7.368  0.5609 -0.3064 -0.3138
10900SOL    HW233514   6.778   2.347   7.391  0.2723  0.2213  1.4106
10901SOL     OW33515   0.120   5.689   7.304  0.6714 -0.0706 -0.3557
10901SOL    HW133516   0.143   5.683   7.396  1.0923 -0.4428 -0.4804
10901SOL    HW233517   0.198   5.657   7.258  0.1016 -0.8199 -0.8026
10902SOL     OW33518   7.630   4.912   5.918 -0.5379  0.4483 -0.1784
10902SOL    HW133519   7.624   4.817   5.912 -0.4122  0.4373 -0.1108
10902SOL    HW233520   7.680   4.937   5.840  1.6323  0.2557  1.1174
10903SOL     OW33521   3.074   4.482   4.090 -0.0040  0.1147  0.0989
10903SOL    HW133522   3.020   4.404   4.074 -1.0762  0.6591  0.9887
10903SOL    HW233523   3.015   4.544   4.133  1.2607  0.8490  0.8142
10904SOL     OW33524   4.507   0.807   7.488 -0.3763 -0.1121 -0.2034
10904SOL    HW133525   4.524   0.721   7.448  0.2847  0.5351 -1.3208
10904SOL    HW233526   4.481   0.786   7.578  3.0078 -1.3264  0.5541
10905SOL     OW33527   2.288   1.226   5.470 -1.0558 -0.3005 -0.4443
10905SOL    HW133528   2.363   1.200   5.418  0.1398  2.0572  0.0262
10905SOL    HW233529   2.240   1.287   5.414 -3.4594 -2.8700 -1.2985
10906SOL     OW33530   0.412   2.311   1.000 -0.0160  0.4197 -0.6711
10906SOL    HW133531   0.495   2.271   1.026 -0.7813 -1.4803 -1.0721
10906SOL    HW233532   0.414   2.399   1.039  0.7865 -0.7452  2.0504
10907SOL     OW33533   6.139   6.430   1.245  0.0024 -0.0312  0.1786
10907SOL    HW133534   6.118   6.338   1.227  0.8634 -0.6333  2.2226
10907SOL    HW233535   6.073   6.458   1.308  1.1970  0.0472  1.4112
10908SOL     OW33536   3.026   5.579   5.759  0.2760  0.2110 -0.5844
10908SOL    HW133537   2.932   5.595   5.762  0.1394 -0.6120 -0.1481
10908SOL    HW233538   3.066   5.663   5.781 -0.4071 -0.2322  2.6027
10909SOL     OW33539   1.707   3.815   2.291  0.2591  0.1408 -0.5270
10909SOL    HW133540   1.644   3.845   2.357 -0.5999 -0.2479 -1.1659
10909SOL    HW233541   1.781   3.782   2.343 -0.4463 -0.2467  0.2519
10910SOL     OW33542   4.554   4.538   6.874  0.4271  0.4371  0.5238
10910SOL    HW133543   4.512   4.525   6.789 -1.3610 -1.9553  1.7103
10910SOL    HW233544   4.523   4.624   6.903 -1.4892 -0.1148  0.1644
10911SOL     OW33545   7.933   3.857   5.189  0.2339 -0.0813  0.3697
10911SOL    HW133546   7.950   3.834   5.098 -0.2177  0.0282  0.2578
10911SOL    HW233547   7.838   3.873   5.193  0.4781  1.3348  0.5454
10912SOL     OW33548   3.491   2.022   7.859  0.1892 -0.1799 -0.3034
10912SOL    HW133549   3.405   1.980   7.863  0.0964  0.1250  1.1431
10912SOL    HW233550   3.538   1.987   7.935  1.6808 -1.0667 -1.5988
10913SOL     OW33551   0.632   6.490   0.843 -0.4385  0.3313 -0.8454
10913SOL    HW133552   0.577   6.465   0.917 -1.0858 -2.2470 -2.1316
10913SOL    HW233553   0.604   6.579   0.821 -1.5697  0.3893  0.7796
10914SOL     OW33554   0.143   5.118   6.982 -0.0132  0.3181  0.1884
10914SOL    HW133555   0.163   5.027   7.001 -3.1115 -0.2301  1.1600
10914SOL    HW233556   0.071   5.114   6.919  0.9416  2.1171 -1.0530
10915SOL     OW33557   2.611   2.297   1.388 -0.2549  0.1214  0.4249
10915SOL    HW133558   2.572   2.236   1.450 -0.2015 -2.5071 -2.0706
10915SOL    HW233559   2.703   2.272   1.384  0.2857  1.8682  1.0671
10916SOL     OW33560   3.951   6.794   4.863 -0.0541  0.3350  0.1109
10916SOL    HW133561   4.046   6.782   4.869 -0.3629 -3.6038 -1.5529
10916SOL    HW233562   3.927   6.753   4.780 -3.2743  1.1198  0.5920
10917SOL     OW33563   0.226   0.195   1.856 -0.3414 -0.1075 -0.1770
10917SOL    HW133564   0.282   0.139   1.910 -1.9036 -1.9134 -0.3822
10917SOL    HW233565   0.239   0.163   1.767 -1.1680 -0.0796 -0.3080
10918SOL     OW33566   1.347   3.391   2.302  0.5693 -0.5739  0.2102
10918SOL    HW133567   1.281   3.324   2.319 -0.7992  1.1935  2.2081
10918SOL    HW233568   1.402   3.355   2.232 -0.2923 -3.6164  1.0487
10919SOL     OW33569   6.138   2.215   0.027  0.3294 -0.2943 -0.1584
10919SOL    HW133570   6.199   2.218  -0.047 -0.3327  0.8867 -0.6780
10919SOL    HW233571   6.054   2.194  -0.012 -0.3355  1.8902  0.0285
10920SOL     OW33572   2.488   3.629   2.428  0.1421  0.4580  0.3239
10920SOL    HW133573   2.558   3.643   2.492  0.3150 -1.6284  0.6220
10920SOL    HW233574   2.413   3.600   2.480  0.0676 -0.5308 -0.3106
10921SOL     OW33575   0.043   0.669   0.233 -0.3315 -0.9728 -0.0264
10921SOL    HW133576   0.029   0.742   0.174 -0.4261 -0.1898  0.9562
10921SOL    HW233577  -0.011   0.688   0.309  1.3685 -0.9296  1.2014
10922SOL     OW33578   1.855   1.637   4.086  0.2282 -0.0977 -0.6299
10922SOL    HW133579   1.761   1.620   4.094  0.2549  0.3120  0.7335
10922SOL    HW233580   1.896   1.570   4.140  0.6424  0.6100 -0.0630
10923SOL     OW33581   2.651   7.978   6.091  0.2955  0.7663  0.2126
10923SOL    HW133582   2.739   8.012   6.078  0.0709  2.2922  2.4820
10923SOL    HW233583   2.593   8.053   6.080 -0.7769 -0.2276 -1.2893
10924SOL     OW33584   7.831   0.690   0.411  0.0932 -0.4076 -0.0941
10924SOL    HW133585   7.807   0.783   0.406 -3.7303 -1.3302 -0.9035
10924SOL    HW233586   7.850   0.675   0.503  2.1760  1.4670 -0.1738
10925SOL     OW33587   3.917   2.323   6.055 -0.4729 -0.1968  0.2352
10925SOL    HW133588   3.984   2.258   6.074 -0.2215  0.2734  0.9609
10925SOL    HW233589   3.916   2.380   6.131  0.4838  1.6486 -1.0924
10926SOL     OW33590   7.883   2.612   1.492 -0.1902  0.1734  0.1350
10926SOL    HW133591   7.789   2.594   1.489 -0.2362  0.5514 -1.0225
10926SOL    HW233592   7.896   2.663   1.572 -0.8184 -0.6861  0.7906
10927SOL     OW33593   1.238   5.352   5.218 -0.1385 -1.0037  0.1579
10927SOL    HW133594   1.252   5.432   5.168 -0.8044 -0.2509  1.1593
10927SOL    HW233595   1.324   5.310   5.221  0.8990  1.1786  2.2043
10928SOL     OW33596   5.868   1.352   7.157  0.1534 -0.7999 -0.2372
10928SOL    HW133597   5.813   1.378   7.083 -0.7914 -1.3205  0.2721
10928SOL    HW233598   5.811   1.359   7.234  0.7662 -1.4193  0.2866
10929SOL     OW33599   7.896   4.865   4.512  0.1590 -0.7793  0.2617
10929SOL    HW133600   7.831   4.841   4.579  0.8400 -2.2367  0.4070
10929SOL    HW233601   7.922   4.954   4.536 -1.4923 -0.3111  0.4227
10930SOL     OW33602   7.896   0.791   5.730  0.4937 -0.7007  0.4465
10930SOL    HW133603   7.846   0.854   5.678 -1.7022 -3.2094 -0.5478
10930SOL    HW233604   7.858   0.798   5.818  0.1827 -0.7052  0.3144
10931SOL     OW33605   4.820   1.832   1.033  0.7788 -0.2334  0.0389
10931SOL    HW133606   4.846   1.861   1.121 -0.3282 -1.1455  0.6710
10931SOL    HW233607   4.741   1.882   1.014  0.9238 -0.1621 -0.3711
10932SOL     OW33608   4.440   2.947   1.812  0.1265 -0.4419  0.5899
10932SOL    HW133609   4.395   2.929   1.730  2.8411 -0.1739 -0.9941
10932SOL    HW233610   4.407   3.033   1.839 -0.7619 -0.5190 -0.2133
10933SOL     OW33611   5.524   3.219   5.717  0.0318 -0.4089 -0.2376
10933SOL    HW133612   5.468   3.280   5.670  0.4429 -0.1320 -0.3729
10933SOL    HW233613   5.610   3.229   5.676 -0.5181 -3.1946 -2.2840
10934SOL     OW33614   4.708   3.602   4.548  0.1805 -0.2187  0.2370
10934SOL    HW133615   4.660   3.520   4.547  0.8262 -0.5984 -0.4939
10934SOL    HW233616   4.711   3.628   4.640 -1.2411 -0.2828  0.3117
10935SOL     OW33617   1.085   4.652   7.098  0.0441 -0.2687  0.0998
10935SOL    HW133618   1.103   4.561   7.076 -0.9500 -0.6237  0.6949
10935SOL    HW233619   1.094   4.656   7.193 -0.4178  0.1273  0.1330
10936SOL     OW33620   6.547   6.308   0.666 -0.2558  0.4798 -0.1896
10936SOL    HW133621   6.518   6.319   0.756  0.6107  0.6636  0.0694
10936SOL    HW233622   6.493   6.237   0.632 -0.9573  0.7644  0.3022
10937SOL     OW33623   7.972   7.391   1.790 -0.2304  0.6487 -0.4270
10937SOL    HW133624   7.946   7.481   1.770  0.7576  0.9681 -0.3415
10937SOL    HW233625   8.065   7.398   1.811 -0.3571 -0.2546  0.4918
10938SOL     OW33626   2.285   7.574   0.584  0.7510  0.0101  0.0341
10938SOL    HW133627   2.346   7.510   0.621  0.1173 -0.6887 -0.1251
10938SOL    HW233628   2.248   7.620   0.660 -0.7552 -1.6090  0.3092
10939SOL     OW33629   7.742   3.675   3.119  0.1950 -0.1805  0.4755
10939SOL    HW133630   7.700   3.753   3.083  1.8037  1.4778  2.0550
10939SOL    HW233631   7.682   3.644   3.186 -0.8231 -0.7918 -0.6971
10940SOL     OW33632   7.167   6.907   7.607 -0.3077  0.4430  0.3322
10940SOL    HW133633   7.072   6.916   7.595 -0.2516  0.7612  0.0945
10940SOL    HW233634   7.186   6.952   7.689 -0.3844  0.2604  0.4469
10941SOL     OW33635   7.786   4.409   2.271  0.4931 -0.7587 -0.5849
10941SOL    HW133636   7.819   4.364   2.193 -0.0817 -0.8651 -0.7663
10941SOL    HW233637   7.722   4.472   2.237  1.3389  0.2375 -0.3399
10942SOL     OW33638   6.897   3.120   4.242 -0.6509 -0.4326 -0.2294
10942SOL    HW133639   6.870   3.183   4.309 -2.6718 -3.1669  1.6785
10942SOL    HW233640   6.972   3.075   4.281 -1.2742 -1.4185 -0.1483
10943SOL     OW33641   0.232   3.114   4.748  0.0541 -0.3367 -0.6013
10943SOL    HW133642   0.176   3.067   4.687 -0.8853 -0.9858  0.7275
10943SOL    HW233643   0.184   3.194   4.768 -0.0768 -0.5732  0.0227
10944SOL     OW33644   2.011   5.441   6.723 -0.2933 -0.1777 -0.1872
10944SOL    HW133645   1.934   5.465   6.671 -0.6378  0.5559  0.6645
10944SOL    HW233646   2.081   5.432   6.658 -1.4875 -2.7255 -1.2044
10945SOL     OW33647   5.296   2.038   1.823 -0.0288  0.5237  0.2384
10945SOL    HW133648   5.221   2.009   1.875  0.8369  0.2471  1.3518
10945SOL    HW233649   5.333   1.958   1.787  0.1433  0.6018  0.2431
10946SOL     OW33650   6.119   2.999   5.725 -0.2551 -0.1209  0.3655
10946SOL    HW133651   6.187   3.018   5.660 -1.6666  1.5327 -0.6880
10946SOL    HW233652   6.149   3.042   5.805 -0.2659  0.9574 -0.2100
10947SOL     OW33653   0.616   2.515   0.303 -0.3595  0.3900  0.2177
10947SOL    HW133654   0.642   2.465   0.227 -0.6362 -0.9287  0.9731
10947SOL    HW233655   0.525   2.490   0.318 -0.0517 -0.0161  1.4748
10948SOL     OW33656   2.338   7.437   5.364 -0.2169  0.1843 -0.1197
10948SOL    HW133657   2.327   7.359   5.419  0.6612  0.1336 -0.0079
10948SOL    HW233658   2.394   7.408   5.292  1.4515  1.1149  0.7775
10949SOL     OW33659   2.564   5.885   1.776 -0.4114 -0.9800  0.3433
10949SOL    HW133660   2.623   5.910   1.705  0.0578 -2.1679  0.2929
10949SOL    HW233661   2.476   5.896   1.740 -0.2328  0.9592  0.4743
10950SOL     OW33662   3.365   2.105   5.030  0.9462  0.3817 -0.6908
10950SOL    HW133663   3.310   2.031   5.058  0.9298 -0.1347 -2.0184
10950SOL    HW233664   3.315   2.146   4.959  1.9045  0.4022 -1.3586
10951SOL     OW33665   7.330   7.286   3.581 -0.0199 -0.0528  0.0052
10951SOL    HW133666   7.343   7.326   3.667  1.9138 -1.3736  0.3646
10951SOL    HW233667   7.294   7.356   3.526 -0.1632  1.1188  1.5646
10952SOL     OW33668   3.506   7.301   3.663 -0.5724  0.2545 -0.3533
10952SOL    HW133669   3.523   7.270   3.751 -0.1102 -0.0525 -0.5523
10952SOL    HW233670   3.421   7.345   3.669  0.1424  1.5251  0.5684
10953SOL     OW33671   5.919   1.898   2.236 -0.4148 -0.4244 -0.2053
10953SOL    HW133672   5.894   1.807   2.250  1.8956 -1.0902 -0.1135
10953SOL    HW233673   5.997   1.910   2.291 -0.0421  1.2830 -1.0621
10954SOL     OW33674   2.712   6.385   6.773 -0.7463  0.1335  0.1341
10954SOL    HW133675   2.791   6.342   6.738 -1.6670 -0.7677 -0.8685
10954SOL    HW233676   2.745   6.466   6.811  0.6143 -0.0098 -0.6835
10955SOL     OW33677   0.571   0.693   2.374 -0.4743 -0.3338 -0.2058
10955SOL    HW133678   0.637   0.633   2.409  0.8818  0.6607 -0.9948
10955SOL    HW233679   0.500   0.636   2.346  0.4459 -1.5198 -0.2023
10956SOL     OW33680   6.467   2.843   3.045  0.0773 -0.1433 -0.1645
10956SOL    HW133681   6.476   2.845   3.141 -3.2255 -2.6881  0.2578
10956SOL    HW233682   6.485   2.752   3.021  3.1397  0.9333 -2.3013
10957SOL     OW33683   2.768   2.234   7.920 -0.0882  0.2134 -0.5508
10957SOL    HW133684   2.713   2.205   7.847 -0.7889  1.4981 -0.5521
10957SOL    HW233685   2.739   2.180   7.994 -0.6667  0.1950 -0.7844
10958SOL     OW33686   4.200   4.452   4.359 -0.5045  0.5882 -0.0070
10958SOL    HW133687   4.202   4.543   4.387  0.8930  0.9483 -1.2760
10958SOL    HW233688   4.207   4.402   4.441  1.4944  1.6297  0.4826
10959SOL     OW33689   1.798   3.486   2.106 -0.3445 -0.1622  0.8480
10959SOL    HW133690   1.863   3.554   2.090 -1.2395  0.6288  0.5109
10959SOL    HW233691   1.841   3.405   2.080  0.4343  0.3703  0.4553
10960SOL     OW33692   4.847   7.361   5.546 -0.2814  0.4541 -0.3320
10960SOL    HW133693   4.768   7.381   5.495 -1.7666 -1.2046  1.2402
10960SOL    HW233694   4.832   7.273   5.579  2.2618  0.1310  0.0143
10961SOL     OW33695   0.981   5.268   7.869 -0.0615 -0.1174 -0.0252
10961SOL    HW133696   0.954   5.178   7.888 -1.2417  0.6687  2.2399
10961SOL    HW233697   0.924   5.322   7.925  1.0290  1.9942 -0.9143
10962SOL     OW33698   6.326   4.932   1.044  0.1158 -0.0136 -0.1682
10962SOL    HW133699   6.264   4.886   1.100 -0.8407  1.5559  0.1036
10962SOL    HW233700   6.362   5.001   1.099  1.5033 -0.3916 -0.5762
10963SOL     OW33701   1.035   0.276   3.096 -0.0328 -0.5852  0.3563
10963SOL    HW133702   0.991   0.211   3.041 -1.2933  1.5038 -1.1567
10963SOL    HW233703   1.101   0.316   3.039  0.8689 -0.6550  1.3302
10964SOL     OW33704   1.504   0.365   1.260 -0.1576 -0.3188  0.2955
10964SOL    HW133705   1.443   0.294   1.238 -0.0578 -0.6593  1.0724
10964SOL    HW233706   1.518   0.355   1.354 -1.7357  1.9717  0.8351
10965SOL     OW33707   6.457   1.169   2.204 -0.0661  0.2702  0.1602
10965SOL    HW133708   6.432   1.153   2.113  2.0579  1.6596 -0.6928
10965SOL    HW233709   6.396   1.237   2.233 -0.5688  0.0297 -0.3149
10966SOL     OW33710   5.600   1.879   4.710 -0.1380  0.0553  1.1829
10966SOL    HW133711   5.657   1.847   4.780  0.1512  0.6122  1.2056
10966SOL    HW233712   5.515   1.837   4.727  0.1843 -0.5346  1.3261
10967SOL     OW33713   6.885   5.302   3.459 -0.1821  0.1238  0.6795
10967SOL    HW133714   6.796   5.277   3.434  0.0425 -1.3264  1.2858
10967SOL    HW233715   6.884   5.300   3.554  0.3538  0.6494  0.6976
10968SOL     OW33716   1.266   6.175   1.227 -0.2354 -0.1909  0.5983
10968SOL    HW133717   1.345   6.145   1.272 -0.7949 -1.0882  1.0169
10968SOL    HW233718   1.288   6.262   1.193  0.3169  0.3738  2.3445
10969SOL     OW33719   0.044   3.700   7.436  0.2784  0.1096 -0.3791
10969SOL    HW133720  -0.048   3.690   7.411  0.0174  1.4977 -0.0016
10969SOL    HW233721   0.067   3.617   7.477 -0.9633 -0.0415  0.0179
10970SOL     OW33722   5.724   6.013   3.178 -0.6465 -0.2110 -0.1704
10970SOL    HW133723   5.674   5.983   3.103 -0.3108 -0.6845 -0.2075
10970SOL    HW233724   5.705   5.949   3.247 -0.3847 -0.1890 -0.0761
10971SOL     OW33725   5.277   0.555   6.221 -0.1280  0.2374  0.3046
10971SOL    HW133726   5.187   0.533   6.247  0.2356 -0.6649  0.8123
10971SOL    HW233727   5.292   0.503   6.141 -0.6590  1.7222 -0.7832
10972SOL     OW33728   3.123   0.199   3.347  0.2782 -0.1692  0.0612
10972SOL    HW133729   3.033   0.230   3.354  0.3722  0.4043 -1.1525
10972SOL    HW233730   3.176   0.278   3.355  0.6385 -0.3874 -0.1526
10973SOL     OW33731   1.751   5.514   4.818 -0.0881 -0.0767  0.6196
10973SOL    HW133732   1.843   5.535   4.831 -0.1218 -0.0304  0.7849
10973SOL    HW233733   1.736   5.438   4.875 -0.0059 -0.4473  0.1485
10974SOL     OW33734   5.883   3.618   4.353  0.0679 -0.0532 -0.4779
10974SOL    HW133735   5.936   3.696   4.370 -1.3507  0.9531 -0.5345
10974SOL    HW233736   5.933   3.568   4.289  2.0474 -0.2923  1.1937
10975SOL     OW33737   2.303   2.528   4.306 -0.5962 -0.1379  0.5322
10975SOL    HW133738   2.284   2.560   4.218 -1.1217 -1.5074  0.1408
10975SOL    HW233739   2.305   2.607   4.360  1.0058  0.8451 -0.9155
10976SOL     OW33740   3.474   1.017   4.658  0.0177  0.2023 -0.2881
10976SOL    HW133741   3.413   0.994   4.588 -0.3831 -0.4867  0.2804
10976SOL    HW233742   3.440   0.972   4.735  0.6778  0.6370  0.2630
10977SOL     OW33743   5.211   1.430   5.470 -0.3697  0.3083 -0.1952
10977SOL    HW133744   5.165   1.411   5.552 -0.9311 -0.6167 -0.7202
10977SOL    HW233745   5.237   1.522   5.478 -0.2391  0.1584  1.1053
10978SOL     OW33746   1.655   6.461   3.056  0.2844  0.6778 -0.0146
10978SOL    HW133747   1.671   6.447   3.150  0.0057 -1.1889 -0.2271
10978SOL    HW233748   1.707   6.393   3.013 -0.7794  0.5691 -1.1430
10979SOL     OW33749   2.954   5.010   3.508 -0.6573 -0.2248 -1.3829
10979SOL    HW133750   2.934   4.921   3.480 -0.9134 -0.4612 -0.4420
10979SOL    HW233751   2.872   5.043   3.544 -0.3557  0.1223 -1.0136
10980SOL     OW33752   4.971   7.512   4.273  0.2882 -0.1103 -0.1648
10980SOL    HW133753   5.011   7.587   4.230 -0.0446  0.9201  1.2981
10980SOL    HW233754   4.890   7.545   4.311  0.6071 -0.9667  1.3122
10981SOL     OW33755   2.192   3.078   3.908  0.1590 -0.1511  0.0034
10981SOL    HW133756   2.217   3.075   4.001  1.2244  1.3390 -0.2217
10981SOL    HW233757   2.107   3.122   3.908  1.4410  2.4121  0.0612
10982SOL     OW33758   2.144   3.801   3.926  0.7308 -0.2708  0.4101
10982SOL    HW133759   2.088   3.725   3.909  0.6206 -0.5516  1.9148
10982SOL    HW233760   2.233   3.770   3.912  0.6809 -0.6755  0.9622
10983SOL     OW33761   4.744   1.287   0.634  0.6625  0.9160  0.2647
10983SOL    HW133762   4.829   1.260   0.600  1.2640  1.9831  0.8655
10983SOL    HW233763   4.726   1.371   0.591 -1.1963 -0.4072 -1.6218
10984SOL     OW33764   6.305   0.788   4.133 -0.1744  1.0030  0.0405
10984SOL    HW133765   6.374   0.780   4.198  0.8387 -0.4441 -1.1863
10984SOL    HW233766   6.224   0.774   4.182  0.6800 -2.0972  0.6756
10985SOL     OW33767   2.074   4.415   3.100 -0.0350  0.1143  0.1300
10985SOL    HW133768   2.121   4.341   3.062 -0.2865  0.3284 -0.6090
10985SOL    HW233769   2.123   4.436   3.180  0.5473 -0.2816 -0.1166
10986SOL     OW33770   2.929   1.214   1.611  0.1898 -0.5803  0.6095
10986SOL    HW133771   2.961   1.293   1.568 -1.4052 -0.5991 -0.7001
10986SOL    HW233772   2.877   1.246   1.685  0.4549 -0.4426  0.7361
10987SOL     OW33773   0.644   5.438   2.655 -0.2061 -0.1364 -0.1571
10987SOL    HW133774   0.731   5.400   2.647 -0.9320 -1.4426 -2.2618
10987SOL    HW233775   0.634   5.457   2.748  2.4911  0.4719  0.0396
10988SOL     OW33776   7.637   6.247   6.409  0.3591 -0.1268  0.6071
10988SOL    HW133777   7.662   6.245   6.317 -0.4595 -0.2983  0.3870
10988SOL    HW233778   7.577   6.173   6.420 -1.6649  1.4583  0.6475
10989SOL     OW33779   2.972   7.981   1.792 -0.0681 -0.5453 -0.4192
10989SOL    HW133780   2.993   8.054   1.851 -1.5049 -0.2277 -0.2960
10989SOL    HW233781   3.019   7.906   1.830 -1.7094 -0.5538  1.6681
10990SOL     OW33782   6.644   2.721   6.317 -0.0574 -0.1106  0.1380
10990SOL    HW133783   6.654   2.798   6.261  0.3219 -0.5937 -0.4711
10990SOL    HW233784   6.560   2.733   6.361  0.8008  1.5219  1.4000
10991SOL     OW33785   2.956   1.162   4.431  0.4171 -0.0116  0.2033
10991SOL    HW133786   3.007   1.205   4.362  0.6172  0.8485  0.8733
10991SOL    HW233787   2.917   1.235   4.480  2.0445 -0.5414  2.3353
10992SOL     OW33788   3.061   7.779   0.606  0.1728  0.6848  0.1443
10992SOL    HW133789   3.049   7.751   0.515 -1.2385  0.0256  0.5134
10992SOL    HW233790   3.121   7.853   0.601  0.1471  0.6182 -1.3200
10993SOL     OW33791   4.618   0.917   6.465  0.3012 -0.3920  0.7485
10993SOL    HW133792   4.624   0.868   6.547 -0.6890 -0.3697  0.8335
10993SOL    HW233793   4.532   0.960   6.468  0.5346  0.1437 -0.0005
10994SOL     OW33794   6.096   4.519   4.063 -0.6254 -0.4188  0.0713
10994SOL    HW133795   6.127   4.509   3.973  0.5006  1.0479  0.2685
10994SOL    HW233796   6.015   4.469   4.067 -0.2828 -1.1170 -1.5490
10995SOL     OW33797   1.487   5.835   0.867 -0.5294  0.0901 -0.3964
10995SOL    HW133798   1.442   5.859   0.786 -0.4863  1.4229 -0.0304
10995SOL    HW233799   1.466   5.905   0.928  1.9045  0.6562 -0.1611
10996SOL     OW33800   1.216   5.010   6.462 -0.1967  0.1569  0.6654
10996SOL    HW133801   1.190   4.932   6.413 -1.9347 -0.3022  2.2681
10996SOL    HW233802   1.224   5.078   6.395 -1.3850 -0.7277 -0.4006
10997SOL     OW33803   7.340   2.690   0.418 -0.3000  0.0787 -0.2173
10997SOL    HW133804   7.351   2.720   0.509 -0.3538  0.1594 -0.2373
10997SOL    HW233805   7.423   2.710   0.375 -0.3831  0.3194 -0.2649
10998SOL     OW33806   2.005   3.010   7.614  0.4665 -0.0872  0.6487
10998SOL    HW133807   2.010   2.924   7.656  0.4255 -0.6611 -0.5138
10998SOL    HW233808   2.049   2.999   7.530  0.1778  0.9408  0.3508
10999SOL     OW33809   6.851   7.174   1.220  0.0216  0.2467  0.2048
10999SOL    HW133810   6.918   7.105   1.212 -0.1366  0.1233 -0.0384
10999SOL    HW233811   6.768   7.127   1.220 -0.0396  0.3511  1.1719
11000SOL     OW33812   1.913   7.895   7.773  0.3564  0.0190 -0.3331
11000SOL    HW133813   1.900   7.957   7.701 -0.3584 -0.3194 -0.4938
11000SOL    HW233814   2.008   7.882   7.776  0.2477 -1.5780 -2.5893
11001SOL     OW33815   6.455   0.009   6.934 -0.5971 -0.5285 -0.5792
11001SOL    HW133816   6.549   0.027   6.935 -0.4937 -1.0563  0.5323
11001SOL    HW233817   6.439  -0.031   6.849  0.0219  0.3969 -1.1343
11002SOL     OW33818   6.019   0.837   0.160 -0.3738  0.4748  0.2297
11002SOL    HW133819   5.979   0.908   0.110  0.6841  0.7854 -0.1823
11002SOL    HW233820   6.036   0.875   0.246 -1.3087  0.2260  0.5314
11003SOL     OW33821   7.668   0.813   5.519 -0.0761 -0.5961  0.0283
11003SOL    HW133822   7.704   0.844   5.436  0.6365  0.3825  0.6849
11003SOL    HW233823   7.663   0.718   5.509  3.3409 -0.8549  0.1171
11004SOL     OW33824   5.544   6.444   7.945 -0.2819 -0.3005  0.4001
11004SOL    HW133825   5.584   6.495   8.015 -2.1298 -0.4780  1.6031
11004SOL    HW233826   5.567   6.353   7.966 -0.3337 -0.3004  0.4609
11005SOL     OW33827   3.456   7.516   6.379  0.2590 -0.1895  0.4276
11005SOL    HW133828   3.517   7.496   6.309  0.6962  0.1906  0.7029
11005SOL    HW233829   3.370   7.515   6.337  0.3791 -1.4836  0.1941
11006SOL     OW33830   7.456   2.464   0.161 -0.1097  0.1619 -0.0296
11006SOL    HW133831   7.475   2.394   0.098 -0.3005  1.1578 -1.2169
11006SOL    HW233832   7.528   2.526   0.150 -0.1145  0.3187  0.7895
11007SOL     OW33833   4.180   7.375   6.410 -0.2805 -0.2825 -1.0432
11007SOL    HW133834   4.219   7.393   6.495  1.2196 -0.4047 -1.6907
11007SOL    HW233835   4.162   7.281   6.411 -2.2374  0.0742 -0.0757
11008SOL     OW33836   1.590   0.777   5.586  0.1243  0.5328  0.0211
11008SOL    HW133837   1.575   0.774   5.681  0.5177 -2.6065  0.0359
11008SOL    HW233838   1.516   0.828   5.552 -2.1533 -1.5329  1.6673
11009SOL     OW33839   3.116   6.841   1.393 -0.1988  0.1894  0.5858
11009SOL    HW133840   3.076   6.760   1.424 -1.6834  0.2119 -1.1717
11009SOL    HW233841   3.069   6.910   1.440 -2.3575  0.2186 -1.5141
11010SOL     OW33842   5.794   1.003   3.610 -0.5297 -0.0166  0.3400
11010SOL    HW133843   5.817   1.060   3.684 -0.1370 -0.3526  0.4798
11010SOL    HW233844   5.754   1.062   3.546  0.2985  0.5000  0.2876
11011SOL     OW33845   7.533   4.283   5.063  0.2590  0.4789 -0.1170
11011SOL    HW133846   7.555   4.268   4.972  0.3455 -0.1516  0.0008
11011SOL    HW233847   7.552   4.375   5.079  1.7117  0.2222 -0.3208
11012SOL     OW33848   5.566   4.664   3.613  0.0835  0.1238  0.3836
11012SOL    HW133849   5.630   4.598   3.588  0.8017  0.7376  0.5587
11012SOL    HW233850   5.570   4.665   3.709  1.0111  1.3081  0.3451
11013SOL     OW33851   3.427   2.324   5.545 -0.2005 -0.1129 -0.1274
11013SOL    HW133852   3.440   2.415   5.570  1.7023 -0.3201 -0.2692
11013SOL    HW233853   3.401   2.280   5.626  0.7032  0.2130  0.3448
11014SOL     OW33854   2.423   6.886   7.017  0.1299 -0.3060 -0.1454
11014SOL    HW133855   2.365   6.844   7.080 -0.1424 -0.2576 -0.3617
11014SOL    HW233856   2.445   6.971   7.057 -1.9204  0.7336 -1.1425
11015SOL     OW33857   0.283   1.906   0.430 -0.3995  0.1225  0.4696
11015SOL    HW133858   0.294   1.962   0.507  0.3574  0.7114 -0.0630
11015SOL    HW233859   0.348   1.837   0.440 -0.1047  0.3628  0.2130
11016SOL     OW33860   5.528   1.530   0.966 -0.3634 -0.0495 -0.3870
11016SOL    HW133861   5.442   1.571   0.980 -0.1625  0.1748  0.2115
11016SOL    HW233862   5.540   1.474   1.043 -0.0592 -0.2407 -0.5724
11017SOL     OW33863   5.179   7.503   1.910 -0.5077 -0.4068 -0.0434
11017SOL    HW133864   5.263   7.458   1.896 -0.0926  0.2850  0.2098
11017SOL    HW233865   5.140   7.457   1.985  0.2459  0.1032  0.6758
11018SOL     OW33866   5.192   0.980   5.392  0.0832 -0.4003  0.1165
11018SOL    HW133867   5.161   0.890   5.392 -0.6343 -0.1628  0.5293
11018SOL    HW233868   5.111   1.032   5.389  0.4397  0.2428  1.3388
11019SOL     OW33869   4.496   6.413   0.383  0.1121 -0.5390  0.2623
11019SOL    HW133870   4.519   6.489   0.436 -0.7502  0.0740 -0.2362
11019SOL    HW233871   4.431   6.446   0.320 -0.2503 -1.6697  0.0316
11020SOL     OW33872   7.100   4.180   3.322 -0.2458 -0.3594  0.5063
11020SOL    HW133873   7.136   4.107   3.271  0.3740  0.7651 -0.6614
11020SOL    HW233874   7.145   4.257   3.291 -0.4739  0.4781  2.1699
11021SOL     OW33875   1.131   5.087   5.246  0.0353  0.4351 -0.5189
11021SOL    HW133876   1.036   5.077   5.252 -0.2508  3.3174  0.5892
11021SOL    HW233877   1.144   5.177   5.217  2.4394  0.7985  1.5033
11022SOL     OW33878   3.670   2.757   1.540 -0.6176  0.0038  0.0298
11022SOL    HW133879   3.712   2.737   1.456 -0.1675  1.4252 -0.0974
11022SOL    HW233880   3.740   2.751   1.604 -0.3024  1.9499 -0.1229
11023SOL     OW33881   6.178   0.671   1.522  0.5359  0.0536 -0.2054
11023SOL    HW133882   6.242   0.710   1.463  0.1455 -0.4243 -0.9479
11023SOL    HW233883   6.191   0.576   1.512  0.0917 -0.0395  0.0619
11024SOL     OW33884   6.061   3.376   6.685 -0.1913  0.3653 -0.3576
11024SOL    HW133885   6.082   3.352   6.595  2.4418 -1.6240  0.7406
11024SOL    HW233886   5.968   3.356   6.694 -0.2433 -0.3554 -2.3269
11025SOL     OW33887   0.629   7.020   1.434 -0.1827 -1.0756 -0.0872
11025SOL    HW133888   0.676   7.048   1.356  0.0128 -0.6679  0.1704
11025SOL    HW233889   0.581   7.099   1.462  0.3497 -0.9996  0.6314
11026SOL     OW33890   5.542   5.872   7.874 -0.0321 -0.1060 -0.0193
11026SOL    HW133891   5.580   5.865   7.786  0.3560 -0.1040  0.1468
11026SOL    HW233892   5.545   5.966   7.893  0.4086 -0.1708  0.2273
11027SOL     OW33893   2.570   6.738   5.350  0.1063 -0.1089 -0.1263
11027SOL    HW133894   2.586   6.821   5.395  1.5107 -0.1698 -0.5123
11027SOL    HW233895   2.583   6.671   5.417  1.6028 -0.1661 -0.4724
11028SOL     OW33896   1.168   0.666   1.709 -0.1389  0.4010 -0.9822
11028SOL    HW133897   1.074   0.645   1.706  0.1151 -1.1649  0.8210
11028SOL    HW233898   1.172   0.753   1.748 -0.7719 -0.5823  1.4025
11029SOL     OW33899   4.675   1.377   4.238  0.0732 -0.5455 -0.2022
11029SOL    HW133900   4.651   1.431   4.162  0.0230  1.0342  0.9016
11029SOL    HW233901   4.601   1.387   4.298  0.5840 -0.9410  0.4994
11030SOL     OW33902   6.892   5.188   3.956  0.0591 -0.1953 -0.2733
11030SOL    HW133903   6.938   5.204   4.038  0.9417  2.0868 -1.1856
11030SOL    HW233904   6.818   5.132   3.980 -0.5072  1.5908  2.2988
11031SOL     OW33905   4.945   7.693   0.264 -0.4114  0.5596 -0.3214
11031SOL    HW133906   4.917   7.616   0.314  1.5297 -1.0813 -1.6684
11031SOL    HW233907   4.876   7.757   0.278 -2.4396 -1.6750  0.2614
11032SOL     OW33908   2.392   0.528   3.424 -0.1189 -0.0624  0.5495
11032SOL    HW133909   2.367   0.448   3.378 -1.2234  1.9717 -2.6545
11032SOL    HW233910   2.320   0.544   3.485 -1.0281 -0.3529 -0.4203
11033SOL     OW33911   0.021   6.287   3.474 -0.1348  0.4704 -0.0706
11033SOL    HW133912   0.054   6.302   3.386  0.6409  1.3290  0.3531
11033SOL    HW233913   0.031   6.371   3.518  0.9677 -0.3569  1.3110
11034SOL     OW33914   6.633   2.581   3.318  0.3040  0.0791  0.1006
11034SOL    HW133915   6.673   2.628   3.244 -0.9208 -0.2159 -0.7536
11034SOL    HW233916   6.598   2.650   3.374  0.8533  0.2865  0.1906
11035SOL     OW33917   3.212   3.141   7.156  0.1830  0.5132  0.2815
11035SOL    HW133918   3.208   3.126   7.250 -1.3485  0.9511  0.2919
11035SOL    HW233919   3.208   3.236   7.145 -1.5238  0.4019 -0.2871
11036SOL     OW33920   3.977   5.494   7.868 -0.0967 -0.4356  0.3152
11036SOL    HW133921   3.966   5.518   7.960  3.0365  0.7809  0.4106
11036SOL    HW233922   3.919   5.553   7.820  0.8835  1.2868  1.2406
11037SOL     OW33923   6.794   4.012   6.862  0.9843 -0.7030 -0.1046
11037SOL    HW133924   6.818   3.920   6.844 -1.0224 -1.3660  0.5057
11037SOL    HW233925   6.823   4.026   6.952  2.2196 -0.3969 -0.5340
11038SOL     OW33926   4.513   4.601   5.689  0.1565 -0.5574  0.1000
11038SOL    HW133927   4.533   4.687   5.726 -0.6052 -0.5581  0.5228
11038SOL    HW233928   4.531   4.540   5.760 -0.0456 -0.6770  0.0505
11039SOL     OW33929   3.073   0.198   3.928  0.1981  0.2149 -0.4964
11039SOL    HW133930   3.094   0.244   4.009  0.9636 -0.6368 -0.1935
11039SOL    HW233931   2.992   0.238   3.898  0.0591  0.7390  0.5387
11040SOL     OW33932   0.268   6.251   0.967 -0.0660  0.3037 -0.5513
11040SOL    HW133933   0.196   6.310   0.945  0.0623  0.4820 -0.5010
11040SOL    HW233934   0.231   6.163   0.960 -0.4740  0.4153  0.1588
11041SOL     OW33935   3.566   0.016   2.876  0.1970  0.0900 -0.5768
11041SOL    HW133936   3.524   0.094   2.912 -0.0246 -0.3535  0.1369
11041SOL    HW233937   3.657   0.042   2.864  0.5184 -0.0769  1.3248
11042SOL     OW33938   2.526   2.982   5.435 -0.2886  0.3577  0.1771
11042SOL    HW133939   2.607   2.962   5.480 -0.0518  0.0367 -0.3825
11042SOL    HW233940   2.546   3.058   5.380 -0.1310 -0.2221 -0.5832
11043SOL     OW33941   1.368   2.768   5.894 -0.3650 -0.0249  0.1304
11043SOL    HW133942   1.381   2.852   5.851  1.5197  0.5850  1.8025
11043SOL    HW233943   1.381   2.703   5.825 -1.2619  1.0329 -1.0483
11044SOL     OW33944   4.110   7.918   3.224  0.7781 -0.4311 -0.0421
11044SOL    HW133945   4.017   7.940   3.226  0.9553  0.3088  3.6706
11044SOL    HW233946   4.148   7.980   3.161 -0.9544  0.5423 -0.1675
11045SOL     OW33947   6.370   4.205   6.807 -0.5066 -0.6663 -0.2946
11045SOL    HW133948   6.345   4.290   6.842 -1.2574 -0.4478 -1.3411
11045SOL    HW233949   6.461   4.215   6.782 -0.3360 -0.4395  0.4181
11046SOL     OW33950   5.052   4.839   4.051  0.3021 -0.4765  0.2029
11046SOL    HW133951   4.991   4.814   4.120 -0.5378  0.3844 -0.2229
11046SOL    HW233952   4.996   4.862   3.977  1.1515  0.3331 -0.1883
11047SOL     OW33953   2.277   4.855   0.331 -0.2312  0.1393 -0.7506
11047SOL    HW133954   2.205   4.846   0.268 -0.1145  1.2256 -1.0368
11047SOL    HW233955   2.334   4.780   0.313 -0.3231  0.3110 -1.7794
11048SOL     OW33956   3.063   4.641   1.731 -0.4741 -1.0332  0.5815
11048SOL    HW133957   3.148   4.637   1.775 -0.6263 -1.6860  0.8299
11048SOL    HW233958   3.073   4.709   1.665  0.9897 -2.7502 -1.0078
11049SOL     OW33959   0.433   7.448   6.340  0.2906 -0.6669 -0.1175
11049SOL    HW133960   0.389   7.382   6.287 -0.6252 -1.6607  1.8587
11049SOL    HW233961   0.395   7.439   6.427  0.5881  2.0450  0.3530
11050SOL     OW33962   3.772   1.686   3.186  0.2970  0.3354 -0.0333
11050SOL    HW133963   3.851   1.731   3.155 -0.1175  0.6781 -0.6305
11050SOL    HW233964   3.723   1.754   3.233  0.1011  0.2796 -0.1522
11051SOL     OW33965   0.160   1.550   3.720 -0.5252  0.2490 -0.3465
11051SOL    HW133966   0.142   1.639   3.750  0.6002  0.4090 -0.1281
11051SOL    HW233967   0.134   1.494   3.793 -0.0954  0.4816 -0.0127
11052SOL     OW33968   7.866   6.455   7.053 -0.3884  0.3453 -0.1398
11052SOL    HW133969   7.940   6.513   7.073 -0.1912  0.0802 -0.1017
11052SOL    HW233970   7.884   6.425   6.963 -0.3267  0.0960 -0.0449
11053SOL     OW33971   6.493   6.223   6.099  0.0632  0.3631 -0.3325
11053SOL    HW133972   6.448   6.297   6.140  0.4909  0.5483 -0.1984
11053SOL    HW233973   6.466   6.227   6.007 -1.3854 -0.4191  0.0428
11054SOL     OW33974   4.827   7.160   6.936 -0.0760  0.5369 -0.3034
11054SOL    HW133975   4.753   7.154   6.997  0.4019  2.1099  0.4283
11054SOL    HW233976   4.899   7.116   6.982 -0.7682 -1.8374 -1.3986
11055SOL     OW33977   4.986   5.414   3.292  0.9252  0.3318  0.3047
11055SOL    HW133978   4.945   5.487   3.246  1.3403 -0.3188 -1.1403
11055SOL    HW233979   4.924   5.342   3.284  1.3297 -0.0014  0.0992
11056SOL     OW33980   1.576   7.092   6.192  0.0358 -0.4214 -0.2112
11056SOL    HW133981   1.651   7.132   6.236  0.8382 -1.8168 -0.2815
11056SOL    HW233982   1.500   7.131   6.236  0.7924  0.6839  0.1533
11057SOL     OW33983   7.821   3.084   1.095 -0.0413  0.3191 -0.4428
11057SOL    HW133984   7.876   3.091   1.017 -1.3737 -3.4073 -1.8120
11057SOL    HW233985   7.732   3.085   1.061 -0.6222 -1.7777  0.9823
11058SOL     OW33986   5.318   7.550   7.183 -0.1371  0.2754 -0.0700
11058SOL    HW133987   5.327   7.511   7.270 -2.3332 -0.0830  0.0366
11058SOL    HW233988   5.327   7.644   7.198  0.0404  0.1746  0.4679
11059SOL     OW33989   7.318   2.883   3.207 -0.7249 -0.0818  0.4456
11059SOL    HW133990   7.377   2.949   3.242 -0.6269 -0.8993  1.8410
11059SOL    HW233991   7.269   2.929   3.138  0.4727  0.9913  0.2999
11060SOL     OW33992   2.195   0.156   3.585  0.6482  0.0453  0.4288
11060SOL    HW133993   2.208   0.075   3.634  1.0081  0.0583  0.3607
11060SOL    HW233994   2.203   0.131   3.493  0.2375  0.0678  0.3860
11061SOL     OW33995   1.833   4.637   0.941 -0.4967  0.5196  0.3114
11061SOL    HW133996   1.869   4.602   1.023 -1.1280 -0.2307  0.2727
11061SOL    HW233997   1.796   4.722   0.965 -1.0611  0.1118  0.8939
11062SOL     OW33998   0.208   4.394   2.043  0.1115  0.1013  0.1645
11062SOL    HW133999   0.146   4.327   2.013 -1.5958  1.3401  0.8934
11062SOL    HW234000   0.261   4.349   2.109 -0.5648 -0.7320  0.1570
11063SOL     OW34001   4.574   5.805   1.348  0.2001  0.1740 -0.2195
11063SOL    HW134002   4.560   5.840   1.259 -2.3149 -0.3760 -0.0681
11063SOL    HW234003   4.668   5.789   1.352  1.2715  5.3406 -0.8794
11064SOL     OW34004   5.730   5.009   1.182 -0.5662 -0.0832 -0.1012
11064SOL    HW134005   5.795   5.045   1.123 -0.5867  0.8204  0.4233
11064SOL    HW234006   5.779   4.987   1.262 -0.7791 -0.0588  0.0375
11065SOL     OW34007   0.656   0.219   5.142  0.2480 -0.3541  0.6171
11065SOL    HW134008   0.732   0.244   5.194 -1.2353  3.2270  1.2538
11065SOL    HW234009   0.581   0.233   5.200 -1.0093 -2.6642 -0.3882
11066SOL     OW34010   7.960   1.736   3.887  0.4914 -0.0504  0.1252
11066SOL    HW134011   8.028   1.801   3.870  1.2886 -0.7522  0.5954
11066SOL    HW234012   7.900   1.780   3.948  0.3770  0.6620 -0.4957
11067SOL     OW34013   6.072   5.339   3.606 -0.1078  0.0374  0.3620
11067SOL    HW134014   6.043   5.319   3.695  3.5737 -1.1626  1.4051
11067SOL    HW234015   6.080   5.253   3.564 -0.4324  0.5035 -0.6617
11068SOL     OW34016   5.236   6.482   6.616  0.0557  0.8335  0.6123
11068SOL    HW134017   5.275   6.402   6.651  1.9929  1.7671  0.6599
11068SOL    HW234018   5.204   6.457   6.529  0.6622  0.0121  0.6206
11069SOL     OW34019   3.969   2.863   4.850 -0.0408  0.0986  0.0066
11069SOL    HW134020   3.885   2.819   4.857  0.1797 -0.1608  1.1067
11069SOL    HW234021   4.007   2.830   4.769 -0.6225 -0.4355 -0.0493
11070SOL     OW34022   1.031   3.533   7.017 -0.1691 -0.7885  0.2126
11070SOL    HW134023   1.004   3.624   7.028 -0.7653 -0.7810 -1.1483
11070SOL    HW234024   1.079   3.512   7.097  1.7753  1.3632 -0.3451
11071SOL     OW34025   3.096   2.033   7.098 -0.1025  0.4634 -0.0035
11071SOL    HW134026   3.160   2.004   7.162 -0.9333 -1.1248  0.1334
11071SOL    HW234027   3.093   2.128   7.108 -0.8275  0.1819  2.9051
11072SOL     OW34028   6.358   0.781   3.614  0.4857 -0.2409  0.1676
11072SOL    HW134029   6.445   0.762   3.578  0.6085 -1.3668  1.0464
11072SOL    HW234030   6.375   0.810   3.704 -0.0319 -0.1161  0.2244
11073SOL     OW34031   0.717   6.175   4.472  0.4439  0.1522 -0.0420
11073SOL    HW134032   0.721   6.124   4.553  0.4876 -0.6421 -0.5415
11073SOL    HW234033   0.767   6.254   4.492 -0.5431  0.5060  1.0921
11074SOL     OW34034   1.450   4.584   6.454  0.0657  0.0697  0.1603
11074SOL    HW134035   1.530   4.535   6.476  1.0784  1.7018  0.2392
11074SOL    HW234036   1.413   4.609   6.538 -0.2811 -0.2862  0.1151
11075SOL     OW34037   6.071   7.975   0.247  0.5746 -0.6027  0.3460
11075SOL    HW134038   6.041   7.884   0.252 -0.0637 -0.3233  1.8774
11075SOL    HW234039   5.997   8.022   0.208  0.0418 -0.3766  1.6040
11076SOL     OW34040   6.179   3.708   3.835 -0.2026 -1.0776  0.6299
11076SOL    HW134041   6.222   3.792   3.818  2.0532 -2.2320  0.4285
11076SOL    HW234042   6.087   3.723   3.812  0.4786  0.8617 -0.9649
11077SOL     OW34043   2.813   4.833   0.787 -0.3147  0.2988  0.1688
11077SOL    HW134044   2.753   4.802   0.854  0.2332  0.6273  0.8196
11077SOL    HW234045   2.779   4.797   0.705 -1.2552  0.2853  0.5613
11078SOL     OW34046   4.364   6.133   4.269 -0.2837 -0.1351 -0.1265
11078SOL    HW134047   4.383   6.131   4.363 -0.8342  0.2683 -0.0028
11078SOL    HW234048   4.269   6.121   4.264 -0.3895  0.8390 -0.5720
11079SOL     OW34049   6.247   3.630   0.813 -0.1384  0.0969  0.4974
11079SOL    HW134050   6.158   3.665   0.812 -0.8460 -1.4824 -3.1507
11079SOL    HW234051   6.301   3.702   0.782 -0.3668  0.6293  1.3381
11080SOL     OW34052   4.975   3.617   4.776  0.6212  0.4346 -0.2093
11080SOL    HW134053   4.900   3.676   4.784  0.0381 -0.2095 -0.8641
11080SOL    HW234054   5.047   3.664   4.819 -0.3626  0.6589  1.2257
11081SOL     OW34055   5.151   0.084   1.111  0.0065 -0.0093  0.9420
11081SOL    HW134056   5.157   0.142   1.188  0.7599  0.0690  0.8217
11081SOL    HW234057   5.241   0.061   1.091 -0.1373  0.5779 -0.3860
11082SOL     OW34058   6.498   3.902   5.426 -0.2000  0.2397  0.0813
11082SOL    HW134059   6.440   3.973   5.399 -0.7747 -0.1062  0.3894
11082SOL    HW234060   6.472   3.827   5.372  1.0348  0.5118 -0.9120
11083SOL     OW34061   5.327   4.917   0.650  0.5715  0.3285 -0.0523
11083SOL    HW134062   5.364   4.849   0.706 -1.2211 -0.0408  0.6976
11083SOL    HW234063   5.233   4.911   0.664  0.1557  0.7717 -2.4954
11084SOL     OW34064   4.093   5.982   0.871 -0.6069 -0.4265 -0.1085
11084SOL    HW134065   4.150   5.944   0.804  1.5387  2.2214  0.1634
11084SOL    HW234066   4.042   6.048   0.824 -0.9548 -0.3541  0.3685
11085SOL     OW34067   5.659   0.460   6.230 -0.1810  0.3035 -0.4728
11085SOL    HW134068   5.753   0.453   6.247 -0.1470  0.8642 -0.4229
11085SOL    HW234069   5.636   0.548   6.259 -1.1446 -0.5726  1.5619
11086SOL     OW34070   4.058   0.529   1.365 -0.5147  0.8552 -0.1093
11086SOL    HW134071   3.968   0.516   1.335 -0.4692 -2.9589  1.1440
11086SOL    HW234072   4.050   0.552   1.458 -0.1772 -0.0558  0.1481
11087SOL     OW34073   1.377   6.940   5.390 -0.6271 -0.3422 -0.2440
11087SOL    HW134074   1.301   6.998   5.387 -0.8922 -0.6920 -0.3462
11087SOL    HW234075   1.452   6.999   5.383 -0.8924 -0.0079 -0.2998
11088SOL     OW34076   1.292   3.331   1.076  0.8011 -0.1864  0.0194
11088SOL    HW134077   1.313   3.250   1.123  2.0666 -1.0846 -2.0001
11088SOL    HW234078   1.232   3.304   1.007 -0.1239  0.9125  0.3771
11089SOL     OW34079   0.709   7.183   6.589  0.4832  0.3676  0.2677
11089SOL    HW134080   0.707   7.099   6.544  0.5862  0.6018 -0.1779
11089SOL    HW234081   0.618   7.213   6.589  0.6187  0.7766 -0.5602
11090SOL     OW34082   2.293   7.774   3.039 -0.1556 -0.8712 -0.2602
11090SOL    HW134083   2.250   7.766   3.124 -0.5893  0.9118 -0.2855
11090SOL    HW234084   2.371   7.720   3.047  0.7643  0.6893  1.9301
11091SOL     OW34085   1.584   7.408   5.047  0.0126  0.1756 -0.1275
11091SOL    HW134086   1.510   7.446   5.000  0.0646  0.2154 -0.1776
11091SOL    HW234087   1.546   7.338   5.100  0.0523 -0.3328 -0.7642
11092SOL     OW34088   0.633   5.163   5.129  0.1715  0.2832 -0.1828
11092SOL    HW134089   0.569   5.102   5.091  0.4980 -0.1942  0.0217
11092SOL    HW234090   0.585   5.209   5.198  0.1114 -0.2451  0.1308
11093SOL     OW34091   5.859   0.979   0.845  0.3589  0.0653 -0.0591
11093SOL    HW134092   5.768   1.002   0.866  0.4880  0.3225  0.2271
11093SOL    HW234093   5.909   1.058   0.865  0.3208  0.7875 -2.6590
11094SOL     OW34094   2.032   4.647   4.494  0.0184 -0.2998  0.6314
11094SOL    HW134095   2.005   4.646   4.586 -0.4763  1.3352  0.5177
11094SOL    HW234096   2.016   4.558   4.464 -1.5840 -0.3700  1.6280
11095SOL     OW34097   3.890   0.213   2.438 -0.2362 -0.2896  0.5190
11095SOL    HW134098   3.909   0.302   2.470  1.0513 -1.1574  2.2065
11095SOL    HW234099   3.921   0.213   2.347  0.9941  0.5885  0.9255
11096SOL     OW34100   4.330   5.681   3.303 -0.0152 -0.1075 -0.0460
11096SOL    HW134101   4.306   5.747   3.367  0.8534  0.3234 -0.1684
11096SOL    HW234102   4.404   5.634   3.342  2.6700  2.2850 -2.0926
11097SOL     OW34103   5.273   3.803   1.210  0.0637  0.1665 -0.1364
11097SOL    HW134104   5.209   3.874   1.203  0.6692  0.8837  1.5148
11097SOL    HW234105   5.223   3.728   1.242 -0.2985  0.2016 -0.6003
11098SOL     OW34106   2.996   5.618   4.744  0.0403 -0.0332  0.4536
11098SOL    HW134107   2.964   5.634   4.656  1.3364 -1.9111 -0.3892
11098SOL    HW234108   2.945   5.678   4.799 -4.1884 -2.1678 -0.9137
11099SOL     OW34109   4.517   6.741   4.064  0.4078 -0.1688  0.0965
11099SOL    HW134110   4.571   6.662   4.053  1.7816  0.7014  0.3807
11099SOL    HW234111   4.510   6.776   3.975 -0.1061 -0.5468 -0.0130
11100SOL     OW34112   7.462   4.038   5.157 -0.2362 -0.4389  0.2752
11100SOL    HW134113   7.404   4.024   5.232 -0.1569  0.0276  0.4288
11100SOL    HW234114   7.485   4.131   5.162  2.2043 -1.0453  1.4301
11101SOL     OW34115   7.656   3.559   5.861  0.6034  0.5227 -1.5773
11101SOL    HW134116   7.695   3.631   5.811 -0.0718  2.1835  0.1826
11101SOL    HW234117   7.612   3.603   5.934  1.2702 -1.7750  0.2636
11102SOL     OW34118   1.947   3.736   4.588 -0.2736  0.0297  0.4185
11102SOL    HW134119   1.909   3.706   4.505 -1.3659 -0.4917  1.0965
11102SOL    HW234120   1.909   3.678   4.654  1.2684 -0.1168  1.1854
11103SOL     OW34121   4.965   7.686   0.820 -0.1166 -0.1872  0.4604
11103SOL    HW134122   4.923   7.714   0.739  1.7102  3.7294  0.7389
11103SOL    HW234123   4.921   7.737   0.888 -0.3060 -1.9826  1.6968
11104SOL     OW34124   5.845   4.199   3.534  0.1245  1.1208 -0.4846
11104SOL    HW134125   5.864   4.269   3.596 -2.2483 -0.2697  1.9263
11104SOL    HW234126   5.763   4.225   3.493  0.5018  0.9099 -1.3931
11105SOL     OW34127   7.393   5.797   3.123  0.2085  0.3494 -0.3329
11105SOL    HW134128   7.466   5.774   3.066 -0.6936 -0.7042 -1.0720
11105SOL    HW234129   7.325   5.734   3.101 -1.3636  2.0806 -0.5284
11106SOL     OW34130   2.342   5.559   4.643  0.0347  0.0469 -0.1312
11106SOL    HW134131   2.277   5.500   4.681  1.3601 -1.5084 -0.2117
11106SOL    HW234132   2.426   5.522   4.671  0.8850  2.0855  0.0612
11107SOL     OW34133   5.583   0.316   2.267 -0.4985 -0.1400  0.0289
11107SOL    HW134134   5.676   0.312   2.286 -0.1555 -0.8573 -1.7476
11107SOL    HW234135   5.540   0.310   2.353  0.9949 -2.9877  0.6267
11108SOL     OW34136   6.236   4.991   0.244  0.0408 -0.2668 -0.5308
11108SOL    HW134137   6.180   5.060   0.208  1.3180  1.4283  0.6467
11108SOL    HW234138   6.178   4.915   0.252 -1.6108  0.9111 -1.0403
11109SOL     OW34139   4.664   1.229   2.665 -0.3023 -0.0363 -0.6978
11109SOL    HW134140   4.569   1.218   2.664 -1.1042  5.2760  0.6703
11109SOL    HW234141   4.690   1.221   2.573 -1.7683 -2.9763 -0.9255
11110SOL     OW34142   1.712   6.787   7.214 -0.0463 -0.7676  0.3645
11110SOL    HW134143   1.802   6.820   7.206 -0.2274 -0.3967 -0.1964
11110SOL    HW234144   1.701   6.730   7.138 -0.4767 -0.3425  0.0991
11111SOL     OW34145   3.206   3.842   7.687 -0.7035  0.3804  0.1023
11111SOL    HW134146   3.248   3.814   7.605  0.7986  0.8588  0.6906
11111SOL    HW234147   3.172   3.761   7.725 -0.9582  0.0804 -0.7521
11112SOL     OW34148   7.550   7.353   1.032 -0.3555 -0.0891 -0.5563
11112SOL    HW134149   7.528   7.285   0.969 -1.8018 -0.2392  0.1008
11112SOL    HW234150   7.467   7.380   1.069  0.3694  0.8042  0.4603
11113SOL     OW34151   0.203   5.984   3.693  0.7480 -0.1210  0.0694
11113SOL    HW134152   0.226   5.971   3.785 -1.0928 -0.8284  0.4640
11113SOL    HW234153   0.204   5.896   3.655 -0.5980 -0.1032 -0.0453
11114SOL     OW34154   3.400   2.250   7.391  0.2833 -0.3756  0.4733
11114SOL    HW134155   3.364   2.311   7.456 -0.1835  0.9135 -0.9755
11114SOL    HW234156   3.362   2.165   7.415 -1.7394  0.5113  0.4758
11115SOL     OW34157   6.912   0.223   7.018 -0.2317  0.1659 -0.5996
11115SOL    HW134158   7.005   0.204   7.017 -0.3205 -0.2972 -0.2774
11115SOL    HW234159   6.905   0.313   6.985  0.1838 -0.3999 -2.2397
11116SOL     OW34160   3.583   2.466   2.138  0.2041 -0.2668 -0.3530
11116SOL    HW134161   3.652   2.532   2.138  0.4733 -0.5272  1.1429
11116SOL    HW234162   3.626   2.386   2.108  0.1969 -0.0928 -0.8382
11117SOL     OW34163   3.309   7.172   2.939  0.2346 -0.1614  0.0596
11117SOL    HW134164   3.377   7.107   2.956 -1.1446 -2.2345 -1.8587
11117SOL    HW234165   3.323   7.198   2.848 -0.1760  1.0768  0.3395
11118SOL     OW34166   0.600   3.735   3.879 -0.0101 -0.1941  0.4047
11118SOL    HW134167   0.561   3.706   3.797  1.9007  0.2737 -0.6978
11118SOL    HW234168   0.552   3.815   3.902  1.2375  1.1846 -1.6916
11119SOL     OW34169   6.480   0.779   4.792 -0.2676 -0.5117  0.4299
11119SOL    HW134170   6.492   0.815   4.704 -0.2441 -2.5096 -0.4143
11119SOL    HW234171   6.385   0.767   4.800 -0.2198 -0.9078  0.4235
11120SOL     OW34172   0.652   5.335   4.351 -0.2987 -0.0439 -0.1945
11120SOL    HW134173   0.589   5.392   4.396  0.0601 -0.3996  0.7849
11120SOL    HW234174   0.712   5.308   4.420 -0.3756 -1.4926 -0.6809
11121SOL     OW34175   6.469   5.176   0.207 -0.4491  0.1196 -1.4215
11121SOL    HW134176   6.421   5.258   0.220  0.6927  0.5332  0.3865
11121SOL    HW234177   6.410   5.108   0.238 -0.7285  0.4105 -1.3154
11122SOL     OW34178   7.344   3.047   5.836  0.4406  0.4070  0.4900
11122SOL    HW134179   7.343   2.957   5.804  0.9710 -0.4506  2.7592
11122SOL    HW234180   7.336   3.038   5.931  0.5252  2.7683  0.7446
11123SOL     OW34181   3.247   5.450   5.636 -0.4737  0.1033 -0.6888
11123SOL    HW134182   3.165   5.480   5.676 -0.2028 -0.2852  0.1765
11123SOL    HW234183   3.314   5.510   5.670  0.0759 -1.4539  1.0739
11124SOL     OW34184   3.696   5.194   5.997  0.4683  0.2258  0.0047
11124SOL    HW134185   3.609   5.181   5.960  0.5278  1.2730 -0.5095
11124SOL    HW234186   3.731   5.105   6.007 -0.7371 -0.2111  0.4283
11125SOL     OW34187   2.703   0.741   2.503  0.7341 -0.2494 -0.5595
11125SOL    HW134188   2.621   0.713   2.543  1.3353 -2.1998 -0.6209
11125SOL    HW234189   2.730   0.818   2.554 -0.8078  0.0297 -0.1558
11126SOL     OW34190   1.467   4.528   2.538 -0.6697  1.0902 -0.0491
11126SOL    HW134191   1.503   4.451   2.495 -0.3126  1.8169 -1.0942
11126SOL    HW234192   1.374   4.509   2.548 -0.7093  0.7890 -0.9128
11127SOL     OW34193   3.535   0.773   6.899  0.0512 -0.2214 -0.0782
11127SOL    HW134194   3.447   0.736   6.898 -0.5902  0.8482  3.9426
11127SOL    HW234195   3.593   0.698   6.909 -0.7625 -0.6613  1.5111
11128SOL     OW34196   0.456   7.259   6.943  0.2106  0.1333 -0.1234
11128SOL    HW134197   0.451   7.268   7.038  1.7083 -0.8992  0.0809
11128SOL    HW234198   0.550   7.254   6.925 -0.1315 -1.8536 -1.4470
11129SOL     OW34199   7.141   6.944   0.318  0.2201  0.0337 -0.2830
11129SOL    HW134200   7.155   6.888   0.394  0.5320 -1.8026 -1.6721
11129SOL    HW234201   7.228   6.957   0.280 -0.2670 -1.5591 -2.0409
11130SOL     OW34202   4.031   6.386   0.698  0.4280  0.3104  0.6081
11130SOL    HW134203   4.016   6.459   0.758 -0.1100 -0.4341  1.3774
11130SOL    HW234204   4.125   6.390   0.680  0.7021  0.1561  1.9885
11131SOL     OW34205   5.928   2.865   1.366 -0.1009 -0.6278 -0.5481
11131SOL    HW134206   5.912   2.910   1.284 -2.7216  1.6255  1.0889
11131SOL    HW234207   5.986   2.924   1.415  1.8321 -2.1743 -0.9445
11132SOL     OW34208   1.199   2.514   1.894  0.6357  0.0432 -0.4313
11132SOL    HW134209   1.204   2.461   1.815  1.6166  1.0928 -1.0689
11132SOL    HW234210   1.168   2.599   1.864  1.4522  0.5833  0.2469
11133SOL     OW34211   1.279   1.125   3.099 -0.3837 -0.5503 -0.3457
11133SOL    HW134212   1.195   1.137   3.053 -0.4667 -0.9661 -0.3099
11133SOL    HW234213   1.305   1.036   3.077  0.6785 -0.0000 -1.3741
11134SOL     OW34214   7.944   5.862   1.015  0.1153 -0.4211 -0.2709
11134SOL    HW134215   7.863   5.847   1.063 -1.0076 -0.3258 -2.0908
11134SOL    HW234216   7.916   5.883   0.926  2.1117  0.5102 -0.7092
11135SOL     OW34217   7.728   6.999   7.926 -0.4040 -0.1515 -0.0887
11135SOL    HW134218   7.732   6.903   7.923  0.1729 -0.1168 -1.0240
11135SOL    HW234219   7.642   7.021   7.890  1.3408 -0.2050 -4.6634
11136SOL     OW34220   7.502   2.627   7.269  0.4425  0.4941  0.0837
11136SOL    HW134221   7.412   2.595   7.266  0.8974 -1.1840  3.2210
11136SOL    HW234222   7.549   2.575   7.204 -0.1898 -0.8065  0.6684
11137SOL     OW34223   6.080   4.388   2.454 -0.2404 -0.0437 -0.7067
11137SOL    HW134224   6.025   4.322   2.411  0.7495 -1.5558  0.2933
11137SOL    HW234225   6.029   4.416   2.530  1.3782 -3.3762  1.7350
11138SOL     OW34226   7.307   3.394   1.288 -0.3827  0.0052 -0.1888
11138SOL    HW134227   7.261   3.393   1.204  0.5221 -1.3189 -0.6929
11138SOL    HW234228   7.399   3.379   1.265 -0.2706 -1.4797  1.1155
11139SOL     OW34229   1.455   7.957   0.297 -0.2827 -0.1576 -0.1900
11139SOL    HW134230   1.414   8.030   0.251  1.5446  1.8738  1.2439
11139SOL    HW234231   1.388   7.926   0.358 -0.4448  1.6775  0.6053
11140SOL     OW34232   6.320   2.602   1.684 -0.1429  0.7836  0.4504
11140SOL    HW134233   6.255   2.666   1.713 -1.6208 -0.5865  0.2383
11140SOL    HW234234   6.298   2.585   1.593 -0.1469 -0.4557  0.6684
11141SOL     OW34235   3.394   2.933   7.114  0.1267 -0.0568  0.0216
11141SOL    HW134236   3.479   2.942   7.155 -1.0152 -1.2350  2.7328
11141SOL    HW234237   3.338   2.996   7.161 -1.0522 -0.9994 -0.0782
11142SOL     OW34238   2.450   0.646   0.241 -0.5134 -0.5798 -0.2060
11142SOL    HW134239   2.481   0.692   0.163 -1.5415  0.3913 -0.0646
11142SOL    HW234240   2.425   0.559   0.210  0.8538 -0.8291 -0.6007
11143SOL     OW34241   0.268   0.814   3.599 -0.3538  0.0336 -0.2114
11143SOL    HW134242   0.185   0.820   3.646 -0.6591  1.1316 -0.8835
11143SOL    HW234243   0.335   0.817   3.668 -0.8664 -1.0065  0.3370
11144SOL     OW34244   2.457   0.455   3.080  0.0262 -0.1834  0.1551
11144SOL    HW134245   2.486   0.536   3.122  0.0898 -0.7700  1.2726
11144SOL    HW234246   2.467   0.388   3.148  0.5671 -1.2399 -0.9372
11145SOL     OW34247   3.695   0.793   6.272 -0.0086  0.0435 -0.4200
11145SOL    HW134248   3.783   0.756   6.267 -0.4716 -1.0618 -0.7150
11145SOL    HW234249   3.638   0.724   6.237 -0.9902  0.7430 -0.2379
11146SOL     OW34250   4.470   6.629   3.400  0.0647 -0.0457 -0.0448
11146SOL    HW134251   4.462   6.724   3.413 -1.5211 -0.1256 -0.3399
11146SOL    HW234252   4.480   6.593   3.488  1.0000  0.4334  0.0397
11147SOL     OW34253   3.716   0.714   7.154  0.9124  0.0283 -0.0309
11147SOL    HW134254   3.778   0.784   7.134 -0.3260  1.2780  0.4640
11147SOL    HW234255   3.725   0.652   7.082  0.4143  1.7799 -1.6163
11148SOL     OW34256   3.046   7.006   6.448  0.1552  0.3795  0.3182
11148SOL    HW134257   3.043   6.979   6.540  1.4387  0.0627  0.2759
11148SOL    HW234258   3.120   6.958   6.411 -1.0988 -0.4309 -1.1925
11149SOL     OW34259   7.070   1.541   5.747  0.0101 -0.1850 -0.3083
11149SOL    HW134260   7.141   1.568   5.806 -0.1438  0.3432 -0.3641
11149SOL    HW234261   7.006   1.611   5.754 -1.2761 -1.4448  1.0168
11150SOL     OW34262   0.115   5.033   1.692 -0.1279  0.1215  0.8231
11150SOL    HW134263   0.047   5.083   1.738 -0.8170 -0.3062  0.2894
11150SOL    HW234264   0.126   4.953   1.743 -1.3146 -0.6214 -0.0614
11151SOL     OW34265   4.868   3.070   2.861 -0.1574 -0.2625 -0.6542
11151SOL    HW134266   4.887   3.003   2.796 -1.0320 -1.1844  0.0292
11151SOL    HW234267   4.908   3.038   2.942  2.4882  1.7198 -1.0847
11152SOL     OW34268   5.886   6.843   1.130  0.5257  0.0742  0.1501
11152SOL    HW134269   5.844   6.925   1.155 -0.5088 -0.4003 -0.0166
11152SOL    HW234270   5.978   6.867   1.114 -0.1837  1.6174 -1.9243
11153SOL     OW34271   7.139   2.557   0.670 -0.0402  0.1254  0.4070
11153SOL    HW134272   7.059   2.547   0.617  0.0167  0.6167  0.2319
11153SOL    HW234273   7.193   2.482   0.644  0.6862  1.2593 -1.4666
11154SOL     OW34274   5.295   7.184   2.414 -0.1965  0.4130  0.4204
11154SOL    HW134275   5.338   7.269   2.402 -0.1577  0.2355 -0.7710
11154SOL    HW234276   5.209   7.205   2.449  0.3350  0.8515  1.5075
11155SOL     OW34277   1.783   6.937   2.919 -0.0867 -1.0211  0.5709
11155SOL    HW134278   1.745   6.987   2.992 -2.3211 -2.1294  0.2043
11155SOL    HW234279   1.763   6.989   2.841  0.2048 -1.0027  0.5095
11156SOL     OW34280   4.145   1.185   6.549  0.5646  0.4849 -0.0885
11156SOL    HW134281   4.202   1.261   6.539  0.1208  0.7847 -0.3433
11156SOL    HW234282   4.060   1.222   6.571 -0.0062  0.1369 -1.6513
11157SOL     OW34283   0.114   2.136   5.328 -0.0177 -0.0493  0.4462
11157SOL    HW134284   0.082   2.121   5.417  0.4875  0.2176  0.6722
11157SOL    HW234285   0.107   2.050   5.286 -0.5012 -0.1172  0.6654
11158SOL     OW34286   4.417   5.917   7.164 -0.7824 -0.1489  0.1993
11158SOL    HW134287   4.478   5.976   7.117 -1.8033 -1.0657 -2.3784
11158SOL    HW234288   4.474   5.854   7.207  0.1770 -0.2388 -1.1422
11159SOL     OW34289   2.949   4.438   5.713  0.2986 -0.0366  0.0196
11159SOL    HW134290   2.907   4.417   5.796  0.8860 -0.6663  0.1549
11159SOL    HW234291   3.039   4.459   5.736 -0.1166  2.1251 -0.1694
11160SOL     OW34292   3.503   6.619   0.709 -0.1841 -0.7902 -0.3916
11160SOL    HW134293   3.461   6.579   0.633 -0.9532 -1.0623  0.1807
11160SOL    HW234294   3.596   6.601   0.697 -0.0822  0.6904 -2.1964
11161SOL     OW34295   6.787   0.633   4.243  0.0584  0.0051 -0.2620
11161SOL    HW134296   6.855   0.604   4.303 -0.7943  0.9265  1.1858
11161SOL    HW234297   6.834   0.676   4.171  1.0364 -0.3853  0.1407
11162SOL     OW34298   7.700   5.863   1.144  0.0463 -0.3046 -0.0078
11162SOL    HW134299   7.677   5.788   1.200  0.3141  0.6845  1.4530
11162SOL    HW234300   7.615   5.903   1.122  0.0068  0.0038  0.6873
11163SOL     OW34301   4.466   2.540   3.640 -0.7256  0.4330 -0.3249
11163SOL    HW134302   4.388   2.484   3.636 -0.3259 -0.1688  0.2747
11163SOL    HW234303   4.441   2.619   3.592 -1.6681  0.1955 -0.2324
11164SOL     OW34304   4.803   1.257   2.929 -0.4186  0.3480 -0.1405
11164SOL    HW134305   4.770   1.236   2.842  0.4391 -2.3404  0.1266
11164SOL    HW234306   4.729   1.241   2.988  0.1287 -1.8533  0.0227
11165SOL     OW34307   4.655   6.521   7.692  0.5664  0.3054  0.2150
11165SOL    HW134308   4.648   6.426   7.702  1.0236  0.4264  1.8692
11165SOL    HW234309   4.582   6.556   7.743 -1.5316  0.7768 -2.9750
11166SOL     OW34310   1.727   0.481   6.361 -0.0274  0.2618  0.4466
11166SOL    HW134311   1.810   0.433   6.360 -0.5847 -0.6843  0.1402
11166SOL    HW234312   1.721   0.515   6.450  0.2241 -0.4622  0.7427
11167SOL     OW34313   2.442   6.299   2.813  0.1604 -0.4334  0.9446
11167SOL    HW134314   2.424   6.291   2.720  1.1662 -0.2028  0.7334
11167SOL    HW234315   2.481   6.386   2.823  3.1835 -1.7374  1.0815
11168SOL     OW34316   2.206   7.477   3.242  0.2288 -0.0608  0.4080
11168SOL    HW134317   2.156   7.550   3.278  0.8160  0.4362  0.2177
11168SOL    HW234318   2.294   7.513   3.226  0.0177 -0.3108 -1.4168
11169SOL     OW34319   4.443   1.750   4.786 -0.3359  0.2312  0.5561
11169SOL    HW134320   4.418   1.791   4.703  0.1776 -1.3925 -0.4238
11169SOL    HW234321   4.518   1.801   4.817 -1.2265  1.5390  0.5985
11170SOL     OW34322   0.513   7.013   1.936  0.9908  0.4478  0.1561
11170SOL    HW134323   0.582   6.972   1.883  0.4163 -0.3872  0.0516
11170SOL    HW234324   0.529   6.980   2.025  0.3651 -0.2125  0.0233
11171SOL     OW34325   1.504   3.022   5.114 -0.3132 -0.0876 -0.3915
11171SOL    HW134326   1.530   3.067   5.194  0.1141 -0.0534 -0.5506
11171SOL    HW234327   1.430   3.073   5.081 -1.9037 -1.3386  1.1334
11172SOL     OW34328   3.498   3.336   0.183 -0.1287  0.0254 -0.3033
11172SOL    HW134329   3.518   3.242   0.182 -1.4265 -0.2467 -1.3827
11172SOL    HW234330   3.498   3.361   0.091 -1.6732  0.6868 -0.1240
11173SOL     OW34331   0.850   0.692   4.549  0.1938  0.5254  0.2574
11173SOL    HW134332   0.883   0.774   4.587 -0.3452  1.2805 -0.8542
11173SOL    HW234333   0.844   0.632   4.623  1.2166  1.2869  0.9859
11174SOL     OW34334   3.280   6.898   6.376 -0.4953 -0.4716  0.4732
11174SOL    HW134335   3.257   6.806   6.386 -3.1969  0.1442  0.3053
11174SOL    HW234336   3.317   6.904   6.287  0.3912 -1.5144  0.7715
11175SOL     OW34337   0.888   3.236   1.914 -0.3116  0.0366 -0.4667
11175SOL    HW134338   0.860   3.170   1.978  1.2539 -0.6985 -0.5194
11175SOL    HW234339   0.912   3.185   1.837  1.8778  0.5775 -0.1681
11176SOL     OW34340   7.315   1.971   1.488  0.3172  0.6195  0.2908
11176SOL    HW134341   7.267   2.050   1.513  1.0172  1.1025  0.1337
11176SOL    HW234342   7.379   1.959   1.559  0.3143  0.2818  0.2364
11177SOL     OW34343   6.171   6.933   7.526  0.1612  0.3800  0.8688
11177SOL    HW134344   6.194   6.847   7.491  1.1877  1.0169 -0.0609
11177SOL    HW234345   6.245   6.957   7.581  0.3592  1.1284  0.2773
11178SOL     OW34346   7.046   4.272   6.125  0.3677 -0.9805  0.0134
11178SOL    HW134347   7.104   4.347   6.115  1.0343 -1.4734  0.1525
11178SOL    HW234348   6.958   4.308   6.114  0.5871  0.0939  1.5562
11179SOL     OW34349   2.785   3.845   0.992 -0.0660  0.3114  0.0337
11179SOL    HW134350   2.871   3.807   0.975 -0.2261 -0.1400  0.2145
11179SOL    HW234351   2.725   3.770   0.990 -0.4297  0.5979  0.0877
11180SOL     OW34352   7.488   0.528   3.328  0.2989  0.7372  0.2208
11180SOL    HW134353   7.400   0.566   3.330  0.9326  2.2185  0.3029
11180SOL    HW234354   7.543   0.596   3.289  1.1401 -0.7612 -1.2536
11181SOL     OW34355   5.540   7.050   1.349 -0.3588  0.1545  0.1737
11181SOL    HW134356   5.515   6.961   1.373  0.2024 -0.1884 -0.5005
11181SOL    HW234357   5.459   7.091   1.319 -0.4388 -0.4257 -0.4106
11182SOL     OW34358   7.563   1.311   5.393 -0.5370 -0.0584 -0.0980
11182SOL    HW134359   7.652   1.320   5.361  0.7988  0.5927  3.5003
11182SOL    HW234360   7.547   1.216   5.393  0.4527 -0.2316 -0.0658
11183SOL     OW34361   3.494   5.291   0.347  0.5100 -0.3594  0.1477
11183SOL    HW134362   3.580   5.258   0.372  1.3556  1.2798 -0.5287
11183SOL    HW234363   3.462   5.338   0.424  0.9825  0.4978 -0.1702
11184SOL     OW34364   7.517   5.577   1.237 -0.7221 -0.1142 -0.0029
11184SOL    HW134365   7.500   5.486   1.262 -0.2135 -0.4162 -0.7217
11184SOL    HW234366   7.556   5.617   1.314  1.0613 -1.0931 -0.3767
11185SOL     OW34367   6.087   4.847   5.142  0.0731  0.5061  0.0044
11185SOL    HW134368   6.108   4.777   5.080 -2.2418  1.0699 -1.4724
11185SOL    HW234369   6.094   4.806   5.228  1.9421 -0.6679 -0.6904
11186SOL     OW34370   5.557   0.436   7.884  0.4096  0.2397  0.4349
11186SOL    HW134371   5.652   0.429   7.895  0.4785  0.9949  0.3689
11186SOL    HW234372   5.522   0.357   7.926  1.0511  0.0718  0.6633
11187SOL     OW34373   1.490   2.947   1.854 -0.1264  0.3374  0.6104
11187SOL    HW134374   1.576   2.950   1.811  0.4037 -0.4300  1.6132
11187SOL    HW234375   1.455   3.036   1.842 -1.2942 -0.6163 -3.9893
11188SOL     OW34376   0.857   6.983   5.750  0.0786  0.1523 -0.0728
11188SOL    HW134377   0.817   6.901   5.780 -0.8615  0.4462 -0.5098
11188SOL    HW234378   0.812   7.003   5.668  1.6095  0.1315 -0.9273
11189SOL     OW34379   7.299   5.757   4.623 -0.6880 -0.3105  0.2983
11189SOL    HW134380   7.375   5.722   4.575 -0.9392  0.0800 -0.3935
11189SOL    HW234381   7.328   5.762   4.714  0.1529 -0.0674  0.0216
11190SOL     OW34382   3.409   3.911   4.628  0.1845 -0.4112  0.2544
11190SOL    HW134383   3.408   4.006   4.623 -2.9045 -0.4872 -1.4265
11190SOL    HW234384   3.437   3.883   4.541  2.1255 -1.0857  1.0516
11191SOL     OW34385   5.968   5.117   5.145  0.4278  0.6276  0.2765
11191SOL    HW134386   5.902   5.103   5.213 -1.5116 -0.1296 -1.6812
11191SOL    HW234387   6.012   5.033   5.135 -0.1933  0.3659 -0.3038
11192SOL     OW34388   0.898   7.129   7.065  0.1898  0.1629 -0.0141
11192SOL    HW134389   0.900   7.033   7.058 -1.5204  0.0745  0.2909
11192SOL    HW234390   0.894   7.160   6.975 -1.1280 -0.1458 -0.0810
11193SOL     OW34391   4.247   5.156   6.152  0.5183  0.6913 -0.4958
11193SOL    HW134392   4.190   5.091   6.109  0.1038  1.3376 -0.9391
11193SOL    HW234393   4.187   5.208   6.206  0.3765  2.5092 -2.3217
11194SOL     OW34394   1.541   1.437   6.144  0.3014 -0.1375 -0.1326
11194SOL    HW134395   1.555   1.451   6.050  0.6545  0.7202  0.0509
11194SOL    HW234396   1.608   1.372   6.168  0.1483 -0.4336 -0.4865
11195SOL     OW34397   1.576   2.278   6.560 -0.2449  0.0726  0.2721
11195SOL    HW134398   1.630   2.205   6.590  1.1633  0.7146 -0.6240
11195SOL    HW234399   1.547   2.251   6.473  0.0343  0.4459  0.0618
11196SOL     OW34400   5.121   3.393   6.748  0.5319 -0.0133 -0.4461
11196SOL    HW134401   5.090   3.475   6.710  0.3783 -0.0765 -0.4566
11196SOL    HW234402   5.041   3.345   6.770  0.5973  0.3835  0.7330
11197SOL     OW34403   7.670   5.180   3.505  0.2898 -0.3487  0.0232
11197SOL    HW134404   7.578   5.199   3.488  0.5590 -1.0894 -2.4779
11197SOL    HW234405   7.718   5.238   3.446  1.4354  0.0260  1.3063
11198SOL     OW34406   2.636   6.966   1.896 -0.4538 -0.0641  0.0190
11198SOL    HW134407   2.729   6.947   1.900 -0.9833 -2.6459  0.6542
11198SOL    HW234408   2.625   7.046   1.948  1.4253  0.4810 -0.3869
11199SOL     OW34409   4.752   6.100   4.669 -0.2441  0.3299  0.1687
11199SOL    HW134410   4.828   6.153   4.692  1.6662 -2.1035 -0.3000
11199SOL    HW234411   4.786   6.033   4.610 -2.3051 -2.0946  1.6043
11200SOL     OW34412   3.395   6.730   2.961  0.5740  0.6330 -0.6453
11200SOL    HW134413   3.366   6.740   2.871  3.0722 -1.3826 -1.7438
11200SOL    HW234414   3.413   6.636   2.971  0.0773  0.7679  2.0326
11201SOL     OW34415   2.346   0.472   4.443 -0.2823 -0.6116 -0.4258
11201SOL    HW134416   2.373   0.421   4.367  1.2036 -0.2915 -0.1316
11201SOL    HW234417   2.406   0.444   4.513  1.1151  2.1551 -0.4914
11202SOL     OW34418   7.055   4.478   1.962 -0.2906 -0.0951  0.3592
11202SOL    HW134419   7.051   4.530   2.043 -0.0710  0.2600  0.1458
11202SOL    HW234420   7.123   4.522   1.910 -0.5152 -0.2567 -0.0638
11203SOL     OW34421   2.701   2.504   3.523  0.8378 -0.3225  0.6791
11203SOL    HW134422   2.678   2.563   3.452 -0.0117  1.4802  2.4269
11203SOL    HW234423   2.753   2.435   3.481 -0.0539  0.4495 -1.7436
11204SOL     OW34424   4.347   4.894   5.980  0.2382 -0.3649  0.1419
11204SOL    HW134425   4.261   4.929   6.003  1.0152  1.3778  0.4855
11204SOL    HW234426   4.330   4.805   5.950 -1.6686 -0.0629  0.2968
11205SOL     OW34427   1.716   6.398   4.989 -0.4886  0.2380 -0.2398
11205SOL    HW134428   1.709   6.447   4.907 -0.1277 -1.1302 -1.0972
11205SOL    HW234429   1.810   6.383   5.001 -0.5084  0.7114  0.6044
11206SOL     OW34430   2.059   6.523   2.959 -0.3996  0.0337 -0.3871
11206SOL    HW134431   2.111   6.566   2.891  0.2578 -1.3719 -0.7955
11206SOL    HW234432   1.975   6.569   2.958 -1.0318 -1.0649 -3.3561
11207SOL     OW34433   3.001   7.699   3.838  0.1066 -0.4121 -0.0764
11207SOL    HW134434   3.067   7.761   3.866 -1.6926  1.4046  0.2193
11207SOL    HW234435   3.000   7.632   3.906 -0.3236  1.0523  1.3898
11208SOL     OW34436   1.415   7.998   7.708 -0.4708 -0.5987  0.0240
11208SOL    HW134437   1.427   8.031   7.796  0.8882 -1.6735  0.2564
11208SOL    HW234438   1.377   7.911   7.720  1.2099 -1.4049 -0.3854
11209SOL     OW34439   0.639   3.044   1.749 -0.1091 -0.6834  0.0601
11209SOL    HW134440   0.613   3.099   1.675  0.8137 -0.1334  0.1308
11209SOL    HW234441   0.734   3.036   1.740  0.2305  0.7416  2.1058
11210SOL     OW34442   2.014   6.294   4.011 -0.0410 -0.2316 -0.0267
11210SOL    HW134443   2.042   6.333   4.094 -1.5610 -1.7829  1.2594
11210SOL    HW234444   2.071   6.218   3.999 -0.0126 -0.1758 -0.2511
11211SOL     OW34445   5.083   3.680   2.309 -0.3642 -0.6611 -0.2677
11211SOL    HW134446   5.041   3.594   2.309 -0.9690 -0.3650 -0.5522
11211SOL    HW234447   5.107   3.695   2.217 -2.2014  0.4206 -0.5886
11212SOL     OW34448   7.631   6.872   1.719  0.4562 -0.3196  0.1017
11212SOL    HW134449   7.699   6.808   1.738  1.5005  1.6538  3.4710
11212SOL    HW234450   7.666   6.924   1.647  0.3555 -2.3954 -1.4691
11213SOL     OW34451   7.594   3.843   2.955 -0.1884 -0.2167  0.5431
11213SOL    HW134452   7.613   3.932   2.926  1.9716 -0.8020  0.0610
11213SOL    HW234453   7.517   3.817   2.906  0.3121  0.7083 -0.7561
11214SOL     OW34454   3.007   1.328   3.250  0.0446 -0.2247  0.5162
11214SOL    HW134455   3.003   1.284   3.335  0.6672 -0.0672  0.6308
11214SOL    HW234456   3.041   1.261   3.190  1.2211  0.1624  0.7397
11215SOL     OW34457   4.817   2.075   6.228 -0.0484 -0.4463 -0.5062
11215SOL    HW134458   4.732   2.120   6.222  0.2191  0.1332 -0.0013
11215SOL    HW234459   4.877   2.142   6.262  0.3186 -1.2371  0.4152
11216SOL     OW34460   7.771   0.424   5.414  0.0596  0.1745 -0.4191
11216SOL    HW134461   7.720   0.431   5.334  1.3986  1.4920 -1.1879
11216SOL    HW234462   7.739   0.496   5.469  1.3718  1.3384 -1.1110
11217SOL     OW34463   1.328   7.742   3.345  0.1319  0.1369 -0.2731
11217SOL    HW134464   1.317   7.823   3.395 -0.1344  0.4067 -0.7641
11217SOL    HW234465   1.421   7.722   3.350  0.1155  0.1975  0.2778
11218SOL     OW34466   0.810   6.707   1.584  0.0882 -0.4648 -0.2167
11218SOL    HW134467   0.776   6.781   1.633 -0.6540 -0.7568 -0.2836
11218SOL    HW234468   0.836   6.743   1.500 -2.8650 -0.7342 -1.3155
11219SOL     OW34469   6.000   5.558   0.366  0.8803 -0.1367 -0.4071
11219SOL    HW134470   6.066   5.494   0.339  0.8576 -0.3711  0.0921
11219SOL    HW234471   6.015   5.569   0.460  0.0651 -0.3562 -0.2517
11220SOL     OW34472   0.875   5.641   5.207  0.2261 -0.3777 -0.3929
11220SOL    HW134473   0.916   5.579   5.267 -0.3837 -1.4911 -1.1020
11220SOL    HW234474   0.895   5.727   5.244  3.1347 -0.8703 -0.6726
11221SOL     OW34475   2.423   2.453   2.574  0.5235 -0.1622  0.0602
11221SOL    HW134476   2.427   2.435   2.480  1.2143  1.1010 -0.1787
11221SOL    HW234477   2.335   2.429   2.600  1.0344 -2.7061 -0.4331
11222SOL     OW34478   0.172   0.189   7.077 -0.1080  0.0713 -0.0943
11222SOL    HW134479   0.241   0.127   7.099  0.4029  1.0227  1.0046
11222SOL    HW234480   0.147   0.167   6.987  2.0578  0.1182 -0.7194
11223SOL     OW34481   2.765   7.022   4.394  0.0789  0.4064  0.5465
11223SOL    HW134482   2.691   7.082   4.405  1.1661  1.3915  3.1373
11223SOL    HW234483   2.746   6.950   4.454 -0.1381 -0.7356 -0.8906
11224SOL     OW34484   1.746   3.838   0.145  0.3374 -0.3556  0.2279
11224SOL    HW134485   1.762   3.753   0.104  1.1558  0.2829 -0.8215
11224SOL    HW234486   1.799   3.837   0.225  0.0589 -0.9658  0.4068
11225SOL     OW34487   5.494   5.103   1.307  0.2357  0.1393  0.2697
11225SOL    HW134488   5.450   5.187   1.298  2.2218  1.3192  1.3864
11225SOL    HW234489   5.577   5.114   1.261  0.6511 -1.1130  0.6928
11226SOL     OW34490   5.957   6.301   1.790 -0.5351  0.0763 -0.2871
11226SOL    HW134491   5.951   6.237   1.861 -1.6925  1.7396  1.1591
11226SOL    HW234492   6.017   6.368   1.823  0.8918 -0.3735 -1.8950
11227SOL     OW34493   2.209   0.125   7.543 -0.1205 -0.1025  0.2220
11227SOL    HW134494   2.217   0.210   7.587  1.9727 -0.4331  0.5224
11227SOL    HW234495   2.115   0.108   7.540 -0.3833  0.6481  3.1791
11228SOL     OW34496   4.859   7.046   7.484  0.0929 -0.0469 -0.1408
11228SOL    HW134497   4.897   7.122   7.529 -0.2715  0.6891 -1.0602
11228SOL    HW234498   4.934   6.992   7.460  0.3632  0.0768  0.4215
11229SOL     OW34499   2.017   7.022   6.674  0.4976  0.4552 -0.2905
11229SOL    HW134500   2.111   7.037   6.662  0.4513  1.4837  0.5299
11229SOL    HW234501   1.981   7.109   6.691 -0.6190  0.0719 -0.6559
11230SOL     OW34502   3.193   0.123   6.083  0.5651  0.0213  0.6254
11230SOL    HW134503   3.235   0.198   6.124  0.2796  0.5405 -0.0234
11230SOL    HW234504   3.232   0.119   5.996  1.0435 -0.9707  0.8812
11231SOL     OW34505   3.442   0.331   7.458 -0.0581 -0.9801  0.3376
11231SOL    HW134506   3.487   0.247   7.442  2.3952  0.0776  1.4555
11231SOL    HW234507   3.442   0.341   7.553  0.3312  0.6228  0.1847
11232SOL     OW34508   3.799   4.018   1.945 -0.3319  0.0896  0.4545
11232SOL    HW134509   3.772   3.954   2.011  0.9247 -1.9239 -0.9393
11232SOL    HW234510   3.874   4.063   1.984  0.7306 -1.4525  0.1997
11233SOL     OW34511   3.686   5.928   2.240  0.0025  0.3305  0.2618
11233SOL    HW134512   3.752   5.873   2.281  0.2113  1.4693  1.5115
11233SOL    HW234513   3.647   5.873   2.172  1.4795 -0.7078  0.2346
11234SOL     OW34514   7.022   2.650   1.707  0.2957  0.2412 -0.0401
11234SOL    HW134515   7.081   2.584   1.670 -0.0018  0.1766 -0.3958
11234SOL    HW234516   7.053   2.661   1.797  1.2492  0.6614 -0.4087
11235SOL     OW34517   3.264   1.124   0.206 -0.4955  0.5596  0.3191
11235SOL    HW134518   3.213   1.203   0.189 -0.2878  0.7153  0.4084
11235SOL    HW234519   3.199   1.056   0.225 -0.6107  1.2927  2.7253
11236SOL     OW34520   7.944   3.410   1.793 -0.2234  0.1784  0.2804
11236SOL    HW134521   7.916   3.321   1.814  0.6988 -0.4536 -1.0679
11236SOL    HW234522   7.878   3.467   1.833  0.0229 -1.0395  2.5361
11237SOL     OW34523   5.280   3.025   4.179  0.0243 -0.1474 -0.0974
11237SOL    HW134524   5.307   2.941   4.216  0.5164 -0.4273 -1.0760
11237SOL    HW234525   5.267   3.081   4.255 -0.8045 -1.2538  0.5959
11238SOL     OW34526   1.245   6.748   7.064 -0.2830  0.2639  0.3288
11238SOL    HW134527   1.261   6.769   6.972  0.4775 -0.6210  0.2459
11238SOL    HW234528   1.327   6.770   7.108 -0.5175  0.3307  0.7333
11239SOL     OW34529   2.641   1.425   7.822  0.3276 -0.0956  0.2641
11239SOL    HW134530   2.606   1.345   7.782  2.5445 -1.4976  1.0234
11239SOL    HW234531   2.696   1.464   7.754 -0.5365  0.6840 -0.0109
11240SOL     OW34532   4.068   0.468   4.998  0.0604  0.0752 -0.0094
11240SOL    HW134533   4.108   0.471   5.085  1.3865  0.9990 -0.6334
11240SOL    HW234534   4.115   0.534   4.948 -2.5727  1.5628 -0.6391
11241SOL     OW34535   3.384   4.426   7.144 -0.0240 -0.1418 -0.4802
11241SOL    HW134536   3.363   4.440   7.052 -0.5454 -0.1867 -0.3702
11241SOL    HW234537   3.315   4.369   7.176 -0.4099  0.6907  0.1855
11242SOL     OW34538   5.147   0.219   1.909  0.5308 -0.0923 -0.7362
11242SOL    HW134539   5.237   0.208   1.880  0.6371 -0.4359 -0.2873
11242SOL    HW234540   5.102   0.140   1.878  0.1903  0.4818 -1.7010
11243SOL     OW34541   1.002   0.709   3.978  0.2693  0.3699  0.3715
11243SOL    HW134542   0.908   0.700   3.994 -0.0877 -0.6897 -2.0322
11243SOL    HW234543   1.012   0.795   3.938  0.2157  0.2397  0.0714
11244SOL     OW34544   1.460   6.883   3.405  0.0765  0.1924  0.6251
11244SOL    HW134545   1.457   6.839   3.491 -1.5916 -1.0073 -0.0103
11244SOL    HW234546   1.422   6.819   3.345 -1.2137  2.0421 -0.5634
11245SOL     OW34547   0.710   6.064   0.188  0.3958 -0.2274  0.5642
11245SOL    HW134548   0.800   6.064   0.155  0.0843  0.5470 -0.2913
11245SOL    HW234549   0.671   5.983   0.155  0.8635 -0.7258  1.2063
11246SOL     OW34550   0.696   7.361   1.264  0.4532  0.5061 -0.2683
11246SOL    HW134551   0.656   7.303   1.330 -1.3208  0.7506 -1.0977
11246SOL    HW234552   0.693   7.310   1.183 -1.4802  1.8863 -1.0870
11247SOL     OW34553   7.655   1.555   4.422  0.1513 -0.3573 -0.1081
11247SOL    HW134554   7.654   1.536   4.328  0.8138 -0.1581 -0.1541
11247SOL    HW234555   7.748   1.563   4.444 -0.0198  0.0371  0.4764
11248SOL     OW34556   5.968   0.503   6.169 -0.3554  0.2900 -0.4625
11248SOL    HW134557   6.038   0.440   6.148 -0.7046 -0.1672 -0.2484
11248SOL    HW234558   5.989   0.580   6.116  0.7849  0.4641  0.2274
11249SOL     OW34559   7.775   2.190   1.601  0.1870 -0.4941  0.2306
11249SOL    HW134560   7.688   2.158   1.623  1.1965 -1.8811  2.4222
11249SOL    HW234561   7.797   2.251   1.671  0.2705  1.2536 -1.2922
11250SOL     OW34562   1.893   5.888   3.516 -0.7709 -0.2499  0.3460
11250SOL    HW134563   1.837   5.933   3.579 -0.1463 -0.8582  1.3611
11250SOL    HW234564   1.976   5.935   3.519 -1.7814  1.8374 -2.5675
11251SOL     OW34565   0.749   5.453   0.386  0.3517 -0.0489  0.2459
11251SOL    HW134566   0.744   5.485   0.476  0.3066  0.7352 -0.0285
11251SOL    HW234567   0.704   5.520   0.334  1.3594  0.0686 -0.4932
11252SOL     OW34568   5.195   7.683   0.144 -0.0524 -0.8284  0.3220
11252SOL    HW134569   5.209   7.588   0.135  0.7602 -0.5944 -0.8822
11252SOL    HW234570   5.107   7.690   0.182 -0.1121 -2.0653  0.4375
11253SOL     OW34571   5.849   2.620   3.350 -0.0956  0.2022 -0.0382
11253SOL    HW134572   5.854   2.525   3.337 -1.2258  0.0320  0.7185
11253SOL    HW234573   5.777   2.632   3.412  0.6412  1.4889  0.5993
11254SOL     OW34574   1.365   4.469   1.033 -0.7447  0.2590 -0.4324
11254SOL    HW134575   1.448   4.469   0.985  0.0840  0.4101  0.9839
11254SOL    HW234576   1.321   4.549   1.004 -1.0796 -0.5772 -2.3185
11255SOL     OW34577   7.806   3.308   3.127 -0.1035 -0.2680  0.0458
11255SOL    HW134578   7.900   3.299   3.112 -0.0949  1.0098 -0.6956
11255SOL    HW234579   7.797   3.311   3.222  0.6568  0.1478  0.1049
11256SOL     OW34580   4.513   4.875   2.552  0.4139 -0.0176  0.4803
11256SOL    HW134581   4.473   4.881   2.465  1.7787 -1.2656 -0.2514
11256SOL    HW234582   4.603   4.905   2.539  0.0965  1.5550  1.8514
11257SOL     OW34583   6.257   1.058   1.060 -0.1233 -0.2191 -0.0781
11257SOL    HW134584   6.260   1.113   0.981 -1.0108 -0.1175 -0.0373
11257SOL    HW234585   6.183   1.091   1.110 -0.2951 -1.0664  0.2289
11258SOL     OW34586   4.144   0.518   1.961 -0.5732  0.1477  0.0670
11258SOL    HW134587   4.076   0.475   1.909  1.0214 -0.6547 -1.4041
11258SOL    HW234588   4.178   0.586   1.903  0.2487  0.1922  0.5928
11259SOL     OW34589   3.537   5.573   7.726  0.2714  0.1975 -0.4263
11259SOL    HW134590   3.494   5.609   7.804 -0.4960 -1.2281 -0.1688
11259SOL    HW234591   3.465   5.536   7.675  0.9236 -0.0332 -1.1744
11260SOL     OW34592   6.155   6.877   6.809  0.0356  0.2377 -0.9863
11260SOL    HW134593   6.111   6.961   6.796 -0.1905  0.4106  0.8536
11260SOL    HW234594   6.139   6.855   6.901  1.9080 -0.7805 -0.8854
11261SOL     OW34595   0.674   2.133   4.375 -0.1660  0.4280  0.2130
11261SOL    HW134596   0.681   2.226   4.397 -1.1610  0.2941  1.1140
11261SOL    HW234597   0.753   2.115   4.324  1.1834  1.2280  1.9532
11262SOL     OW34598   3.163   7.959   4.832 -0.4589  0.3747  0.2969
11262SOL    HW134599   3.131   7.966   4.742 -0.9345  0.2860  0.4542
11262SOL    HW234600   3.195   8.047   4.853 -0.2630  0.3709  0.0120
11263SOL     OW34601   2.547   6.678   7.290  0.0388  0.3877 -0.1954
11263SOL    HW134602   2.580   6.745   7.351 -1.5986  0.6843  0.3840
11263SOL    HW234603   2.459   6.708   7.266 -0.8214 -1.6887  0.2655
11264SOL     OW34604   2.494   6.230   1.160 -0.0485  0.2574  0.2294
11264SOL    HW134605   2.448   6.211   1.078 -0.3726 -0.4496  0.5657
11264SOL    HW234606   2.570   6.282   1.134 -1.1146  1.5669 -0.3185
11265SOL     OW34607   4.388   3.932   3.500 -0.2342 -0.3510 -0.1989
11265SOL    HW134608   4.296   3.956   3.493 -0.0383  0.3463 -0.3478
11265SOL    HW234609   4.409   3.891   3.416 -0.1534  0.3610 -0.5277
11266SOL     OW34610   5.809   5.817   5.765 -0.0509  0.0921  0.4676
11266SOL    HW134611   5.787   5.888   5.705 -0.7784  0.0909  0.7283
11266SOL    HW234612   5.777   5.847   5.850  0.3487 -0.2038  0.7245
11267SOL     OW34613   3.039   5.874   3.520 -0.0880  0.3052  0.2911
11267SOL    HW134614   3.027   5.904   3.610  0.2430  1.0057  0.1096
11267SOL    HW234615   3.130   5.897   3.499 -0.3332  0.6540 -0.4005
11268SOL     OW34616   6.271   1.404   3.697 -0.1094  0.3684 -0.0315
11268SOL    HW134617   6.203   1.336   3.693 -0.7945  0.9840  0.8931
11268SOL    HW234618   6.289   1.425   3.606  0.9865 -1.9062 -0.3837
11269SOL     OW34619   7.877   2.065   7.696 -0.0663  0.0718  0.6591
11269SOL    HW134620   7.798   2.101   7.657 -0.6074 -0.9272  0.7996
11269SOL    HW234621   7.949   2.113   7.656 -0.6157 -0.8401 -1.4816
11270SOL     OW34622   4.492   5.159   0.731  0.5042  0.2347  0.3279
11270SOL    HW134623   4.405   5.119   0.733  1.1847 -1.3024 -0.2848
11270SOL    HW234624   4.525   5.148   0.820  1.8689 -3.2710 -0.5583
11271SOL     OW34625   4.611   7.773   2.297 -0.2794  0.6046  0.1205
11271SOL    HW134626   4.538   7.796   2.239 -0.6821  1.0924  0.7992
11271SOL    HW234627   4.646   7.692   2.262 -1.8596 -0.2154  0.4122
11272SOL     OW34628   2.693   5.543   0.006  0.0200 -0.1068 -0.3075
11272SOL    HW134629   2.607   5.559   0.047  0.4956 -0.5584  0.8913
11272SOL    HW234630   2.732   5.630  -0.001  0.6766 -0.1945  1.8971
11273SOL     OW34631   1.914   6.263   0.303  0.2687 -0.4255  0.1378
11273SOL    HW134632   1.962   6.279   0.222  1.4709  0.1013  0.9399
11273SOL    HW234633   1.964   6.192   0.345 -0.1064 -0.4008  0.6161
11274SOL     OW34634   0.784   1.015   3.783 -0.0126 -0.2398  0.2829
11274SOL    HW134635   0.868   1.051   3.813  0.2127  1.0117 -1.6885
11274SOL    HW234636   0.721   1.085   3.798 -0.4910 -0.7853  0.7961
11275SOL     OW34637   7.791   1.470   2.135 -0.1984  0.0298 -0.0792
11275SOL    HW134638   7.773   1.455   2.042 -1.1425  0.5314  0.0122
11275SOL    HW234639   7.886   1.468   2.142 -0.1368 -0.4218 -0.9886
11276SOL     OW34640   2.832   0.911   4.364  0.3076  0.2365 -0.0260
11276SOL    HW134641   2.809   0.930   4.273  2.3277 -2.0431 -1.0749
11276SOL    HW234642   2.861   0.994   4.400 -1.0676  1.2843 -1.2936
11277SOL     OW34643   5.449   3.779   0.021 -0.2385 -0.0520  0.1034
11277SOL    HW134644   5.525   3.729   0.049  0.4650 -0.2636 -2.1212
11277SOL    HW234645   5.375   3.736   0.065  0.6278 -1.5004  0.1699
11278SOL     OW34646   2.511   6.301   3.468  0.2599  0.1070 -0.5902
11278SOL    HW134647   2.468   6.374   3.514 -1.8131 -2.4920  1.7618
11278SOL    HW234648   2.446   6.273   3.404  1.1043  0.3524 -1.5675
11279SOL     OW34649   5.515   5.708   1.003  0.0888 -0.7328  0.7434
11279SOL    HW134650   5.451   5.744   1.064  0.9347  0.0765  1.1742
11279SOL    HW234651   5.598   5.713   1.051  0.7993  0.0971 -0.5577
11280SOL     OW34652   5.863   7.256   3.901 -0.6387 -0.3091  0.2942
11280SOL    HW134653   5.900   7.244   3.814 -0.1798  1.7897  0.1768
11280SOL    HW234654   5.802   7.329   3.891 -2.5612 -1.7261  1.1680
11281SOL     OW34655   0.051   0.171   3.598 -0.0809  0.6467 -0.5269
11281SOL    HW134656   0.089   0.258   3.609  0.7397  0.2596 -0.3247
11281SOL    HW234657  -0.005   0.179   3.520  1.5507  0.8246 -1.6922
11282SOL     OW34658   5.808   3.272   6.682  0.3346 -0.2771  0.5709
11282SOL    HW134659   5.788   3.183   6.653 -0.8433  0.4755 -1.0167
11282SOL    HW234660   5.733   3.297   6.736  0.1457  0.1586  0.1027
11283SOL     OW34661   5.865   6.686   2.294  0.0576 -0.3286  0.9143
11283SOL    HW134662   5.858   6.734   2.212 -0.1779 -0.2257  0.9941
11283SOL    HW234663   5.850   6.751   2.362  0.6514 -0.3363  1.0560
11284SOL     OW34664   5.590   0.262   6.987  0.0520 -0.3725 -0.3445
11284SOL    HW134665   5.547   0.184   7.023  0.5162 -0.1580  0.7042
11284SOL    HW234666   5.682   0.238   6.980 -0.0288 -0.3981 -1.3739
11285SOL     OW34667   0.063   1.612   2.227 -0.0203  0.2025 -0.0701
11285SOL    HW134668   0.095   1.523   2.212  1.4400  0.6974  0.0049
11285SOL    HW234669   0.072   1.655   2.143 -2.6369 -0.2622 -0.6434
11286SOL     OW34670   4.514   4.173   2.600 -0.2069  0.0041  0.1394
11286SOL    HW134671   4.589   4.143   2.650  0.6033  2.2033  0.3026
11286SOL    HW234672   4.438   4.138   2.647  0.6568 -1.3183  0.5836
11287SOL     OW34673   1.385   0.077   4.078 -1.2893 -0.1732  0.3860
11287SOL    HW134674   1.472   0.073   4.038 -0.9331  0.9749  1.0151
11287SOL    HW234675   1.394   0.142   4.148 -2.1133 -1.5430  1.7991
11288SOL     OW34676   5.187   0.389   5.999  0.3322  0.2208 -0.1760
11288SOL    HW134677   5.096   0.416   6.016  0.7630  0.8575  1.1969
11288SOL    HW234678   5.184   0.293   5.999 -0.5496  0.2210 -1.4017
11289SOL     OW34679   5.629   7.513   7.636 -0.3491 -0.3318 -0.6283
11289SOL    HW134680   5.710   7.473   7.606  0.2782 -0.0917  0.7208
11289SOL    HW234681   5.623   7.489   7.729 -1.5631  0.0587 -0.5938
11290SOL     OW34682   3.338   4.122   3.694 -0.2021  0.1363  0.5920
11290SOL    HW134683   3.405   4.155   3.634 -1.4911  0.8264 -0.4863
11290SOL    HW234684   3.363   4.031   3.709  0.2033 -0.0177 -0.9042
11291SOL     OW34685   0.899   4.603   3.905  0.4221  0.2702 -0.6171
11291SOL    HW134686   0.865   4.683   3.945  0.3159  0.8848 -1.9086
11291SOL    HW234687   0.991   4.600   3.932  0.7736  1.5282 -1.5890
11292SOL     OW34688   6.256   1.454   0.816  0.0446  0.3968 -0.2344
11292SOL    HW134689   6.271   1.361   0.830 -0.3626  0.3146 -0.3382
11292SOL    HW234690   6.168   1.469   0.848  0.4928  0.9569  0.7503
11293SOL     OW34691   4.545   4.855   5.800 -0.0973 -0.4165  0.4873
11293SOL    HW134692   4.482   4.889   5.863  0.8577 -1.0703  1.8374
11293SOL    HW234693   4.621   4.913   5.808  0.5079 -1.2442  0.8610
11294SOL     OW34694   7.682   0.727   4.511  0.6215 -0.6175 -0.2019
11294SOL    HW134695   7.723   0.725   4.424  1.1066  1.0164 -0.0331
11294SOL    HW234696   7.658   0.636   4.528  0.1356 -0.8955 -2.2236
11295SOL     OW34697   3.246   6.074   4.583 -0.0547  0.0070  0.3224
11295SOL    HW134698   3.258   5.981   4.602 -0.0264 -1.0325 -4.1382
11295SOL    HW234699   3.333   6.105   4.557  0.2677  1.7312  3.3093
11296SOL     OW34700   5.313   3.323   7.873  0.2392 -0.4703  0.8219
11296SOL    HW134701   5.394   3.296   7.829  0.4364  0.8988  0.2847
11296SOL    HW234702   5.257   3.355   7.802 -0.6331 -1.0739  1.2373
11297SOL     OW34703   3.610   2.715   4.022  0.1254  0.4364  0.3529
11297SOL    HW134704   3.520   2.696   3.997  0.7224 -0.2775 -1.3556
11297SOL    HW234705   3.610   2.715   4.117 -1.5595 -0.1378  0.3590
11298SOL     OW34706   5.266   0.182   3.704  0.3599 -0.1952 -0.5948
11298SOL    HW134707   5.183   0.202   3.748  0.6718 -0.1762 -0.0146
11298SOL    HW234708   5.265   0.237   3.626 -0.9136 -1.4076 -1.4511
11299SOL     OW34709   6.158   2.597   6.651 -0.6940 -0.2494  0.1524
11299SOL    HW134710   6.211   2.525   6.684  0.0827  0.4087  0.3548
11299SOL    HW234711   6.100   2.619   6.725  1.3606  1.5251  1.2815
11300SOL     OW34712   1.156   4.542   7.748  0.5012  0.2906 -0.3890
11300SOL    HW134713   1.158   4.497   7.832  0.5515  0.5935 -0.2274
11300SOL    HW234714   1.138   4.634   7.770 -0.5048  0.1943 -0.7763
11301SOL     OW34715   1.288   7.372   2.751  0.0012 -0.5169  0.2225
11301SOL    HW134716   1.381   7.373   2.729  0.2443 -1.4082  1.1626
11301SOL    HW234717   1.267   7.279   2.760 -0.3932 -0.2301  2.4665
11302SOL     OW34718   6.716   0.044   0.479 -0.3669  0.3117 -0.2267
11302SOL    HW134719   6.672  -0.035   0.448  0.5068  0.0323 -0.7839
11302SOL    HW234720   6.670   0.115   0.435 -2.1132  0.2286  1.4224
11303SOL     OW34721   5.610   4.113   2.500  0.2375 -0.1296  0.5690
11303SOL    HW134722   5.524   4.153   2.483  0.7830  1.0508  0.5114
11303SOL    HW234723   5.620   4.116   2.595  0.1161 -0.4515  0.5891
11304SOL     OW34724   7.170   3.921   3.745 -0.5472  0.1200 -0.1014
11304SOL    HW134725   7.101   3.958   3.800 -1.1249  0.9274 -1.3220
11304SOL    HW234726   7.168   3.827   3.762 -1.3968  0.2449  0.4938
11305SOL     OW34727   6.674   5.486   5.126  0.3762 -0.4584 -0.3388
11305SOL    HW134728   6.738   5.458   5.191 -0.2795 -0.1468  0.4492
11305SOL    HW234729   6.701   5.574   5.101  0.5263 -0.5079 -0.3491
11306SOL     OW34730   3.785   3.598   4.957 -0.3775 -0.5050 -0.2084
11306SOL    HW134731   3.779   3.517   4.907 -0.7474 -0.4096 -0.3221
11306SOL    HW234732   3.876   3.625   4.947 -0.7158  0.1407 -1.8312
11307SOL     OW34733   3.057   6.421   7.846  0.4061  0.0493 -0.3230
11307SOL    HW134734   3.023   6.352   7.902 -0.1629 -0.0613 -0.8009
11307SOL    HW234735   3.151   6.421   7.862  0.1631  0.5082  1.1817
11308SOL     OW34736   3.874   3.929   0.781  0.0340 -0.4534 -0.5685
11308SOL    HW134737   3.783   3.960   0.784  0.3411  0.3527  1.1464
11308SOL    HW234738   3.876   3.854   0.840  0.3163 -0.9323 -1.1880
11309SOL     OW34739   6.150   3.530   1.449 -0.6684  0.3362  0.5229
11309SOL    HW134740   6.099   3.475   1.509  0.8507  0.0998  1.6052
11309SOL    HW234741   6.238   3.533   1.487  0.4380 -0.1943 -1.9263
11310SOL     OW34742   4.371   7.349   2.099  0.1872 -0.2942  0.0438
11310SOL    HW134743   4.301   7.284   2.107 -0.3720  0.1146 -1.2738
11310SOL    HW234744   4.406   7.336   2.011  1.3954 -0.1066  0.4907
11311SOL     OW34745   5.091   5.738   1.897  0.2374  0.0469 -0.2642
11311SOL    HW134746   5.019   5.791   1.932  0.7907 -0.6372  2.0018
11311SOL    HW234747   5.161   5.802   1.879 -0.3266  0.5023 -0.8588
11312SOL     OW34748   3.977   3.294   3.243  0.3992 -0.4654 -0.0801
11312SOL    HW134749   3.974   3.363   3.177  1.1081  1.0184  1.4153
11312SOL    HW234750   3.892   3.251   3.236  0.4730 -0.3590 -1.9719
11313SOL     OW34751   2.162   2.762   4.558 -0.0484 -0.0573  0.2447
11313SOL    HW134752   2.207   2.822   4.618 -0.5329  0.9755 -0.3982
11313SOL    HW234753   2.077   2.747   4.600 -0.1263  0.1265  0.1548
11314SOL     OW34754   5.370   1.821   1.711 -0.1239  0.1347  0.2407
11314SOL    HW134755   5.437   1.797   1.775 -0.1686 -1.3805 -0.2776
11314SOL    HW234756   5.319   1.742   1.698  0.1073  0.3037 -1.9468
11315SOL     OW34757   2.893   4.059   2.793  0.4953  0.0644  0.2085
11315SOL    HW134758   2.927   4.128   2.735 -1.0408 -0.2053 -1.0501
11315SOL    HW234759   2.874   3.986   2.734  1.8661 -1.3549  1.5038
11316SOL     OW34760   1.409   7.823   5.104  0.2832 -0.6546  0.4301
11316SOL    HW134761   1.337   7.782   5.056  0.9134 -0.6569 -0.5237
11316SOL    HW234762   1.479   7.830   5.040  1.2890 -1.0569  1.4763
11317SOL     OW34763   3.067   4.610   6.034  0.2549 -0.1761  0.7026
11317SOL    HW134764   3.015   4.678   6.076  0.6380  0.2596  0.4771
11317SOL    HW234765   3.021   4.528   6.055  0.3504  0.0504  1.8014
11318SOL     OW34766   5.225   2.187   4.884  0.6318 -0.0582  0.3544
11318SOL    HW134767   5.207   2.147   4.798 -0.5803  0.1728  0.4918
11318SOL    HW234768   5.295   2.249   4.867  0.4938 -0.1150 -0.4573
11319SOL     OW34769   5.699   4.537   1.705  0.2612 -0.2916 -0.7933
11319SOL    HW134770   5.762   4.533   1.633  2.9736 -2.4298  1.5448
11319SOL    HW234771   5.729   4.610   1.759  1.1505 -1.6762  0.6351
11320SOL     OW34772   3.435   1.667   4.235 -0.2526 -0.1878  0.5107
11320SOL    HW134773   3.371   1.606   4.273 -0.7784  0.3023  0.4166
11320SOL    HW234774   3.495   1.686   4.307 -0.1746 -0.7035  0.5823
11321SOL     OW34775   2.209   5.733   1.883 -0.2692 -0.5901 -0.2222
11321SOL    HW134776   2.148   5.664   1.911 -0.4219  0.0341  1.0344
11321SOL    HW234777   2.293   5.708   1.921 -0.2237 -0.3372 -0.1510
11322SOL     OW34778   6.357   1.608   5.069 -0.1155 -0.0314  0.2287
11322SOL    HW134779   6.363   1.536   5.132 -1.1182  0.2240  0.6207
11322SOL    HW234780   6.441   1.655   5.079  0.1160 -0.5434  0.6986
11323SOL     OW34781   6.220   3.740   6.648  0.2051  0.6393  0.0653
11323SOL    HW134782   6.263   3.733   6.733  1.7852  0.6621 -0.7191
11323SOL    HW234783   6.229   3.832   6.624  0.8907  0.3743 -0.7044
11324SOL     OW34784   1.333   2.181   5.556  0.1214 -0.1115  0.2364
11324SOL    HW134785   1.256   2.151   5.509  1.0449 -1.1398 -0.6604
11324SOL    HW234786   1.302   2.201   5.645 -0.8834 -1.9070  0.2998
11325SOL     OW34787   0.690   5.759   0.322  0.5563  0.4085  0.0304
11325SOL    HW134788   0.713   5.770   0.230 -0.8714  0.3696 -0.3541
11325SOL    HW234789   0.716   5.841   0.363  0.6783  0.6473 -0.5194
11326SOL     OW34790   2.255   5.026   7.842  0.1836 -0.8192 -0.0793
11326SOL    HW134791   2.249   5.118   7.866 -1.2369 -0.8120 -0.4067
11326SOL    HW234792   2.245   5.026   7.747  0.9107 -1.2563 -0.1589
11327SOL     OW34793   3.051   3.144   2.488 -0.5731  0.1094 -0.2719
11327SOL    HW134794   3.066   3.099   2.570 -0.0062  0.0189 -0.4227
11327SOL    HW234795   3.009   3.079   2.432  0.3944 -0.2877 -0.5452
11328SOL     OW34796   7.774   2.228   2.951 -0.4235 -0.1627 -0.0909
11328SOL    HW134797   7.721   2.307   2.937 -1.0580  0.1015  3.2576
11328SOL    HW234798   7.739   2.164   2.889 -1.7764  1.3433 -0.9233
11329SOL     OW34799   5.808   7.960   4.749  0.1689  0.2826 -0.1720
11329SOL    HW134800   5.732   7.986   4.801  0.2007  0.2484 -0.1080
11329SOL    HW234801   5.811   7.864   4.756  0.7141  0.3493  0.5246
11330SOL     OW34802   4.813   1.921   7.302  0.1450  0.1765 -0.4466
11330SOL    HW134803   4.856   2.000   7.335  0.1676  0.1551 -0.4259
11330SOL    HW234804   4.726   1.922   7.343  0.4821 -0.3093  0.2734
11331SOL     OW34805   4.154   4.198   5.036 -0.6650 -0.2246 -0.0483
11331SOL    HW134806   4.096   4.183   5.112 -0.7518  0.9656  0.1269
11331SOL    HW234807   4.115   4.146   4.966 -0.7321 -1.1385  0.6528
11332SOL     OW34808   4.534   5.620   5.000  0.1203 -0.5637  0.2229
11332SOL    HW134809   4.541   5.616   5.095  0.0390 -0.8501  0.2152
11332SOL    HW234810   4.600   5.684   4.974 -1.2862  1.1043  0.6393
11333SOL     OW34811   1.557   4.899   5.338 -0.0068 -0.2142 -0.7833
11333SOL    HW134812   1.468   4.899   5.373 -0.4511  1.7114 -1.8800
11333SOL    HW234813   1.590   4.987   5.356  0.4862  0.1528 -3.3448
11334SOL     OW34814   0.385   7.994   0.205 -0.0358 -0.3458  0.1382
11334SOL    HW134815   0.429   7.943   0.137 -2.5490 -0.9079 -1.1439
11334SOL    HW234816   0.353   7.929   0.268 -1.2818 -0.2005 -0.3201
11335SOL     OW34817   6.200   1.199   6.417  0.3732  0.1662  0.1485
11335SOL    HW134818   6.217   1.110   6.384  1.8266  0.4587  0.0408
11335SOL    HW234819   6.281   1.247   6.396  0.2519  1.0661  1.7178
11336SOL     OW34820   4.921   5.161   7.725  0.0040  0.3661  0.4906
11336SOL    HW134821   4.884   5.084   7.768 -0.4214 -0.1846 -0.8225
11336SOL    HW234822   4.987   5.125   7.666 -1.0600  0.8675 -1.0485
11337SOL     OW34823   6.707   2.550   2.472 -0.1788 -0.3911 -0.2654
11337SOL    HW134824   6.779   2.595   2.517 -0.5217  3.0319 -3.0111
11337SOL    HW234825   6.637   2.547   2.538  0.7741  0.6695  0.8355
11338SOL     OW34826   4.582   2.542   6.835 -0.3026  0.3513 -0.4705
11338SOL    HW134827   4.520   2.469   6.824  0.8062 -0.6609 -0.1478
11338SOL    HW234828   4.575   2.566   6.928 -0.1200  0.1370 -0.3990
11339SOL     OW34829   2.765   0.408   4.715  0.5707 -0.3463 -0.2937
11339SOL    HW134830   2.813   0.357   4.650  1.6089  0.7316 -0.3884
11339SOL    HW234831   2.808   0.388   4.798  0.2809 -0.4660 -0.1710
11340SOL     OW34832   5.747   2.885   6.955  0.0567  0.0194  0.6279
11340SOL    HW134833   5.786   2.967   6.986  0.2815  0.4154 -0.6486
11340SOL    HW234834   5.747   2.827   7.031  1.3578  0.6725  1.1316
11341SOL     OW34835   7.624   6.938   2.746  0.1295  0.0581  0.3889
11341SOL    HW134836   7.674   6.993   2.685  0.2891 -1.2714 -0.7176
11341SOL    HW234837   7.669   6.854   2.745 -0.5657 -0.3386  1.4525
11342SOL     OW34838   2.456   0.275   3.260 -0.0479  0.0674 -0.2168
11342SOL    HW134839   2.476   0.183   3.244 -2.0194 -0.3629 -0.3554
11342SOL    HW234840   2.516   0.301   3.330  2.0199 -0.6976 -1.6383
11343SOL     OW34841   6.294   7.971   3.301 -0.4342  0.1566 -0.2469
11343SOL    HW134842   6.207   7.940   3.326 -0.5509  0.8305  0.2169
11343SOL    HW234843   6.353   7.900   3.324 -0.6664  0.3654  1.0288
11344SOL     OW34844   2.905   2.958   7.991 -0.5873 -0.0009  0.5507
11344SOL    HW134845   2.939   2.876   7.956 -2.0031 -0.3186 -0.1090
11344SOL    HW234846   2.982   3.005   8.022  0.3964 -0.9132 -0.4909
11345SOL     OW34847   7.796   3.298   3.450  0.1697 -0.0795 -0.6653
11345SOL    HW134848   7.851   3.337   3.517  1.2741 -1.8356 -0.5118
11345SOL    HW234849   7.726   3.362   3.435  0.9490  1.1315  0.8140
11346SOL     OW34850   3.461   4.104   5.455  0.2485 -0.3249 -0.3845
11346SOL    HW134851   3.477   4.189   5.496 -0.6372 -0.2950 -0.0835
11346SOL    HW234852   3.446   4.044   5.529 -0.9290 -0.3614 -0.6398
11347SOL     OW34853   7.281   4.848   5.722  0.0416 -0.3383 -0.1158
11347SOL    HW134854   7.271   4.753   5.715  0.3250 -0.3135 -0.8247
11347SOL    HW234855   7.304   4.863   5.814  0.2330 -0.9696 -0.0623
11348SOL     OW34856   5.757   5.045   0.095 -0.1327 -0.4360  0.0115
11348SOL    HW134857   5.789   5.095   0.020 -0.0235 -0.4409  0.0555
11348SOL    HW234858   5.697   5.105   0.140 -1.0334 -0.7986 -0.6850
11349SOL     OW34859   2.389   3.451   5.216 -0.0722  0.8352 -0.2113
11349SOL    HW134860   2.303   3.493   5.210  0.1990  1.1453 -2.1471
11349SOL    HW234861   2.370   3.357   5.214 -0.2871  0.9076 -2.0712
11350SOL     OW34862   6.048   3.068   6.148  0.6804 -0.0420  0.2583
11350SOL    HW134863   5.978   3.020   6.104  0.6703  0.1260  0.0864
11350SOL    HW234864   6.126   3.014   6.135  0.8685  0.4537 -0.7841
11351SOL     OW34865   6.092   1.554   7.383  0.6410 -0.2945 -0.3370
11351SOL    HW134866   6.004   1.584   7.404  0.7004 -0.7291  0.5418
11351SOL    HW234867   6.121   1.611   7.311 -0.4801 -0.3650 -0.8489
11352SOL     OW34868   7.913   6.906   4.451  0.5778  0.4538 -0.5208
11352SOL    HW134869   7.968   6.838   4.411  0.0220 -1.1883  1.4166
11352SOL    HW234870   7.938   6.904   4.544 -2.5428 -0.1534  0.3476
11353SOL     OW34871   4.140   4.790   6.619  0.3140 -0.1228 -0.0994
11353SOL    HW134872   4.088   4.743   6.685  0.4439 -0.1670 -0.0267
11353SOL    HW234873   4.143   4.881   6.651  1.8919 -0.4974  0.9196
11354SOL     OW34874   3.102   6.826   2.496 -0.0780 -0.1304  0.6494
11354SOL    HW134875   3.023   6.874   2.520  0.1102  1.2440 -1.4027
11354SOL    HW234876   3.079   6.778   2.417  1.8895  2.5733 -1.7162
11355SOL     OW34877   5.769   1.090   4.002  0.4257 -0.0553  0.4023
11355SOL    HW134878   5.766   1.003   4.043  1.2947  0.1445  0.9114
11355SOL    HW234879   5.689   1.095   3.950  0.3441 -1.1430  0.4112
11356SOL     OW34880   4.005   6.665   3.939  0.0999 -0.0896 -0.1258
11356SOL    HW134881   3.912   6.657   3.957 -0.1426 -0.0145 -1.3378
11356SOL    HW234882   4.047   6.609   4.005 -0.8665 -1.0880 -0.3580
11357SOL     OW34883   4.283   3.969   5.940  0.0061 -0.2419 -0.0548
11357SOL    HW134884   4.221   3.997   5.873 -1.2049 -0.3249  1.0050
11357SOL    HW234885   4.254   3.882   5.965  0.0048  0.0772  1.0831
11358SOL     OW34886   6.017   0.032   7.804 -0.1955 -0.0987  0.3484
11358SOL    HW134887   5.938   0.044   7.750  0.5680 -2.4976 -1.4054
11358SOL    HW234888   5.984  -0.004   7.886 -0.9045 -1.9350 -0.7007
11359SOL     OW34889   6.153   0.170   3.962  0.4815  0.2445  0.1690
11359SOL    HW134890   6.114   0.141   4.045  1.3646  0.0152  0.5062
11359SOL    HW234891   6.182   0.259   3.979 -1.5333  1.0935 -0.6379
11360SOL     OW34892   5.043   6.925   4.724  0.8155  0.0108 -0.4852
11360SOL    HW134893   5.006   6.970   4.800  1.4119 -0.3170 -0.0023
11360SOL    HW234894   5.009   6.836   4.730 -0.8210  0.4978 -1.7467
11361SOL     OW34895   7.192   0.560   0.702  0.1941  0.3559  0.0007
11361SOL    HW134896   7.107   0.532   0.737  0.7818  0.1363  1.2947
11361SOL    HW234897   7.221   0.487   0.648 -0.2631  0.2812 -0.1506
11362SOL     OW34898   2.442   6.630   2.926 -0.2198 -0.3908  0.0365
11362SOL    HW134899   2.484   6.593   2.849  1.3425 -0.3087  0.8426
11362SOL    HW234900   2.476   6.578   2.999  0.9681  1.7399  1.0374
11363SOL     OW34901   2.214   4.839   7.220  0.0588  0.2730  0.0650
11363SOL    HW134902   2.267   4.784   7.279 -1.5865  1.4951  2.7988
11363SOL    HW234903   2.159   4.777   7.173  0.8735 -0.7047  0.3830
11364SOL     OW34904   1.303   1.387   6.260  0.6707 -0.2096 -0.0450
11364SOL    HW134905   1.329   1.305   6.300 -1.4362  0.0879  2.0622
11364SOL    HW234906   1.372   1.406   6.196  2.0124 -2.7594  0.5848
11365SOL     OW34907   0.839   1.703   4.534  0.3170 -0.3097 -0.1996
11365SOL    HW134908   0.893   1.626   4.513 -1.0972 -1.4150  0.1217
11365SOL    HW234909   0.828   1.699   4.629  1.6121  1.2414  0.0373
11366SOL     OW34910   5.822   3.693   2.101  0.3431 -0.1512 -0.0269
11366SOL    HW134911   5.851   3.640   2.175  2.9300  0.2043 -0.7608
11366SOL    HW234912   5.739   3.732   2.131  1.9201  0.9457  3.1692
11367SOL     OW34913   2.275   1.179   3.742  0.0882  0.0457 -0.2223
11367SOL    HW134914   2.340   1.111   3.723 -1.5173 -0.7270 -3.1567
11367SOL    HW234915   2.327   1.260   3.749  1.3378 -0.4411 -3.2444
11368SOL     OW34916   1.871   7.438   1.477  0.2759 -0.2963  0.3898
11368SOL    HW134917   1.855   7.478   1.392  0.8709 -0.0882  0.3677
11368SOL    HW234918   1.786   7.435   1.520 -0.0299 -0.4465 -0.2346
11369SOL     OW34919   0.765   5.601   7.735 -0.0813  0.3100  0.0208
11369SOL    HW134920   0.842   5.636   7.691  1.4931  0.0558  2.4777
11369SOL    HW234921   0.707   5.574   7.664  2.1597  0.3467 -1.8801
11370SOL     OW34922   4.090   7.089   2.528  0.5306 -0.6793 -0.1738
11370SOL    HW134923   4.143   7.065   2.605 -2.2436  0.2012  2.1149
11370SOL    HW234924   4.019   7.024   2.527  0.0760 -0.1766 -1.5182
11371SOL     OW34925   7.900   4.270   1.732  0.1996 -0.7769 -0.0794
11371SOL    HW134926   7.839   4.251   1.802 -0.1711  0.8138  0.0470
11371SOL    HW234927   7.924   4.362   1.745 -0.5551 -0.1985 -2.5336
11372SOL     OW34928   3.878   2.224   2.179  1.0490 -0.4272  0.1451
11372SOL    HW134929   3.895   2.282   2.252  1.6231 -0.7152  0.2410
11372SOL    HW234930   3.944   2.246   2.113 -1.3009  1.8921 -1.5237
11373SOL     OW34931   5.504   4.871   2.038  0.1775  0.3892 -0.2117
11373SOL    HW134932   5.428   4.815   2.053  0.6202 -0.5859 -1.5537
11373SOL    HW234933   5.473   4.960   2.056 -1.5214  0.0964 -1.5912
11374SOL     OW34934   4.240   7.759   1.138  0.2919 -0.3207 -0.4956
11374SOL    HW134935   4.151   7.793   1.129 -0.3504 -1.9216 -0.2560
11374SOL    HW234936   4.286   7.828   1.187 -0.8683  0.4149 -0.4016
11375SOL     OW34937   3.931   6.932   2.170  0.0755 -0.0969  0.0700
11375SOL    HW134938   3.895   7.008   2.124  1.6136 -0.0733 -1.0899
11375SOL    HW234939   3.917   6.859   2.111  1.8072 -0.1157 -0.3136
11376SOL     OW34940   5.733   2.028   4.210 -0.0272  0.1408 -0.6568
11376SOL    HW134941   5.781   1.946   4.213  0.0385  0.1862 -0.4084
11376SOL    HW234942   5.784   2.087   4.266  1.2251  1.0434 -2.7006
11377SOL     OW34943   3.137   3.351   3.769 -0.0343 -0.0592 -0.3981
11377SOL    HW134944   3.173   3.440   3.765  2.0666 -0.8609  0.0794
11377SOL    HW234945   3.161   3.320   3.856 -0.4486 -1.2244 -0.7006
11378SOL     OW34946   4.176   4.190   0.882 -0.2971  0.1767 -0.3684
11378SOL    HW134947   4.207   4.269   0.836  0.6346  1.0005  1.6346
11378SOL    HW234948   4.240   4.122   0.857 -0.4284  0.3316 -1.1580
11379SOL     OW34949   5.505   3.406   3.254  0.1003  0.1750 -0.1031
11379SOL    HW134950   5.521   3.314   3.276 -3.0874 -0.5298 -0.3518
11379SOL    HW234951   5.470   3.403   3.165 -0.4283  1.5897  0.0455
11380SOL     OW34952   4.417   1.660   2.199 -0.0676  0.3278  0.1048
11380SOL    HW134953   4.426   1.715   2.121 -1.4880  0.0779 -0.2502
11380SOL    HW234954   4.406   1.722   2.271  0.1696  0.5416 -0.0429
11381SOL     OW34955   5.714   4.900   4.468  0.4402  0.0138  0.1912
11381SOL    HW134956   5.661   4.824   4.496 -1.0083  0.2700 -1.7565
11381SOL    HW234957   5.649   4.963   4.436  1.8639  0.8612 -1.0362
11382SOL     OW34958   1.127   3.162   5.810  0.0631 -0.2392  0.1333
11382SOL    HW134959   1.174   3.086   5.774 -1.0651 -0.6887 -0.3978
11382SOL    HW234960   1.197   3.222   5.838  0.9583 -0.4819 -1.5241
11383SOL     OW34961   1.281   6.383   5.325  0.0933 -0.3370  0.3224
11383SOL    HW134962   1.196   6.409   5.362 -1.3262 -1.0115 -2.3688
11383SOL    HW234963   1.287   6.433   5.244  0.4161 -3.3036 -1.5257
11384SOL     OW34964   4.262   5.337   2.320 -0.7352 -0.1133 -0.2204
11384SOL    HW134965   4.295   5.276   2.386  0.7447 -1.2811 -1.9751
11384SOL    HW234966   4.313   5.317   2.241 -1.5155  2.1578 -1.3521
11385SOL     OW34967   6.142   2.874   7.756  0.5604  0.0938  1.1438
11385SOL    HW134968   6.148   2.868   7.851 -0.1936  1.8791  1.3147
11385SOL    HW234969   6.050   2.896   7.739  0.6884 -0.2430  0.0107
11386SOL     OW34970   3.148   2.060   4.858  0.5333  0.3450 -0.4531
11386SOL    HW134971   3.166   1.968   4.873 -0.3513 -0.1783 -2.4389
11386SOL    HW234972   3.126   2.066   4.765  2.4636  2.8580 -0.8255
11387SOL     OW34973   2.889   2.692   7.827 -0.3085 -0.5346 -0.0641
11387SOL    HW134974   2.811   2.651   7.867 -0.9350  1.0628  0.3873
11387SOL    HW234975   2.874   2.683   7.733 -0.5873 -1.0717  0.0246
11388SOL     OW34976   3.473   3.201   1.770 -0.2798 -0.3824  0.3954
11388SOL    HW134977   3.482   3.108   1.749 -0.5236 -0.1253 -0.8770
11388SOL    HW234978   3.452   3.202   1.864  2.2584 -1.4817  1.0037
11389SOL     OW34979   7.253   0.156   1.109  0.0884 -0.1904  0.2338
11389SOL    HW134980   7.234   0.062   1.104  0.2521 -0.3569  2.3442
11389SOL    HW234981   7.322   0.170   1.044 -0.5157 -1.3516 -0.6909
11390SOL     OW34982   5.349   7.706   4.254  0.9176 -0.1262 -0.1021
11390SOL    HW134983   5.322   7.656   4.332 -0.4627  0.2820 -0.3196
11390SOL    HW234984   5.443   7.689   4.248  0.7256 -1.6248  0.6159
11391SOL     OW34985   0.603   6.890   1.682  0.8177  0.4235  0.2997
11391SOL    HW134986   0.538   6.822   1.664  2.5198 -1.0742 -0.3265
11391SOL    HW234987   0.617   6.934   1.598  1.7006 -0.2481  0.0865
11392SOL     OW34988   7.377   6.728   6.543  0.1838  0.3889  0.9423
11392SOL    HW134989   7.395   6.636   6.524 -0.3884  0.7529 -1.4188
11392SOL    HW234990   7.358   6.729   6.637  0.6312 -1.8254  1.0901
11393SOL     OW34991   2.861   2.142   0.452 -0.2912  0.0632 -0.2131
11393SOL    HW134992   2.890   2.207   0.388  1.3782  1.4334  1.8510
11393SOL    HW234993   2.783   2.181   0.491  1.3791  1.4624  1.8590
11394SOL     OW34994   6.402   3.349   0.873 -0.0066 -0.7484 -0.3971
11394SOL    HW134995   6.326   3.408   0.871 -0.1851 -0.8878  1.2667
11394SOL    HW234996   6.364   3.262   0.868  0.0096 -0.8301  0.7734
11395SOL     OW34997   7.219   4.242   5.329 -0.1339  0.4256  0.3495
11395SOL    HW134998   7.171   4.324   5.316  1.4233  1.2449 -0.4668
11395SOL    HW234999   7.156   4.174   5.305 -1.3252  1.3973  0.6403
11396SOL     OW35000   3.725   6.583   5.727 -0.5181 -0.1808  0.1412
11396SOL    HW135001   3.660   6.537   5.674  0.0522  1.3839 -1.9707
11396SOL    HW235002   3.678   6.607   5.806 -2.2366  0.0516 -0.9199
11397SOL     OW35003   1.014   1.645   5.912  0.2467  0.6050  0.7772
11397SOL    HW135004   1.033   1.557   5.945 -0.5078  1.0370  2.4380
11397SOL    HW235005   1.050   1.647   5.824 -0.6609 -1.7204  0.3369
11398SOL     OW35006   1.931   5.630   3.409 -0.1287  0.0969 -0.6459
11398SOL    HW135007   1.940   5.720   3.441  0.1400  0.7396 -2.4835
11398SOL    HW235008   1.894   5.582   3.483  1.8127  1.2293  1.1432
11399SOL     OW35009   1.281   1.130   7.567  0.1242 -0.0669 -0.5117
11399SOL    HW135010   1.314   1.105   7.480 -0.1283  0.0170 -0.6328
11399SOL    HW235011   1.187   1.112   7.563 -0.3401  2.3511 -1.1408
11400SOL     OW35012   0.267   5.831   4.942 -0.1642 -0.1361 -0.3264
11400SOL    HW135013   0.251   5.787   4.858 -1.5728 -0.3009  0.0089
11400SOL    HW235014   0.181   5.833   4.985  0.2564  1.2254  0.4995
11401SOL     OW35015   0.400   7.532   2.573 -0.6712  0.1039 -0.2635
11401SOL    HW135016   0.357   7.498   2.651 -1.9178  0.7557 -0.6579
11401SOL    HW235017   0.436   7.454   2.529 -0.4041 -0.3146  0.6798
11402SOL     OW35018   5.363   5.788   6.131 -0.1299 -0.4375 -0.2232
11402SOL    HW135019   5.449   5.762   6.163  0.5379 -1.0383 -2.3864
11402SOL    HW235020   5.381   5.861   6.071 -1.4141  1.2421  1.3686
11403SOL     OW35021   6.226   6.372   2.904  0.4218 -0.3662 -0.2747
11403SOL    HW135022   6.302   6.373   2.846  0.3970  0.9369 -0.2962
11403SOL    HW235023   6.221   6.460   2.939  0.1221 -0.9993  1.3245
11404SOL     OW35024   4.836   4.877   1.963 -0.3262 -0.2519 -0.0447
11404SOL    HW135025   4.816   4.792   1.923 -1.6023  0.1594 -0.3003
11404SOL    HW235026   4.752   4.923   1.965  0.0672  0.4352  1.4701
11405SOL     OW35027   6.311   3.488   7.550 -0.4021 -0.0832 -0.1736
11405SOL    HW135028   6.354   3.524   7.627  0.7046 -0.0543 -0.8018
11405SOL    HW235029   6.246   3.555   7.526 -2.1304 -0.9649  1.8753
11406SOL     OW35030   5.493   3.490   4.494 -0.4307  0.0149  0.0761
11406SOL    HW135031   5.494   3.395   4.495 -0.8374  0.0207  1.0902
11406SOL    HW235032   5.408   3.514   4.531 -0.4110  0.7732 -0.3474
11407SOL     OW35033   1.620   7.772   5.306  0.6283  0.4344  0.6327
11407SOL    HW135034   1.669   7.850   5.281 -0.3713  0.9308  0.1915
11407SOL    HW235035   1.547   7.768   5.244  0.8260 -1.0045  0.4753
11408SOL     OW35036   5.109   2.549   5.066  0.0915  0.1162 -0.1939
11408SOL    HW135037   5.102   2.643   5.050 -0.0474  0.2057  0.3823
11408SOL    HW235038   5.162   2.543   5.145  0.1399 -0.2920 -0.2603
11409SOL     OW35039   0.731   1.076   5.403  0.1619 -0.1066 -0.2542
11409SOL    HW135040   0.781   1.139   5.453  0.6239 -0.3499 -0.4111
11409SOL    HW235041   0.705   1.009   5.467 -0.4999  0.3393 -0.0465
11410SOL     OW35042   5.536   7.868   7.833  0.8074  0.5969 -0.7386
11410SOL    HW135043   5.603   7.805   7.859  0.8936  0.2252 -1.8343
11410SOL    HW235044   5.491   7.891   7.915  0.2366 -1.5088 -0.4318
11411SOL     OW35045   0.267   4.335   7.573  0.0491  0.2841 -0.0271
11411SOL    HW135046   0.231   4.253   7.540  3.0159 -1.4672  0.9150
11411SOL    HW235047   0.261   4.328   7.668 -0.0101  1.3273  0.0532
11412SOL     OW35048   0.817   4.806   7.331  0.1911 -0.7478 -0.7622
11412SOL    HW135049   0.733   4.805   7.285 -0.4795 -1.3297  0.4467
11412SOL    HW235050   0.870   4.870   7.284 -1.3973  0.6122 -0.7173
11413SOL     OW35051   4.155   3.165   6.563 -0.0089  0.1051 -0.2889
11413SOL    HW135052   4.194   3.084   6.529 -0.3132 -0.1335 -0.0753
11413SOL    HW235053   4.127   3.212   6.484  2.4510  1.1882 -0.5572
11414SOL     OW35054   5.663   7.340   2.540 -0.0641  0.0787 -0.4779
11414SOL    HW135055   5.720   7.405   2.498 -0.2438 -0.6403 -1.8674
11414SOL    HW235056   5.721   7.290   2.597 -0.1437  2.2282  1.5639
11415SOL     OW35057   3.956   0.949   1.601  0.0391 -0.4898 -0.2616
11415SOL    HW135058   3.899   0.902   1.663 -1.0304  1.1134 -0.0014
11415SOL    HW235059   3.897   0.977   1.531  0.5851  0.8324 -0.1954
11416SOL     OW35060   4.685   5.163   3.798 -0.0268  0.1690  0.0436
11416SOL    HW135061   4.757   5.224   3.817  0.0512  0.4594 -1.1489
11416SOL    HW235062   4.682   5.105   3.874  1.8304 -0.1962 -0.1503
11417SOL     OW35063   2.024   7.889   4.861  0.4250  0.3513  0.2680
11417SOL    HW135064   1.999   7.913   4.771  1.0166 -1.1299 -0.3038
11417SOL    HW235065   1.956   7.828   4.889 -0.1304  1.3177  1.1024
11418SOL     OW35066   4.119   5.133   5.264  0.0330  0.5454 -0.6053
11418SOL    HW135067   4.166   5.217   5.262  1.2055 -0.0605  0.6268
11418SOL    HW235068   4.130   5.102   5.354 -0.3873 -0.9294 -1.0547
11419SOL     OW35069   5.605   2.507   6.182  0.4002  0.4405 -0.7761
11419SOL    HW135070   5.520   2.467   6.164 -0.0790  0.8964  0.4109
11419SOL    HW235071   5.586   2.576   6.245  2.1637 -1.9691  2.5527
11420SOL     OW35072   0.577   7.427   5.091  0.3164  0.0218  0.4560
11420SOL    HW135073   0.501   7.373   5.112 -0.8479  1.1929 -0.6313
11420SOL    HW235074   0.568   7.447   4.998  0.9857  1.6643  0.7159
11421SOL     OW35075   6.538   7.357   6.017 -0.7462 -0.1512 -0.3845
11421SOL    HW135076   6.461   7.363   6.073 -0.7556 -0.7304 -0.3323
11421SOL    HW235077   6.560   7.448   5.996 -0.3536  0.1149  1.0997
11422SOL     OW35078   0.448   7.993   1.176  0.6059  0.5883  0.2482
11422SOL    HW135079   0.461   7.899   1.169  0.2195  0.4239  1.5515
11422SOL    HW235080   0.487   8.029   1.096 -0.5708 -0.7956 -0.9666
11423SOL     OW35081   7.784   3.134   1.704  0.2937 -0.4671 -0.4752
11423SOL    HW135082   7.834   3.082   1.766 -0.6104 -0.0055  0.6644
11423SOL    HW235083   7.719   3.179   1.757 -0.6108 -0.1907 -1.7801
11424SOL     OW35084   5.636   6.129   7.503  0.0767 -0.1066 -0.4661
11424SOL    HW135085   5.650   6.162   7.414 -0.0649 -0.4266 -0.6087
11424SOL    HW235086   5.705   6.170   7.555  0.5832 -0.4564 -0.8593
11425SOL     OW35087   3.612   3.327   4.287  0.5498 -0.3599 -0.4640
11425SOL    HW135088   3.600   3.309   4.193  0.2289  1.1310 -0.7202
11425SOL    HW235089   3.707   3.328   4.299  0.7300  3.0697 -1.5495
11426SOL     OW35090   7.503   0.619   5.105 -0.2284 -0.2285 -0.4478
11426SOL    HW135091   7.432   0.598   5.045 -0.2815 -0.6369 -0.2485
11426SOL    HW235092   7.468   0.599   5.192 -0.9303  2.5114 -0.0646
11427SOL     OW35093   5.391   3.633   1.911 -0.1383  0.1933  0.1558
11427SOL    HW135094   5.298   3.653   1.923  0.1787  2.9947 -1.5029
11427SOL    HW235095   5.428   3.634   1.999 -1.4458  0.4829  0.7016
11428SOL     OW35096   3.245   7.550   7.520  0.0018  0.0543 -0.0673
11428SOL    HW135097   3.213   7.613   7.585  0.7692  1.8144 -1.3273
11428SOL    HW235098   3.205   7.580   7.437  0.9208 -0.7139 -0.7924
11429SOL     OW35099   5.972   7.280   7.214  0.2949 -0.2084 -0.5409
11429SOL    HW135100   5.894   7.280   7.158  1.5026  0.6436 -2.2794
11429SOL    HW235101   5.983   7.188   7.239 -0.6403 -0.4988 -1.1626
11430SOL     OW35102   1.479   6.176   3.243 -0.3268  0.3445  0.0380
11430SOL    HW135103   1.494   6.183   3.337  0.1639 -1.4683  0.1144
11430SOL    HW235104   1.562   6.201   3.203  0.2284 -1.2147  0.1807
11431SOL     OW35105   2.983   5.326   5.654 -0.2290  0.0191 -0.2279
11431SOL    HW135106   2.974   5.420   5.671 -2.4737 -0.1893 -0.0381
11431SOL    HW235107   2.919   5.309   5.586 -0.0661 -1.4420 -0.0162
11432SOL     OW35108   6.492   1.867   1.265 -0.0084  0.3319 -0.0091
11432SOL    HW135109   6.484   1.806   1.339 -0.9107  0.2971 -0.1375
11432SOL    HW235110   6.562   1.926   1.292  0.6073 -0.5149  0.2917
11433SOL     OW35111   5.877   3.888   3.403 -0.4103  0.2407 -0.0865
11433SOL    HW135112   5.806   3.901   3.340 -0.6852 -3.5140 -0.6132
11433SOL    HW235113   5.836   3.903   3.488 -1.3247  0.0998 -0.4952
11434SOL     OW35114   4.763   6.852   0.373  0.4916 -0.2327  0.3131
11434SOL    HW135115   4.838   6.792   0.381  1.1331  0.5346  0.0457
11434SOL    HW235116   4.789   6.929   0.424 -0.4684 -0.3070  0.9230
11435SOL     OW35117   5.781   7.802   7.312 -0.4855 -0.1978  0.3360
11435SOL    HW135118   5.690   7.829   7.319 -0.7417 -1.6130  2.7128
11435SOL    HW235119   5.810   7.840   7.229 -3.3082 -0.0063 -0.6171
11436SOL     OW35120   3.362   1.167   6.786 -1.0649  0.1514 -0.3736
11436SOL    HW135121   3.316   1.240   6.828 -1.9521 -0.7583  0.2726
11436SOL    HW235122   3.313   1.089   6.813 -1.2540 -0.5241 -2.5634
11437SOL     OW35123   0.996   7.796   5.528 -0.0850  0.3104  0.3800
11437SOL    HW135124   0.981   7.716   5.577  0.2316  0.8444  1.3652
11437SOL    HW235125   0.999   7.768   5.436  0.6549 -0.8815  0.7603
11438SOL     OW35126   1.418   2.768   6.386 -0.2214 -0.0655  0.1289
11438SOL    HW135127   1.450   2.803   6.468  0.0021  1.3795 -0.5651
11438SOL    HW235128   1.326   2.793   6.383 -1.3521 -3.6575  1.8192
11439SOL     OW35129   2.363   0.483   5.837 -0.4878 -0.0161  0.2401
11439SOL    HW135130   2.281   0.461   5.881  0.3448 -2.0106  0.8353
11439SOL    HW235131   2.370   0.422   5.764  1.7765 -1.7327  1.8213
11440SOL     OW35132   1.113   7.679   5.254 -0.5023  0.1771 -0.1184
11440SOL    HW135133   1.187   7.691   5.312 -0.0183  1.3304 -0.9729
11440SOL    HW235134   1.151   7.665   5.167 -1.2597  0.2647 -0.4759
11441SOL     OW35135   0.165   4.610   7.707  0.1433  0.3345  0.4474
11441SOL    HW135136   0.224   4.585   7.636 -0.5784  0.1090 -0.0804
11441SOL    HW235137   0.096   4.544   7.705  0.2211  0.2195  1.4900
11442SOL     OW35138   4.874   2.404   6.334  0.6544 -0.8057 -0.1061
11442SOL    HW135139   4.923   2.447   6.404  1.2141 -0.1633 -0.8948
11442SOL    HW235140   4.825   2.475   6.292  0.6790 -1.1171 -0.6653
11443SOL     OW35141   6.397   2.954   3.966 -0.2163 -0.6289  0.1367
11443SOL    HW135142   6.329   2.930   3.904 -1.7227 -0.4112  1.6613
11443SOL    HW235143   6.475   2.969   3.912 -1.3311 -1.0183 -1.6131
11444SOL     OW35144   1.693   2.100   7.378  0.6911 -0.6344  0.0410
11444SOL    HW135145   1.625   2.066   7.436  1.9574 -2.8781  0.2270
11444SOL    HW235146   1.740   2.165   7.431 -1.9392  1.7511 -0.4318
11445SOL     OW35147   4.406   6.502   5.731 -0.6199 -0.0592  0.1464
11445SOL    HW135148   4.466   6.434   5.763  0.1671  0.2326 -0.6814
11445SOL    HW235149   4.462   6.578   5.717 -1.1625  0.1793 -0.7513
11446SOL     OW35150   7.388   5.399   0.886  0.1711  0.3276  0.3040
11446SOL    HW135151   7.392   5.494   0.897  1.8135  0.2612  0.3361
11446SOL    HW235152   7.451   5.380   0.816 -1.5400 -0.5316 -1.0307
11447SOL     OW35153   4.077   3.249   4.205 -0.1042  0.2128  0.5588
11447SOL    HW135154   4.111   3.338   4.205  2.9412 -0.8621  0.9831
11447SOL    HW235155   4.131   3.203   4.140 -1.9291 -1.2114 -0.0014
11448SOL     OW35156   1.383   5.666   5.475 -0.2359  0.3745 -0.8170
11448SOL    HW135157   1.383   5.570   5.478  0.8960  0.3424 -1.6616
11448SOL    HW235158   1.371   5.693   5.566 -1.8578 -0.5528 -0.7283
11449SOL     OW35159   3.500   0.949   5.900 -0.0101 -0.7280  0.3232
11449SOL    HW135160   3.484   0.863   5.861 -0.8273 -1.4722  2.2338
11449SOL    HW235161   3.593   0.946   5.926  0.0662 -0.8893  0.0397
11450SOL     OW35162   5.058   5.117   6.130  0.4666 -0.0450 -0.0029
11450SOL    HW135163   5.078   5.202   6.171  1.8637  0.4785 -1.7509
11450SOL    HW235164   5.136   5.064   6.145 -0.4176 -1.0477  1.1075
11451SOL     OW35165   4.083   2.084   0.576 -0.0914 -0.1791 -0.5541
11451SOL    HW135166   3.999   2.108   0.616 -0.3262  1.9488 -2.2363
11451SOL    HW235167   4.060   2.052   0.489  0.9096  1.9955 -1.6721
11452SOL     OW35168   5.410   0.956   2.101  0.4090  0.2024  0.2225
11452SOL    HW135169   5.430   0.895   2.030  2.4378  0.5150  0.4946
11452SOL    HW235170   5.469   0.930   2.172  1.5028  2.6376  0.2465
11453SOL     OW35171   0.251   4.532   1.768  0.4206 -0.5477 -0.3997
11453SOL    HW135172   0.332   4.583   1.771  0.0086  0.0215  2.3092
11453SOL    HW235173   0.235   4.507   1.859 -2.3266 -0.8325 -0.9107
11454SOL     OW35174   5.320   1.855   6.112 -0.5238  0.3526 -0.4532
11454SOL    HW135175   5.251   1.886   6.170 -0.3141 -0.0434  0.0097
11454SOL    HW235176   5.370   1.934   6.090 -0.2613  0.4205  0.3617
11455SOL     OW35177   2.407   1.148   4.952  0.6271 -0.1916  0.2716
11455SOL    HW135178   2.344   1.135   4.881  1.6700  0.6760 -0.8286
11455SOL    HW235179   2.476   1.084   4.935 -0.2156 -1.5573  1.8176
11456SOL     OW35180   5.006   1.236   4.663 -0.5317  0.4342  0.0548
11456SOL    HW135181   4.946   1.305   4.632 -0.2814 -0.0806 -1.6305
11456SOL    HW235182   4.969   1.208   4.746 -1.0538  2.0927  0.4104
11457SOL     OW35183   2.275   4.697   0.756 -0.3224 -0.3403  0.6552
11457SOL    HW135184   2.190   4.692   0.713 -0.7209  1.5280  1.1927
11457SOL    HW235185   2.288   4.790   0.773  1.6265 -0.6555  0.9977
11458SOL     OW35186   6.140   2.178   1.210  0.4640 -0.1284  0.3418
11458SOL    HW135187   6.167   2.087   1.198  2.2182  0.1860  1.6826
11458SOL    HW235188   6.107   2.205   1.125 -1.4327 -2.4548  0.3151
11459SOL     OW35189   1.686   5.163   4.066  0.1176 -0.5463 -0.5065
11459SOL    HW135190   1.740   5.169   3.986 -0.4195  2.9360 -0.6874
11459SOL    HW235191   1.721   5.231   4.123 -2.0821 -0.3463  0.6388
11460SOL     OW35192   5.987   6.695   0.839 -0.1288  0.9771 -0.1179
11460SOL    HW135193   6.017   6.715   0.751 -0.8072 -0.2590 -0.6366
11460SOL    HW235194   6.062   6.716   0.895 -0.3941  3.7462 -0.7493
11461SOL     OW35195   5.024   3.053   5.113  0.6193 -0.0431 -0.1762
11461SOL    HW135196   4.991   3.007   5.036 -1.5138  0.7454  0.2472
11461SOL    HW235197   5.008   2.993   5.186 -0.3537  0.5686  0.1062
11462SOL     OW35198   4.491   1.292   5.270 -0.1330 -0.3461  0.5547
11462SOL    HW135199   4.586   1.281   5.278 -0.1822 -1.6493 -0.5018
11462SOL    HW235200   4.471   1.262   5.181 -1.5864 -0.4616  0.9133
11463SOL     OW35201   1.573   5.476   7.425 -0.0685  0.6119 -0.3749
11463SOL    HW135202   1.508   5.531   7.382  0.5033  0.7917 -1.0273
11463SOL    HW235203   1.657   5.504   7.387  0.0967 -1.8562 -2.0234
11464SOL     OW35204   3.541   1.800   5.391 -0.0851 -0.5880  0.0093
11464SOL    HW135205   3.478   1.838   5.452  0.5001 -0.9863  0.8637
11464SOL    HW235206   3.588   1.735   5.442  0.6378 -0.6981 -0.7836
11465SOL     OW35207   1.684   0.335   7.232  0.4507 -1.1413  0.3670
11465SOL    HW135208   1.611   0.378   7.276  1.5347  0.6588  0.4376
11465SOL    HW235209   1.651   0.319   7.143  0.7779  1.8799 -0.3469
11466SOL     OW35210   0.070   6.265   6.446 -0.6164  0.1050 -0.2142
11466SOL    HW135211  -0.016   6.275   6.486 -0.3103  0.4897  0.3735
11466SOL    HW235212   0.058   6.290   6.355 -1.2306 -0.3352 -0.2616
11467SOL     OW35213   5.511   6.816   4.802 -0.1420 -0.4763 -0.1821
11467SOL    HW135214   5.543   6.906   4.808  0.2847 -0.4815 -2.0189
11467SOL    HW235215   5.467   6.800   4.885  1.2477  0.8619  0.8320
11468SOL     OW35216   7.106   5.211   2.627  0.1847 -0.0271 -0.2290
11468SOL    HW135217   7.083   5.297   2.592 -1.9564 -0.5762 -0.2017
11468SOL    HW235218   7.040   5.194   2.694  0.4075 -1.8398 -0.4555
11469SOL     OW35219   1.870   7.943   6.486  0.7059  0.1510 -0.5100
11469SOL    HW135220   1.839   7.863   6.444  0.4337 -0.6973  1.2403
11469SOL    HW235221   1.803   7.964   6.551  1.6040  0.8116  0.2275
11470SOL     OW35222   0.860   4.071   2.860  0.0252 -0.1314 -0.4281
11470SOL    HW135223   0.911   3.994   2.833  0.0579  0.3003 -1.6658
11470SOL    HW235224   0.769   4.041   2.859  0.0548 -0.2121 -0.7069
11471SOL     OW35225   5.410   4.131   6.211 -0.6248  0.0241 -0.3559
11471SOL    HW135226   5.503   4.116   6.228 -0.8548  0.8312  1.7408
11471SOL    HW235227   5.366   4.095   6.288 -1.9126  1.5123 -0.3936
11472SOL     OW35228   0.511   3.128   7.966  0.0989 -0.1908  0.6276
11472SOL    HW135229   0.452   3.165   8.031 -1.7962  0.4241 -1.3720
11472SOL    HW235230   0.492   3.034   7.966 -0.6820 -0.0411  0.2259
11473SOL     OW35231   4.226   3.854   0.686  0.5178 -0.2386  0.2593
11473SOL    HW135232   4.273   3.927   0.645  1.8060 -0.7268  0.8472
11473SOL    HW235233   4.134   3.876   0.677  0.8945  1.2227 -0.0094
11474SOL     OW35234   5.504   5.789   4.476  0.4413  0.1083 -0.4335
11474SOL    HW135235   5.528   5.698   4.491 -0.2081 -0.1512 -0.9456
11474SOL    HW235236   5.494   5.796   4.381 -1.3797  0.2298 -0.2509
11475SOL     OW35237   1.869   4.453   5.005  0.3851  0.0889 -0.1984
11475SOL    HW135238   1.914   4.431   5.086  0.9039  0.7473 -0.3066
11475SOL    HW235239   1.891   4.382   4.945  1.2470  0.3818 -0.2373
11476SOL     OW35240   2.284   3.735   0.618 -0.0971  0.1127  0.2958
11476SOL    HW135241   2.322   3.755   0.703  0.0323 -1.1560  0.5390
11476SOL    HW235242   2.191   3.722   0.636  0.1082 -1.2407  0.4315
11477SOL     OW35243   2.662   4.182   5.733  0.3493  0.6311 -0.6854
11477SOL    HW135244   2.725   4.193   5.804  0.8463  1.3199 -1.2276
11477SOL    HW235245   2.588   4.237   5.757  1.1876  2.1372 -1.4702
11478SOL     OW35246   6.168   6.852   0.315  0.2284  0.3598 -0.4439
11478SOL    HW135247   6.124   6.778   0.356  0.5601  0.5750  0.3244
11478SOL    HW235248   6.110   6.926   0.330  0.2940  0.4159 -0.4650
11479SOL     OW35249   7.936   4.805   4.810  0.2823  0.4819 -0.5406
11479SOL    HW135250   8.021   4.849   4.819  0.3062  0.0004  1.6967
11479SOL    HW235251   7.958   4.714   4.790  0.3404 -0.0934  2.0561
11480SOL     OW35252   4.223   4.171   5.599 -0.2278 -0.0289 -0.2816
11480SOL    HW135253   4.238   4.265   5.607  0.3627 -0.0981 -0.5769
11480SOL    HW235254   4.276   4.144   5.524 -1.1737 -0.4231 -0.8130
11481SOL     OW35255   6.862   1.086   7.612 -0.1336 -0.1106 -0.5311
11481SOL    HW135256   6.922   1.131   7.552  1.5611 -0.8037  0.6061
11481SOL    HW235257   6.816   1.157   7.657  0.0811  0.4389 -1.1721
11482SOL     OW35258   6.922   1.107   5.513  0.5893 -0.2296  0.1241
11482SOL    HW135259   6.898   1.186   5.562  0.6581  0.6417 -1.2053
11482SOL    HW235260   7.008   1.127   5.476  0.8926 -1.1825  0.2889
11483SOL     OW35261   1.371   6.396   1.997 -0.1103 -0.3309  0.0382
11483SOL    HW135262   1.302   6.436   1.944 -0.2005  1.0775  1.1692
11483SOL    HW235263   1.325   6.336   2.055 -0.3065 -0.0046  0.2255
11484SOL     OW35264   4.268   6.500   1.372 -0.0051 -0.1886  0.0854
11484SOL    HW135265   4.301   6.515   1.461 -0.6411  0.3114  0.2389
11484SOL    HW235266   4.213   6.575   1.354  0.5494 -0.0198 -0.9480
11485SOL     OW35267   7.491   5.929   5.570 -0.0655  0.2428 -0.3440
11485SOL    HW135268   7.547   5.937   5.647 -0.2555  1.0738 -0.2877
11485SOL    HW235269   7.535   5.981   5.502 -1.6196  2.3179  0.1950
11486SOL     OW35270   3.353   6.105   6.822 -0.8202  0.1765  0.7584
11486SOL    HW135271   3.266   6.102   6.863 -1.0831 -1.1371  0.1340
11486SOL    HW235272   3.409   6.055   6.881 -0.5182  0.8826  1.0742
11487SOL     OW35273   0.002   0.834   3.643 -0.1901  0.4806 -0.1405
11487SOL    HW135274  -0.051   0.803   3.570  2.4287 -2.8088 -0.7890
11487SOL    HW235275  -0.039   0.796   3.721  0.6736 -1.4042 -0.5675
11488SOL     OW35276   1.646   2.679   2.970  0.1584 -0.0594  0.3102
11488SOL    HW135277   1.628   2.715   2.883 -0.7887 -2.3767 -0.4941
11488SOL    HW235278   1.698   2.747   3.013 -0.2803  1.6024 -1.6619
11489SOL     OW35279   1.490   0.881   6.902 -0.0444  0.3451 -0.2584
11489SOL    HW135280   1.526   0.959   6.945  2.0030 -0.6494 -0.1146
11489SOL    HW235281   1.426   0.916   6.840  0.4390  2.1036  0.1903
11490SOL     OW35282   3.325   6.473   0.539  0.4982 -0.4764 -0.0270
11490SOL    HW135283   3.236   6.441   0.524 -0.3963  1.9073 -0.0204
11490SOL    HW235284   3.337   6.543   0.474  1.6805  0.4637  1.1672
11491SOL     OW35285   3.189   5.726   0.731 -0.0993 -0.4790  0.0234
11491SOL    HW135286   3.195   5.792   0.800  0.2799 -0.9851  0.4746
11491SOL    HW235287   3.123   5.761   0.671  0.2870  0.4365  0.1208
11492SOL     OW35288   2.996   1.445   1.979 -0.0199 -0.1603  0.2393
11492SOL    HW135289   2.946   1.409   2.053 -3.2416  0.0181 -1.7586
11492SOL    HW235290   2.992   1.540   1.992 -0.5255 -0.1316 -0.1338
11493SOL     OW35291   1.275   5.592   5.097 -0.1182  0.1436  0.0890
11493SOL    HW135292   1.195   5.582   5.046 -0.1716 -0.0493  0.2094
11493SOL    HW235293   1.344   5.559   5.039 -0.3802 -1.6051  0.7483
11494SOL     OW35294   1.814   7.907   4.461 -0.4154  0.4752  0.3056
11494SOL    HW135295   1.746   7.937   4.522 -0.0834  0.9828  0.4253
11494SOL    HW235296   1.826   7.815   4.483 -2.4972 -0.1602 -1.0570
11495SOL     OW35297   6.907   3.249   5.085 -0.3292 -0.5910 -0.0016
11495SOL    HW135298   6.962   3.230   5.161  1.3122 -0.5476 -1.1652
11495SOL    HW235299   6.891   3.163   5.046  0.2925 -0.4448 -0.5933
11496SOL     OW35300   5.376   7.624   5.845  0.0609 -0.0623  0.3034
11496SOL    HW135301   5.403   7.587   5.761 -1.4604  1.7533 -1.0562
11496SOL    HW235302   5.331   7.553   5.890  2.4230 -1.5718  0.3645
11497SOL     OW35303   3.313   0.660   0.554  0.1409  0.2978 -0.3079
11497SOL    HW135304   3.364   0.736   0.525  1.2830  0.0205  0.8869
11497SOL    HW235305   3.324   0.596   0.484  1.9275  0.0386  0.1660
11498SOL     OW35306   2.503   6.573   5.122  0.0331  0.0185  0.3089
11498SOL    HW135307   2.510   6.637   5.193  1.2291 -1.6643  1.7265
11498SOL    HW235308   2.584   6.523   5.126 -0.7931 -1.4685 -0.9033
11499SOL     OW35309   4.063   2.738   1.955 -0.0937  0.1286  0.6588
11499SOL    HW135310   4.033   2.695   2.035  0.8220 -1.1975  0.3048
11499SOL    HW235311   4.143   2.783   1.981 -0.2945  0.4620  0.7012
11500SOL     OW35312   4.892   5.842   0.810 -0.1234 -0.0556  0.2263
11500SOL    HW135313   4.953   5.828   0.738 -0.7547  1.1476 -0.5734
11500SOL    HW235314   4.940   5.895   0.873  0.2625 -0.6724  0.4486
11501SOL     OW35315   5.667   4.741   3.352 -0.2387 -0.1652  0.5363
11501SOL    HW135316   5.644   4.831   3.328 -2.4046 -0.9258 -0.3351
11501SOL    HW235317   5.636   4.732   3.442  0.7543  0.2082  0.9256
11502SOL     OW35318   6.348   1.546   1.644  0.4907 -0.5539 -0.4038
11502SOL    HW135319   6.271   1.509   1.688  0.6555  1.8445  2.0120
11502SOL    HW235320   6.314   1.622   1.597  0.9218 -1.0912 -1.5826
11503SOL     OW35321   4.597   0.012   4.285 -0.6288 -0.4310 -0.1474
11503SOL    HW135322   4.618   0.085   4.343  0.3932 -0.1602 -0.8475
11503SOL    HW235323   4.503   0.022   4.268 -0.2490  1.5062 -1.2771
11504SOL     OW35324   0.138   2.306   1.657  0.0579 -0.0613  0.8754
11504SOL    HW135325   0.120   2.391   1.697  0.6314  1.9321 -2.9528
11504SOL    HW235326   0.232   2.307   1.638  0.1231 -1.6812  0.9813
11505SOL     OW35327   3.760   2.836   7.299  0.2034  0.0195 -0.3215
11505SOL    HW135328   3.720   2.920   7.319  1.3105  0.2335  1.0492
11505SOL    HW235329   3.784   2.842   7.206  0.2665  1.2081 -0.2296
11506SOL     OW35330   5.147   7.343   1.571 -0.7151 -0.1661 -0.3569
11506SOL    HW135331   5.084   7.353   1.642 -1.8186  0.6992 -1.4264
11506SOL    HW235332   5.156   7.249   1.559 -0.4074 -0.3202  1.0083
11507SOL     OW35333   4.871   7.080   4.242 -0.4735  0.1632 -0.0584
11507SOL    HW135334   4.868   7.060   4.335  1.9091 -1.0347 -0.1959
11507SOL    HW235335   4.810   7.018   4.202  0.4834 -1.1194  0.4400
11508SOL     OW35336   6.391   7.922   6.276  0.5819 -0.2155  0.0182
11508SOL    HW135337   6.412   8.003   6.321 -0.5485  0.0794  0.0388
11508SOL    HW235338   6.338   7.949   6.201  1.3176 -0.8212 -0.7268
11509SOL     OW35339   3.506   7.550   4.707  0.9471 -0.7144  0.3238
11509SOL    HW135340   3.512   7.616   4.776 -0.3120  1.2633 -1.3702
11509SOL    HW235341   3.583   7.565   4.653 -0.1821  0.5143 -0.9922
11510SOL     OW35342   2.749   5.324   7.875  0.0686  0.1650  0.3974
11510SOL    HW135343   2.712   5.405   7.912  0.1527 -0.2712  1.4513
11510SOL    HW235344   2.812   5.294   7.941  0.5656 -0.3743 -0.3197
11511SOL     OW35345   2.866   5.053   3.170  0.3332 -0.0175  0.3549
11511SOL    HW135346   2.922   5.084   3.242 -0.1481 -0.2776  0.8499
11511SOL    HW235347   2.848   4.962   3.193 -0.3842  0.0982  0.2560
11512SOL     OW35348   4.046   5.831   7.756  0.0339 -0.3670  0.1897
11512SOL    HW135349   4.059   5.911   7.705  0.8339 -0.4261  0.3059
11512SOL    HW235350   3.956   5.805   7.736  0.0940  0.0283 -0.6074
11513SOL     OW35351   2.757   6.022   3.580  0.0440  0.1254  0.0950
11513SOL    HW135352   2.850   6.034   3.598  0.1873 -0.7044 -0.0857
11513SOL    HW235353   2.748   5.930   3.557 -0.4159  0.7664 -2.4760
11514SOL     OW35354   7.444   3.456   4.512 -0.0522 -0.4260 -0.4529
11514SOL    HW135355   7.365   3.423   4.469  1.0735 -1.7991 -1.5085
11514SOL    HW235356   7.509   3.463   4.441  0.8359  0.4816  0.4342
11515SOL     OW35357   6.445   6.980   3.309 -0.5707  0.0100 -0.5369
11515SOL    HW135358   6.521   6.925   3.289 -0.6260 -0.1245 -0.3761
11515SOL    HW235359   6.482   7.054   3.357 -0.8028 -1.1231  1.4517
11516SOL     OW35360   7.425   3.798   0.555 -0.3005 -0.4672 -0.0962
11516SOL    HW135361   7.332   3.777   0.546 -0.4580  1.0876 -3.0408
11516SOL    HW235362   7.426   3.892   0.575  0.6214 -0.3252 -0.7775
11517SOL     OW35363   7.878   3.138   3.805 -0.5006 -0.7367 -0.0825
11517SOL    HW135364   7.825   3.061   3.785 -0.7442 -1.0225  1.5473
11517SOL    HW235365   7.840   3.208   3.753 -1.4849 -1.3043 -0.1397
11518SOL     OW35366   2.618   5.438   5.612 -0.0231  0.2918  0.3399
11518SOL    HW135367   2.534   5.434   5.658 -0.6026  3.1287 -0.3643
11518SOL    HW235368   2.675   5.485   5.673 -0.1168  1.9111 -0.7861
11519SOL     OW35369   7.047   2.332   3.086  0.4628  0.3080 -0.0138
11519SOL    HW135370   6.996   2.385   3.146  1.1999  0.2692  0.6623
11519SOL    HW235371   7.046   2.380   3.003  1.3504  1.5224  0.6633
11520SOL     OW35372   2.744   4.924   5.648  0.3637 -0.5038  0.6441
11520SOL    HW135373   2.686   5.000   5.640 -0.1791 -0.8655  1.0547
11520SOL    HW235374   2.805   4.947   5.717  1.5552  0.4075 -0.6903
11521SOL     OW35375   4.374   6.901   3.400 -0.0569  0.5465 -0.3122
11521SOL    HW135376   4.446   6.955   3.366  0.3258 -0.2320 -0.7466
11521SOL    HW235377   4.322   6.881   3.322 -0.4516  0.6663 -0.0768
11522SOL     OW35378   2.083   4.633   2.947 -0.1751  0.0295 -0.0427
11522SOL    HW135379   2.004   4.663   2.901 -0.0100  3.8298  1.9602
11522SOL    HW235380   2.050   4.571   3.012 -1.2584  0.1165 -0.4951
11523SOL     OW35381   7.036   5.283   7.781 -0.1942 -0.2077  0.0636
11523SOL    HW135382   7.052   5.371   7.748 -1.3955  0.5037  1.3254
11523SOL    HW235383   7.064   5.225   7.710 -1.6624  1.2448 -1.7589
11524SOL     OW35384   2.707   5.132   5.039  0.0705  0.0072  0.0202
11524SOL    HW135385   2.773   5.077   4.998  1.1481  0.8997  0.5265
11524SOL    HW235386   2.721   5.219   5.002 -1.7263 -0.0719 -0.8963
11525SOL     OW35387   1.420   6.568   6.109 -0.3063  0.1782  0.8931
11525SOL    HW135388   1.375   6.647   6.077  1.1028  0.5806 -0.1636
11525SOL    HW235389   1.367   6.496   6.075  0.1727  0.6339 -0.9171
11526SOL     OW35390   6.446   5.077   7.487 -0.5231  0.0014 -0.0687
11526SOL    HW135391   6.514   5.137   7.455  0.0758 -1.0732 -0.8342
11526SOL    HW235392   6.426   5.109   7.575  1.8556 -0.3906  0.6524
11527SOL     OW35393   5.266   7.536   5.262  0.0154 -0.2305  0.3493
11527SOL    HW135394   5.318   7.607   5.300  0.2229  0.8807 -1.9176
11527SOL    HW235395   5.321   7.500   5.193 -1.6107 -0.0592 -1.0664
11528SOL     OW35396   5.862   3.104   7.078 -0.3667  0.4024 -1.1569
11528SOL    HW135397   5.852   3.195   7.051  1.5536  0.9519 -0.1846
11528SOL    HW235398   5.850   3.106   7.173  0.5612 -0.1928 -1.0162
11529SOL     OW35399   2.269   5.818   5.212  0.4398 -0.5431  0.0873
11529SOL    HW135400   2.345   5.834   5.268  1.9984 -0.7215 -1.9266
11529SOL    HW235401   2.306   5.795   5.127 -1.8798  0.1739 -1.1623
11530SOL     OW35402   7.982   3.180   4.528 -0.7012 -0.5809 -0.0688
11530SOL    HW135403   7.938   3.250   4.480 -0.6511 -0.2509  0.3695
11530SOL    HW235404   7.926   3.103   4.516 -2.2304  0.2177  1.8284
11531SOL     OW35405   1.213   5.243   2.560  0.0733 -0.2978  0.0070
11531SOL    HW135406   1.184   5.191   2.486  0.0533  0.5791 -0.6131
11531SOL    HW235407   1.212   5.333   2.528  1.3648 -0.0358  0.6426
11532SOL     OW35408   6.435   3.243   1.281  0.0891  0.0154 -0.2840
11532SOL    HW135409   6.463   3.287   1.201  0.2784 -1.5967 -1.1222
11532SOL    HW235410   6.339   3.250   1.279  0.1367  0.6972 -0.2324
11533SOL     OW35411   3.984   6.747   2.688  0.8121  0.3556 -0.7125
11533SOL    HW135412   3.992   6.790   2.603  2.1476 -1.0379 -1.3196
11533SOL    HW235413   4.051   6.679   2.687 -1.8170 -2.3400 -0.1454
11534SOL     OW35414   2.100   4.614   5.123  0.0814  0.1722  0.6748
11534SOL    HW135415   2.134   4.654   5.044 -0.6862  1.0498  0.7885
11534SOL    HW235416   2.032   4.553   5.092  0.8999 -0.6843  0.5420
11535SOL     OW35417   3.206   7.454   5.140  0.5199  0.3194  0.6952
11535SOL    HW135418   3.170   7.428   5.225  0.3202  0.3468  0.6219
11535SOL    HW235419   3.140   7.425   5.077  2.1239 -2.5469  0.2603
11536SOL     OW35420   6.833   0.601   7.356  0.1584  0.0277  0.3228
11536SOL    HW135421   6.926   0.614   7.373  0.6132 -1.8567 -0.5233
11536SOL    HW235422   6.821   0.632   7.266 -0.2627  1.2751  0.8069
11537SOL     OW35423   2.995   4.943   7.446  0.1050  0.1485  0.0532
11537SOL    HW135424   2.983   5.032   7.413 -0.3237 -0.1395 -0.5895
11537SOL    HW235425   2.907   4.912   7.466  0.1914 -0.3423 -0.3044
11538SOL     OW35426   4.937   3.205   0.767  0.4425 -0.1534  0.5010
11538SOL    HW135427   4.995   3.261   0.817  0.1061 -0.6128  1.4233
11538SOL    HW235428   4.926   3.249   0.683  0.5383  0.9183  1.0538
11539SOL     OW35429   5.256   5.391   1.162 -0.1698 -0.0019 -0.0617
11539SOL    HW135430   5.179   5.431   1.122  0.1304  0.2386 -0.4020
11539SOL    HW235431   5.228   5.301   1.183 -0.3478 -0.1133 -0.7550
11540SOL     OW35432   7.188   0.680   3.654 -0.0406 -0.8692  0.2770
11540SOL    HW135433   7.252   0.610   3.669  0.2888  0.0495  3.5019
11540SOL    HW235434   7.230   0.738   3.590  1.5637 -1.2691  0.9572
11541SOL     OW35435   7.539   5.996   0.300 -0.0698 -0.2096  0.5579
11541SOL    HW135436   7.448   5.989   0.327  0.0164 -0.9500  0.6696
11541SOL    HW235437   7.563   6.087   0.317 -0.6016 -0.1763  1.1057
11542SOL     OW35438   4.241   6.997   6.573 -0.3573 -0.0967  0.1728
11542SOL    HW135439   4.159   7.020   6.615  1.5345  2.1690  2.7938
11542SOL    HW235440   4.240   7.047   6.491 -3.0992 -2.8678 -1.5797
11543SOL     OW35441   6.642   3.769   7.702 -0.4298 -0.0160  0.0103
11543SOL    HW135442   6.708   3.835   7.725 -1.4939  1.2749 -0.6078
11543SOL    HW235443   6.670   3.736   7.617  0.6121 -1.0475  0.7337
11544SOL     OW35444   1.777   6.634   2.618 -1.4294  0.2804 -0.1692
11544SOL    HW135445   1.716   6.560   2.613 -1.6270  0.3083  1.3685
11544SOL    HW235446   1.790   6.647   2.712  0.0851  0.9950 -0.4641
11545SOL     OW35447   2.067   6.776   1.651  0.1303 -0.0928 -0.0010
11545SOL    HW135448   2.053   6.814   1.738  0.7015  1.1139 -0.4081
11545SOL    HW235449   1.983   6.788   1.606 -0.0507 -0.3789  0.2555
11546SOL     OW35450   1.079   4.622   2.071  0.4876 -0.0514 -0.9653
11546SOL    HW135451   1.072   4.717   2.082  0.1911 -0.0606 -1.0643
11546SOL    HW235452   1.127   4.593   2.148 -0.7452  0.0050 -0.1572
11547SOL     OW35453   6.848   3.258   5.966 -0.0130 -0.5334  0.3834
11547SOL    HW135454   6.909   3.211   5.909 -0.2991 -1.2308  0.6454
11547SOL    HW235455   6.905   3.315   6.019  0.1968  0.5408 -0.9781
11548SOL     OW35456   0.772   7.183   0.636  0.5240 -0.2031  0.3147
11548SOL    HW135457   0.738   7.210   0.551  0.3768 -0.7262  0.2096
11548SOL    HW235458   0.831   7.255   0.662 -0.0141  0.3108  0.1247
11549SOL     OW35459   0.071   6.731   4.668 -0.0443 -0.0857 -0.5179
11549SOL    HW135460   0.003   6.779   4.714 -0.0878 -0.7229  0.0829
11549SOL    HW235461   0.061   6.640   4.696  0.7701 -0.2604 -0.7574
11550SOL     OW35462   3.910   5.263   4.544 -0.5203  1.1019 -0.1605
11550SOL    HW135463   3.919   5.272   4.449  2.6436  1.8770  0.1468
11550SOL    HW235464   3.946   5.176   4.563  0.8310  1.7829  0.5076
11551SOL     OW35465   5.953   7.309   6.638 -0.1098 -0.4703 -0.8337
11551SOL    HW135466   5.996   7.393   6.656 -1.1516 -0.1837  0.3694
11551SOL    HW235467   5.960   7.299   6.543  2.4717 -0.3750 -0.6925
11552SOL     OW35468   6.908   4.075   0.171  0.0974  0.4437 -0.4390
11552SOL    HW135469   6.911   4.016   0.096 -1.3283  0.5905 -0.6282
11552SOL    HW235470   6.840   4.039   0.228  0.4064  0.9472  0.2702
11553SOL     OW35471   2.950   2.128   5.051  0.2333 -0.1757  0.5103
11553SOL    HW135472   3.002   2.109   4.973 -0.1229  1.2987 -0.1152
11553SOL    HW235473   2.897   2.050   5.065  0.0802 -0.3434 -0.9089
11554SOL     OW35474   0.934   6.125   2.327  0.4406 -0.0557 -0.1684
11554SOL    HW135475   0.858   6.069   2.337  0.3596  0.2412  0.9850
11554SOL    HW235476   0.920   6.171   2.244 -1.3058  1.0114  0.7050
11555SOL     OW35477   6.155   0.554   2.068  0.5144 -1.1746  0.1828
11555SOL    HW135478   6.162   0.586   1.978  1.7402  0.0490  0.6989
11555SOL    HW235479   6.062   0.536   2.080  0.0973  0.2216 -0.7966
11556SOL     OW35480   5.315   7.909   4.537 -0.1874 -0.3529 -0.4033
11556SOL    HW135481   5.348   7.866   4.458  0.6868 -0.2291 -0.1038
11556SOL    HW235482   5.238   7.959   4.506  0.5635  0.2641 -1.3142
11557SOL     OW35483   6.243   7.087   3.739  0.0204  0.3915 -0.5504
11557SOL    HW135484   6.268   7.050   3.824 -2.6171  0.6416  0.3720
11557SOL    HW235485   6.304   7.160   3.727  0.4921  0.2888  1.0773
11558SOL     OW35486   6.861   2.135   3.062  0.0165 -0.4782 -0.4626
11558SOL    HW135487   6.937   2.192   3.064  0.3751 -0.9545 -0.3566
11558SOL    HW235488   6.841   2.124   2.969 -0.5858  0.5122 -0.4576
11559SOL     OW35489   1.827   0.355   7.989 -0.0761  0.2780  0.2539
11559SOL    HW135490   1.742   0.342   7.948 -0.3354  2.6484 -0.0082
11559SOL    HW235491   1.878   0.278   7.963 -1.2870  0.1420 -1.7783
11560SOL     OW35492   3.274   4.411   6.881 -0.0646  0.0301 -0.1805
11560SOL    HW135493   3.184   4.381   6.866  0.8287 -2.0506 -1.5755
11560SOL    HW235494   3.299   4.453   6.799  0.2266  0.6425  0.2221
11561SOL     OW35495   3.240   7.403   4.684  0.1390 -0.3452  0.3502
11561SOL    HW135496   3.176   7.424   4.752 -0.1853  1.3207 -0.4398
11561SOL    HW235497   3.318   7.451   4.709 -0.3088  1.1219 -0.9812
11562SOL     OW35498   6.281   6.178   4.246  0.0409 -0.1855 -0.0870
11562SOL    HW135499   6.215   6.117   4.279  0.7609  0.0075  1.8083
11562SOL    HW235500   6.244   6.265   4.261 -0.8034 -0.1076 -2.3937
11563SOL     OW35501   1.297   0.166   0.240 -0.1372 -0.2858 -0.7299
11563SOL    HW135502   1.310   0.260   0.246 -0.8797 -0.2060 -0.3499
11563SOL    HW235503   1.307   0.146   0.146  1.0843 -0.0009 -0.6741
11564SOL     OW35504   6.811   6.718   0.207  0.3092  0.6671  0.0862
11564SOL    HW135505   6.845   6.669   0.133 -0.2871  2.2624 -1.2825
11564SOL    HW235506   6.754   6.784   0.168  0.4988  1.9603  1.9123
11565SOL     OW35507   1.016   3.561   0.796  0.1824  0.1499 -0.1959
11565SOL    HW135508   0.968   3.595   0.721 -0.7501 -1.5403 -0.3914
11565SOL    HW235509   0.961   3.584   0.871  0.7699  1.2174 -0.0771
11566SOL     OW35510   6.787   0.869   4.946 -0.1259  0.3766  0.6750
11566SOL    HW135511   6.761   0.961   4.953 -1.7680 -0.0772  0.7264
11566SOL    HW235512   6.706   0.823   4.923  1.0695 -0.8108 -1.2610
11567SOL     OW35513   5.111   5.790   0.328 -0.3872 -0.4090  0.2044
11567SOL    HW135514   5.057   5.768   0.252  1.1937 -1.1036 -0.7230
11567SOL    HW235515   5.198   5.759   0.306  0.2364 -0.0265  2.0417
11568SOL     OW35516   3.943   5.496   0.684  0.6347  0.2714  0.1195
11568SOL    HW135517   3.905   5.522   0.600 -0.2328  0.6081  0.6135
11568SOL    HW235518   3.969   5.578   0.726 -0.1909  0.2068  0.7736
11569SOL     OW35519   4.486   6.370   0.813 -0.1169  0.3374  0.2427
11569SOL    HW135520   4.498   6.308   0.885 -0.3250  0.1376  0.1058
11569SOL    HW235521   4.560   6.351   0.754  0.2207  0.7030  0.5463
11570SOL     OW35522   4.673   5.467   0.794  0.3083 -0.3321 -0.3965
11570SOL    HW135523   4.624   5.501   0.869  0.6340  0.3133 -0.4666
11570SOL    HW235524   4.609   5.419   0.743 -0.1104 -0.0390 -0.1496
11571SOL     OW35525   2.266   7.909   3.675  0.0317 -0.3015  0.6619
11571SOL    HW135526   2.321   7.847   3.628 -0.0399  0.3826 -0.3411
11571SOL    HW235527   2.177   7.875   3.665  0.0616 -0.3804  0.6668
11572SOL     OW35528   0.093   3.443   7.490  0.7580 -0.7585  0.6473
11572SOL    HW135529   0.061   3.435   7.400  0.3640  0.8004  0.6249
11572SOL    HW235530   0.137   3.360   7.508 -3.9624 -3.4300  0.9315
11573SOL     OW35531   5.146   7.030   2.852 -0.1056 -0.4275  0.0972
11573SOL    HW135532   5.177   6.980   2.928 -0.6512 -0.9187 -0.0068
11573SOL    HW235533   5.092   7.100   2.890 -1.0317 -1.1487  0.1120
11574SOL     OW35534   3.860   3.739   2.495  0.2556 -0.4019  0.1829
11574SOL    HW135535   3.789   3.690   2.454 -0.1093  0.8611 -0.7059
11574SOL    HW235536   3.817   3.813   2.538  0.8894 -0.4081  0.8535
11575SOL     OW35537   0.321   0.530   2.359  0.1329 -0.0646  0.0373
11575SOL    HW135538   0.306   0.435   2.360  0.5738 -0.1420 -0.4435
11575SOL    HW235539   0.246   0.566   2.406 -0.1174 -0.6403  0.0929
11576SOL     OW35540   3.619   7.320   5.964  0.0557  0.2451  0.2340
11576SOL    HW135541   3.666   7.403   5.964 -0.0998  0.3332 -0.0948
11576SOL    HW235542   3.584   7.312   5.875 -1.0834  0.4796  0.6657
11577SOL     OW35543   2.799   3.270   7.629  0.1828 -0.1227  0.1453
11577SOL    HW135544   2.780   3.333   7.699  0.7461 -0.3998  0.5471
11577SOL    HW235545   2.789   3.320   7.549  1.8325  0.7971  0.5085
11578SOL     OW35546   0.428   7.734   5.707 -0.2467 -0.0134 -0.1381
11578SOL    HW135547   0.501   7.682   5.739  0.3550  0.8099 -0.1404
11578SOL    HW235548   0.406   7.792   5.780  1.0111  1.7463 -1.1167
11579SOL     OW35549   1.789   4.820   6.453 -0.7775 -0.2679  0.0823
11579SOL    HW135550   1.796   4.902   6.404  1.4731 -0.6074 -0.2218
11579SOL    HW235551   1.764   4.755   6.387 -0.1446 -0.2706 -0.1604
11580SOL     OW35552   2.923   3.414   3.280  0.4501  0.6141  0.0447
11580SOL    HW135553   3.004   3.366   3.265  0.6391  1.4623 -1.8632
11580SOL    HW235554   2.933   3.453   3.367  2.2957  1.1131 -0.3826
11581SOL     OW35555   7.703   7.990   4.195  0.1919 -0.0753 -0.2001
11581SOL    HW135556   7.672   7.982   4.105  0.9340  1.8553 -0.6559
11581SOL    HW235557   7.777   7.929   4.200  2.0230  1.9481 -1.8033
11582SOL     OW35558   2.735   3.088   6.403 -0.0236 -0.0142 -0.7813
11582SOL    HW135559   2.740   3.066   6.496 -1.8997  1.4470 -0.2973
11582SOL    HW235560   2.790   3.022   6.359  1.4499 -0.2878  1.4108
11583SOL     OW35561   7.197   5.530   3.475 -0.1381 -0.1068 -0.2621
11583SOL    HW135562   7.173   5.484   3.394 -2.0908  0.8433 -0.2503
11583SOL    HW235563   7.220   5.460   3.536  1.2164 -0.8494 -1.5696
11584SOL     OW35564   2.480   5.745   0.775 -0.3228 -0.7600 -0.1674
11584SOL    HW135565   2.491   5.803   0.851 -0.6607 -0.1691 -0.5635
11584SOL    HW235566   2.483   5.657   0.811  0.2931 -0.4969  0.4363
11585SOL     OW35567   4.552   5.542   3.365 -0.0688  0.5542 -0.5574
11585SOL    HW135568   4.631   5.578   3.405  0.2441 -1.0540  0.2990
11585SOL    HW235569   4.581   5.502   3.283 -0.0561  0.2574 -0.4067
11586SOL     OW35570   7.120   4.323   0.008 -0.3507 -0.2083  0.0855
11586SOL    HW135571   7.133   4.248   0.066 -1.3392 -2.3006 -2.3114
11586SOL    HW235572   7.156   4.294  -0.076  0.9801  2.7343 -0.4157
11587SOL     OW35573   1.208   7.576   5.723  0.0553 -0.1887  0.1601
11587SOL    HW135574   1.303   7.565   5.734  0.0294 -0.4126  0.1500
11587SOL    HW235575   1.188   7.533   5.640 -0.2260 -1.0709  0.6818
11588SOL     OW35576   0.099   0.493   6.921  0.1541  0.3005 -0.2168
11588SOL    HW135577   0.172   0.470   6.863 -0.2309 -1.4390 -0.0377
11588SOL    HW235578   0.138   0.497   7.008  0.0242 -0.7722 -0.1011
11589SOL     OW35579   7.646   4.108   2.811 -0.1103  0.0299  0.1412
11589SOL    HW135580   7.612   4.075   2.728  1.4995  0.3115 -0.6377
11589SOL    HW235581   7.573   4.159   2.847 -1.7731 -2.3054  0.2142
11590SOL     OW35582   4.106   2.538   2.586 -0.0514 -0.3885  0.3456
11590SOL    HW135583   4.181   2.573   2.537 -0.7910  0.0828 -0.4815
11590SOL    HW235584   4.072   2.613   2.634  0.2973 -0.7136  1.1097
11591SOL     OW35585   5.079   5.720   2.440 -0.4524  0.1956 -0.2012
11591SOL    HW135586   5.024   5.786   2.397 -1.1310  1.1621  2.0881
11591SOL    HW235587   5.020   5.673   2.498  0.9226  0.5975  1.5734
11592SOL     OW35588   5.001   5.597   6.149 -0.0338  0.4685 -0.5928
11592SOL    HW135589   5.013   5.624   6.059  1.4502  1.3124 -0.1614
11592SOL    HW235590   5.008   5.677   6.200  2.6880 -0.4018  0.5417
11593SOL     OW35591   3.119   3.104   0.063  0.2767  0.2220 -0.5846
11593SOL    HW135592   3.136   3.187   0.018  2.9444 -0.4967 -0.9697
11593SOL    HW235593   3.101   3.130   0.153  0.0829  1.2826 -0.9140
11594SOL     OW35594   3.327   1.144   1.811 -0.4425 -0.4182 -0.0485
11594SOL    HW135595   3.246   1.193   1.796  0.2975  0.8539 -0.0540
11594SOL    HW235596   3.309   1.056   1.781 -2.4356 -0.6374  1.6732
11595SOL     OW35597   5.538   4.416   6.848 -0.1749  0.1469  0.3128
11595SOL    HW135598   5.581   4.501   6.856  1.9005 -0.9733  1.3206
11595SOL    HW235599   5.554   4.373   6.932  0.3187 -1.9510 -0.8282
11596SOL     OW35600   7.446   2.438   1.055 -0.6394 -0.1775 -0.2119
11596SOL    HW135601   7.379   2.370   1.063  1.1449 -2.0940 -1.1088
11596SOL    HW235602   7.400   2.513   1.018 -2.5435 -1.0720  0.2966
11597SOL     OW35603   4.063   1.803   5.822 -0.3325 -0.2562  0.4321
11597SOL    HW135604   4.071   1.813   5.727 -1.2137 -0.4953  0.3241
11597SOL    HW235605   3.995   1.736   5.833 -1.7521  1.2674  1.2500
11598SOL     OW35606   0.626   2.155   7.880 -0.0178 -0.3575  0.3342
11598SOL    HW135607   0.675   2.117   7.954  1.9709 -0.0009 -0.7713
11598SOL    HW235608   0.555   2.203   7.922  0.7455 -0.6237  2.0111
11599SOL     OW35609   1.155   4.911   4.892 -0.1083  0.2741 -0.2316
11599SOL    HW135610   1.250   4.904   4.890 -0.0590  0.9441 -0.3827
11599SOL    HW235611   1.138   5.006   4.894 -0.8345  0.2310 -3.0224
11600SOL     OW35612   2.746   1.177   4.147  0.1491 -0.0913  0.2928
11600SOL    HW135613   2.784   1.090   4.130 -0.1352 -0.1288 -0.1498
11600SOL    HW235614   2.652   1.164   4.140  0.1143  0.2969  0.0145
11601SOL     OW35615   6.239   3.155   2.414 -0.7285  0.3652 -0.1802
11601SOL    HW135616   6.323   3.190   2.444  0.0666 -1.9576  0.3525
11601SOL    HW235617   6.261   3.084   2.355 -2.3469  1.2033 -1.8550
11602SOL     OW35618   0.012   1.787   7.894  0.3011 -0.5270 -0.4431
11602SOL    HW135619  -0.006   1.817   7.805  0.5247 -0.1802 -0.3710
11602SOL    HW235620   0.106   1.803   7.906  0.2385 -0.4284 -0.0869
11603SOL     OW35621   1.366   7.296   2.246 -0.2796 -0.2898 -0.2913
11603SOL    HW135622   1.409   7.356   2.187 -0.6734  0.6581  0.3704
11603SOL    HW235623   1.287   7.268   2.200 -1.8038  2.2536  0.6797
11604SOL     OW35624   2.172   4.912   1.807 -0.4167 -0.0716 -0.1132
11604SOL    HW135625   2.113   4.967   1.755  0.4350  2.5666  1.5729
11604SOL    HW235626   2.145   4.823   1.788 -2.3546  0.9499 -2.4127
11605SOL     OW35627   4.423   1.341   6.880 -0.0549 -0.3129 -0.3905
11605SOL    HW135628   4.490   1.387   6.930 -0.4497 -0.1579 -0.0100
11605SOL    HW235629   4.467   1.317   6.798  0.4461 -0.1519 -0.1692
11606SOL     OW35630   7.884   4.127   4.529 -0.3908  0.4554 -0.1347
11606SOL    HW135631   7.804   4.094   4.489  1.1487 -1.1748 -1.9352
11606SOL    HW235632   7.891   4.079   4.612 -1.0436  0.3026 -0.1653
11607SOL     OW35633   6.307   3.320   7.339 -0.1835  0.4106 -0.4505
11607SOL    HW135634   6.310   3.373   7.418  0.5329 -0.9550  0.4500
11607SOL    HW235635   6.235   3.358   7.288 -2.0549  0.0244  1.7925
11608SOL     OW35636   7.454   2.411   3.900 -0.0957 -0.3071 -0.2385
11608SOL    HW135637   7.415   2.370   3.977  1.1128 -1.6386 -0.2987
11608SOL    HW235638   7.381   2.427   3.841 -0.9953  0.4797  1.0825
11609SOL     OW35639   2.720   2.571   5.053  0.5335 -0.2619  0.0260
11609SOL    HW135640   2.767   2.495   5.018 -0.1691 -0.9318  0.5156
11609SOL    HW235641   2.646   2.584   4.994  0.6256  0.0174 -0.0307
11610SOL     OW35642   3.522   6.671   7.225  0.0191  0.3413 -0.4723
11610SOL    HW135643   3.443   6.706   7.266 -0.7278 -1.5259 -0.2537
11610SOL    HW235644   3.592   6.691   7.287 -0.6594 -0.0313  0.4252
11611SOL     OW35645   3.572   7.679   7.906 -0.1551 -0.0550 -0.4322
11611SOL    HW135646   3.581   7.702   7.999  1.6545 -3.1327  0.2208
11611SOL    HW235647   3.643   7.726   7.862 -0.5856  0.8536 -0.1657
11612SOL     OW35648   6.646   3.857   5.706  0.5488 -0.2338  0.3213
11612SOL    HW135649   6.599   3.861   5.623  2.3313 -1.1009 -0.7490
11612SOL    HW235650   6.591   3.906   5.767 -1.2941 -0.4750 -1.1102
11613SOL     OW35651   5.341   0.655   4.773  0.2149  0.2801  0.2070
11613SOL    HW135652   5.372   0.658   4.864  2.2898  0.1807 -0.4591
11613SOL    HW235653   5.323   0.746   4.750 -0.5738  0.2758  0.7966
11614SOL     OW35654   0.162   6.872   6.743  0.0670  0.2067  0.0415
11614SOL    HW135655   0.237   6.820   6.715 -0.0397  0.3933 -0.6163
11614SOL    HW235656   0.196   6.928   6.812  0.7018  0.7396 -0.6828
11615SOL     OW35657   6.295   1.395   7.546 -0.4299 -0.3461  0.1563
11615SOL    HW135658   6.212   1.394   7.499 -0.2427 -1.1324 -0.1588
11615SOL    HW235659   6.270   1.381   7.638 -0.7160  0.3252  0.1882
11616SOL     OW35660   2.966   2.177   7.451 -0.3551  0.1117 -0.1441
11616SOL    HW135661   2.969   2.085   7.423 -0.9123 -0.4556  1.5744
11616SOL    HW235662   2.986   2.227   7.372  1.3159 -1.5281 -0.7949
11617SOL     OW35663   4.533   4.485   3.456  0.4659  0.6243 -0.6730
11617SOL    HW135664   4.484   4.491   3.374 -1.8654 -1.9391  0.4575
11617SOL    HW235665   4.484   4.540   3.518  0.5176  0.1451 -0.2042
11618SOL     OW35666   4.725   4.953   4.023 -0.2123 -0.5720 -0.4999
11618SOL    HW135667   4.632   4.933   4.034 -0.0349 -0.7628  0.7598
11618SOL    HW235668   4.752   4.989   4.108  0.6216  0.4619 -1.1801
11619SOL     OW35669   1.257   6.840   5.896 -0.2373 -0.4468 -0.5545
11619SOL    HW135670   1.345   6.826   5.861 -0.3491 -0.4511 -0.8320
11619SOL    HW235671   1.210   6.758   5.877  0.6737 -1.7877  2.5669
11620SOL     OW35672   1.636   5.749   1.960 -0.3436 -0.1268  0.4090
11620SOL    HW135673   1.700   5.678   1.954 -1.1295 -0.8037  0.0474
11620SOL    HW235674   1.609   5.766   1.870 -3.9527 -2.8605  0.8663
11621SOL     OW35675   1.020   2.716   3.290  0.3618  0.1484  0.0362
11621SOL    HW135676   1.113   2.701   3.273  0.7728  2.2677  0.2926
11621SOL    HW235677   1.017   2.751   3.379 -0.4215  2.2125 -0.7511
11622SOL     OW35678   5.599   4.188   0.457  0.3376  0.5642  0.1021
11622SOL    HW135679   5.635   4.122   0.397  1.1102  0.9843  0.1026
11622SOL    HW235680   5.605   4.270   0.408  2.3162  1.1507  1.2839
11623SOL     OW35681   0.473   7.342   5.419 -0.1855 -0.4217  0.1262
11623SOL    HW135682   0.504   7.302   5.338  1.4787 -1.1131  1.0809
11623SOL    HW235683   0.393   7.388   5.394  1.0855  0.6146 -2.2137
11624SOL     OW35684   6.468   6.504   0.376 -0.0081  0.1161 -0.7528
11624SOL    HW135685   6.544   6.493   0.433 -0.0774  1.4094 -0.4098
11624SOL    HW235686   6.504   6.494   0.287  0.4276 -0.0168 -0.5638
11625SOL     OW35687   1.246   5.721   0.539  0.3984  0.1084 -0.8864
11625SOL    HW135688   1.158   5.746   0.510  0.6509  0.0911 -1.6860
11625SOL    HW235689   1.233   5.685   0.627  0.0851  3.5371  0.5539
11626SOL     OW35690   4.245   6.307   0.465  0.6295 -0.5186 -0.0375
11626SOL    HW135691   4.267   6.350   0.382  1.5093 -2.9853 -1.1651
11626SOL    HW235692   4.265   6.371   0.532 -1.7630  2.2050 -1.7928
11627SOL     OW35693   7.628   6.848   4.501 -0.1214 -0.2318 -0.3747
11627SOL    HW135694   7.633   6.761   4.540 -0.3078 -0.3676 -0.6574
11627SOL    HW235695   7.720   6.872   4.486 -0.1075 -0.9045 -1.4566
11628SOL     OW35696   4.376   6.520   1.093  0.2193 -0.2853 -0.2850
11628SOL    HW135697   4.357   6.547   1.183  0.9669  0.2601 -0.2851
11628SOL    HW235698   4.471   6.504   1.092 -0.1478 -2.6863 -0.3481
11629SOL     OW35699   3.869   5.989   7.310  0.0887  0.2022  0.3342
11629SOL    HW135700   3.880   6.079   7.280  0.2233 -0.1607 -0.7179
11629SOL    HW235701   3.958   5.954   7.314 -0.1729 -0.9292 -2.5675
11630SOL     OW35702   3.166   6.997   3.710  0.0578 -0.4807  0.5294
11630SOL    HW135703   3.143   6.977   3.801  0.0951  0.1708  0.6800
11630SOL    HW235704   3.096   7.055   3.680  0.7402  0.3686  0.5515
11631SOL     OW35705   1.480   6.234   3.531 -0.1826 -0.3048  0.8753
11631SOL    HW135706   1.539   6.196   3.596 -0.6707  0.3988  1.7436
11631SOL    HW235707   1.461   6.322   3.564  0.1199  0.3336 -0.5755
11632SOL     OW35708   6.608   6.639   3.532 -0.2975  0.1074  0.5754
11632SOL    HW135709   6.605   6.734   3.542 -1.7146  0.2020 -0.6316
11632SOL    HW235710   6.695   6.622   3.495 -0.4324  1.0308 -0.1886
11633SOL     OW35711   6.982   1.762   6.942  0.0947  0.5845 -0.3158
11633SOL    HW135712   7.063   1.723   6.976  0.1988  2.0956  1.2746
11633SOL    HW235713   6.999   1.857   6.944 -0.3686  0.7842 -3.4713
11634SOL     OW35714   0.930   0.571   2.617  0.8911  0.3716 -0.1806
11634SOL    HW135715   0.962   0.490   2.657  0.6430  0.7667  0.8265
11634SOL    HW235716   0.976   0.576   2.533 -0.1582 -1.5510 -0.8944
11635SOL     OW35717   7.717   7.061   5.259  0.0655 -0.0001  0.1673
11635SOL    HW135718   7.656   7.131   5.236 -0.5562 -1.2519 -2.1035
11635SOL    HW235719   7.665   6.997   5.308  0.1007  0.0198  0.2309
11636SOL     OW35720   2.796   7.945   7.674  0.5277  0.2739 -0.0490
11636SOL    HW135721   2.854   8.016   7.702  0.8866  0.2647 -0.7600
11636SOL    HW235722   2.749   7.920   7.754  1.0560  0.6952  0.4016
11637SOL     OW35723   6.671   4.009   4.736  0.6651 -0.6356  0.1092
11637SOL    HW135724   6.710   4.081   4.686 -0.4344  1.1424  1.7532
11637SOL    HW235725   6.741   3.981   4.796  1.2268 -1.2586 -0.8084
11638SOL     OW35726   0.947   0.147   0.795  0.1268 -0.1919 -0.3768
11638SOL    HW135727   0.874   0.196   0.757  0.2720 -1.6843 -2.6726
11638SOL    HW235728   0.914   0.057   0.800  1.5868 -0.7511 -0.8190
11639SOL     OW35729   4.241   2.658   6.533  0.3292 -0.0910 -0.7781
11639SOL    HW135730   4.323   2.663   6.484  1.5606 -2.1744  0.9272
11639SOL    HW235731   4.267   2.679   6.623 -0.9829 -0.8740 -0.2134
11640SOL     OW35732   7.975   0.653   3.414  0.4236 -0.2114  0.0986
11640SOL    HW135733   8.041   0.683   3.477  1.3637  0.1525 -1.0197
11640SOL    HW235734   7.987   0.712   3.338 -0.2397 -1.0466 -0.6614
11641SOL     OW35735   1.553   5.674   5.271  0.5975  0.1497  0.1541
11641SOL    HW135736   1.563   5.579   5.266  0.1140  0.0512  0.8972
11641SOL    HW235737   1.472   5.687   5.320 -0.0280  0.9497 -1.0799
11642SOL     OW35738   2.411   7.780   7.716  0.4145  0.1799  0.5336
11642SOL    HW135739   2.347   7.710   7.703  0.2681  0.5262 -0.7493
11642SOL    HW235740   2.477   7.766   7.648  0.9693  0.6310  0.9740
11643SOL     OW35741   2.182   2.982   2.405  0.4994  0.1384  0.2533
11643SOL    HW135742   2.221   2.896   2.423 -1.5943 -0.3835  2.5477
11643SOL    HW235743   2.119   2.965   2.335  1.9983  0.3506 -1.1713
11644SOL     OW35744   0.451   2.431   1.930  0.9302  0.0953 -0.4630
11644SOL    HW135745   0.535   2.387   1.944  1.1355  0.1894 -1.3575
11644SOL    HW235746   0.471   2.500   1.867  0.3455  0.6507 -0.0436
11645SOL     OW35747   0.035   3.434   0.873 -0.2822  0.5303  0.2721
11645SOL    HW135748   0.035   3.499   0.943  0.4604  0.5637  0.2409
11645SOL    HW235749  -0.020   3.472   0.805  1.0962  1.6488 -0.2293
11646SOL     OW35750   1.146   5.417   0.151 -0.0487  0.0098 -0.2538
11646SOL    HW135751   1.152   5.323   0.137  1.5112  0.0480  0.0902
11646SOL    HW235752   1.053   5.437   0.143 -0.4438 -1.6361  0.1417
11647SOL     OW35753   0.240   3.083   3.994  0.2179 -0.3777 -0.4676
11647SOL    HW135754   0.295   3.036   4.058 -2.5375 -4.1174 -0.6971
11647SOL    HW235755   0.152   3.081   4.032 -0.5155  2.0039 -1.9678
11648SOL     OW35756   3.544   0.089   4.838  0.1266 -0.7753  0.9380
11648SOL    HW135757   3.579   0.017   4.891  1.3954  0.0638  1.2354
11648SOL    HW235758   3.597   0.088   4.758 -1.5258 -1.7849 -0.1891
11649SOL     OW35759   7.430   2.050   0.844  0.4987 -0.7282 -0.0150
11649SOL    HW135760   7.431   2.103   0.924  5.5123 -0.4724 -0.0394
11649SOL    HW235761   7.428   1.960   0.875  0.0174 -0.6047  0.3196
11650SOL     OW35762   7.411   4.558   2.327  0.2771 -0.4521  0.4984
11650SOL    HW135763   7.367   4.513   2.255  0.8168 -0.5442  0.2262
11650SOL    HW235764   7.340   4.597   2.377  0.0049  1.0789 -1.0499
11651SOL     OW35765   2.287   7.285   2.686  0.2619  0.1518  0.3495
11651SOL    HW135766   2.227   7.351   2.720  0.3883  0.3261  0.2381
11651SOL    HW235767   2.256   7.269   2.596  1.0267  1.0327 -0.0835
11652SOL     OW35768   6.650   5.290   6.927 -0.4262 -0.4299 -0.3607
11652SOL    HW135769   6.595   5.310   7.003 -1.8050  0.8039 -1.6646
11652SOL    HW235770   6.710   5.364   6.921  0.7156 -1.2779  0.4386
11653SOL     OW35771   6.470   0.619   1.720  0.2338  0.7907  0.7554
11653SOL    HW135772   6.470   0.524   1.732  1.3672  0.9691  2.3682
11653SOL    HW235773   6.515   0.634   1.637 -1.7514 -0.1796 -0.5217
11654SOL     OW35774   1.575   7.551   3.404  0.8174  0.0907 -0.5045
11654SOL    HW135775   1.655   7.570   3.454  0.2312  0.2005  0.3982
11654SOL    HW235776   1.506   7.545   3.470  0.2569 -1.0344 -1.1791
11655SOL     OW35777   0.202   1.417   2.876 -0.4798  0.6053 -0.4090
11655SOL    HW135778   0.246   1.488   2.923 -0.0399  0.7207 -0.9810
11655SOL    HW235779   0.112   1.421   2.907  0.4935 -1.4466  2.8748
11656SOL     OW35780   2.101   7.781   6.981  0.0518 -0.4593 -0.3597
11656SOL    HW135781   2.067   7.792   6.893  0.4916 -4.1826 -1.0571
11656SOL    HW235782   2.196   7.788   6.972 -0.0437  2.4498  0.3978
11657SOL     OW35783   6.200   5.725   7.421 -0.5484  0.4356 -0.3973
11657SOL    HW135784   6.115   5.735   7.464 -0.5796 -0.7134 -0.1784
11657SOL    HW235785   6.213   5.630   7.415  0.5697  0.6040 -0.7184
11658SOL     OW35786   6.255   6.221   4.602 -0.3470  0.2170 -0.2354
11658SOL    HW135787   6.233   6.250   4.513  0.2585  0.4443 -0.3121
11658SOL    HW235788   6.277   6.301   4.649  1.8303 -0.1500 -0.5979
11659SOL     OW35789   4.010   7.298   5.563 -0.4330 -0.1901  0.7992
11659SOL    HW135790   3.977   7.208   5.568 -0.0721 -0.2427  2.6061
11659SOL    HW235791   4.088   7.298   5.618 -0.2828  1.1646  0.6098
11660SOL     OW35792   0.925   7.964   4.818 -0.6388  0.4289  0.1865
11660SOL    HW135793   0.946   7.915   4.739 -2.7167  0.7947 -0.6149
11660SOL    HW235794   0.912   7.897   4.885 -1.9104 -0.0484 -0.5255
11661SOL     OW35795   2.434   5.455   4.391 -0.1582  0.1659 -0.0747
11661SOL    HW135796   2.392   5.502   4.463  0.4357  1.5312 -0.5927
11661SOL    HW235797   2.442   5.520   4.321  0.9592 -0.6257 -0.7127
11662SOL     OW35798   5.374   1.503   7.738 -0.1190 -0.0064  0.6217
11662SOL    HW135799   5.401   1.540   7.822 -0.4417 -0.6546  1.0118
11662SOL    HW235800   5.314   1.568   7.701  1.3922  1.1186  0.0732
11663SOL     OW35801   5.508   1.183   1.127 -0.0560 -0.0779  0.2645
11663SOL    HW135802   5.533   1.231   1.206 -0.0323  0.0353  0.1887
11663SOL    HW235803   5.420   1.150   1.145  0.2674 -0.7523  0.6585
11664SOL     OW35804   2.329   0.656   7.932  0.0478 -0.0914  0.2513
11664SOL    HW135805   2.378   0.618   7.859 -0.3180 -0.2151  0.0667
11664SOL    HW235806   2.372   0.622   8.010  1.8535  1.8307  0.1264
11665SOL     OW35807   3.242   1.942   3.046 -0.3673 -0.2610 -0.7530
11665SOL    HW135808   3.263   1.856   3.010  0.9097 -0.0837 -0.4376
11665SOL    HW235809   3.259   2.003   2.974  3.4216  0.2291  0.5011
11666SOL     OW35810   0.260   4.182   5.327  0.5990  0.2861 -0.0043
11666SOL    HW135811   0.170   4.172   5.359  0.6270 -0.7743 -0.2335
11666SOL    HW235812   0.261   4.135   5.243  1.2024  0.8353 -0.3065
11667SOL     OW35813   2.243   3.171   1.455 -0.1041  0.0974 -0.2122
11667SOL    HW135814   2.195   3.137   1.379  0.6393 -1.4959  0.0094
11667SOL    HW235815   2.217   3.263   1.460 -2.0964 -0.3862 -0.8944
11668SOL     OW35816   7.837   5.973   6.883  0.3524  0.7489 -0.7286
11668SOL    HW135817   7.764   5.928   6.840 -0.9878  0.5884  1.6036
11668SOL    HW235818   7.912   5.917   6.868 -0.6854 -0.7461 -0.4150
11669SOL     OW35819   7.150   5.134   7.568  0.1211  0.1310  0.0096
11669SOL    HW135820   7.072   5.080   7.576  0.1493  0.4402  2.8831
11669SOL    HW235821   7.222   5.071   7.557 -0.0373 -0.4109  1.8131
11670SOL     OW35822   2.593   1.957   7.513  0.1300  0.0294 -0.6652
11670SOL    HW135823   2.585   1.872   7.556 -2.4648 -0.5922 -2.2419
11670SOL    HW235824   2.660   1.944   7.446 -0.3087 -0.7871 -0.9495
11671SOL     OW35825   1.378   6.482   4.169 -0.2981  0.2906  0.2068
11671SOL    HW135826   1.300   6.459   4.219  1.0721  0.2753  2.4239
11671SOL    HW235827   1.437   6.521   4.234  2.4091 -1.6973 -0.9566
11672SOL     OW35828   1.603   7.803   0.723 -0.2642  0.4694 -0.1253
11672SOL    HW135829   1.614   7.848   0.640 -0.3345  0.7123 -0.0047
11672SOL    HW235830   1.542   7.732   0.704 -1.5413  1.4726  0.0454
11673SOL     OW35831   1.414   0.184   3.694 -0.2798 -0.0340  0.1352
11673SOL    HW135832   1.341   0.227   3.738  0.1040  1.0103 -0.2381
11673SOL    HW235833   1.477   0.166   3.764 -0.4538 -0.0259  0.2951
11674SOL     OW35834   7.349   1.594   4.153 -0.5833 -0.8607  0.2426
11674SOL    HW135835   7.389   1.605   4.067 -0.7079  1.6473  0.4619
11674SOL    HW235836   7.270   1.542   4.137  0.3947 -2.0181 -0.8604
11675SOL     OW35837   6.907   6.990   1.901 -0.0068  0.2869 -0.3437
11675SOL    HW135838   6.855   6.991   1.982  0.0216 -2.2980 -0.2431
11675SOL    HW235839   6.958   6.909   1.907  0.5139  0.4254 -2.6441
11676SOL     OW35840   2.159   3.308   7.887  0.3785 -0.3646  0.1485
11676SOL    HW135841   2.212   3.238   7.849 -0.8884 -2.0166  1.3834
11676SOL    HW235842   2.073   3.297   7.848  0.3607  0.9782 -0.2053
11677SOL     OW35843   5.806   2.589   7.510  0.4285 -0.2612 -0.1448
11677SOL    HW135844   5.823   2.668   7.459 -0.1653 -0.0540 -0.0178
11677SOL    HW235845   5.841   2.608   7.597 -1.9144  0.7963  0.6024
11678SOL     OW35846   3.904   4.086   2.827  0.3668 -0.1459  0.0401
11678SOL    HW135847   3.899   3.994   2.803 -2.1067  0.1299 -0.6298
11678SOL    HW235848   3.813   4.114   2.834  1.0780  2.4962 -0.7519
11679SOL     OW35849   5.232   1.868   6.971  0.0373 -0.0674  0.4659
11679SOL    HW135850   5.308   1.873   7.029  0.5924 -1.7519 -0.0795
11679SOL    HW235851   5.159   1.900   7.024  1.2315  2.2994  0.7519
11680SOL     OW35852   1.587   1.038   4.507 -0.3513  0.2288  0.4372
11680SOL    HW135853   1.604   0.981   4.582 -0.4644 -1.0298 -0.4721
11680SOL    HW235854   1.519   0.993   4.458  0.8042  0.2516 -1.2372
11681SOL     OW35855   0.234   2.770   5.992  0.5107 -0.6222 -0.2354
11681SOL    HW135856   0.306   2.724   6.034  1.1692 -0.0073 -0.6808
11681SOL    HW235857   0.270   2.856   5.971 -0.5216 -0.1142  0.0406
11682SOL     OW35858   4.579   5.284   7.868  0.4720 -0.1855 -0.2151
11682SOL    HW135859   4.600   5.209   7.812 -1.1881 -1.6156  0.9927
11682SOL    HW235860   4.486   5.271   7.890  0.6869  1.1862  1.5859
11683SOL     OW35861   4.836   5.851   3.894 -0.5645 -0.1664  0.0809
11683SOL    HW135862   4.761   5.904   3.865  0.1797  2.2117  2.3404
11683SOL    HW235863   4.911   5.887   3.846 -0.7038 -2.0770 -1.6402
11684SOL     OW35864   2.071   3.332   5.805 -0.6392 -0.0379  0.2635
11684SOL    HW135865   2.003   3.294   5.860 -0.3717 -1.3270 -0.2877
11684SOL    HW235866   2.153   3.302   5.843 -0.4251 -0.0848 -0.2328
11685SOL     OW35867   3.002   0.544   3.478 -0.5569 -0.4543 -0.0725
11685SOL    HW135868   2.976   0.631   3.507  1.1340  0.9534 -2.5075
11685SOL    HW235869   3.033   0.557   3.388  1.7654 -3.1859  0.2426
11686SOL     OW35870   1.077   1.580   3.965  0.2706  0.2490  0.2969
11686SOL    HW135871   1.083   1.513   4.033  0.6488  0.1764  0.1905
11686SOL    HW235872   0.998   1.629   3.987 -1.4809 -1.8443 -1.0774
11687SOL     OW35873   4.257   2.396   6.351  0.1155  0.4904 -0.9058
11687SOL    HW135874   4.279   2.426   6.439 -0.9950  1.1931 -0.8645
11687SOL    HW235875   4.317   2.443   6.294  1.9085 -1.1281 -0.4200
11688SOL     OW35876   7.117   2.116   2.767 -0.0751  0.3887  0.4412
11688SOL    HW135877   7.025   2.142   2.771 -0.1974  0.1080 -0.3822
11688SOL    HW235878   7.164   2.198   2.751 -0.2622  0.4097 -0.0073
11689SOL     OW35879   1.237   2.245   5.830  0.3446  0.0277 -0.5749
11689SOL    HW135880   1.161   2.302   5.814  1.9662  2.6063  0.6158
11689SOL    HW235881   1.208   2.185   5.899 -0.7091  0.7726 -0.3613
11690SOL     OW35882   7.417   6.922   0.714  0.3193 -0.2183 -0.4047
11690SOL    HW135883   7.484   6.855   0.700  1.4521  0.3322  2.0408
11690SOL    HW235884   7.392   6.912   0.806 -1.4346  0.9824 -0.7215
11691SOL     OW35885   0.599   6.829   4.344  0.4917  0.0975  0.0129
11691SOL    HW135886   0.683   6.851   4.304 -0.2911  0.1048 -1.6933
11691SOL    HW235887   0.538   6.892   4.305 -0.7501 -1.4895 -0.6738
11692SOL     OW35888   0.216   4.960   6.133 -0.6174  0.2083  0.2981
11692SOL    HW135889   0.205   4.870   6.100  1.8899  0.0155 -0.1465
11692SOL    HW235890   0.132   5.002   6.116 -0.9638 -1.2853 -1.9609
11693SOL     OW35891   3.736   1.611   2.929 -0.3488  0.2206  0.0598
11693SOL    HW135892   3.681   1.672   2.879 -0.4647  0.2403  0.2106
11693SOL    HW235893   3.724   1.638   3.020 -3.0112 -2.1027  0.4593
11694SOL     OW35894   0.400   5.007   4.472  0.3086 -0.0685  0.4196
11694SOL    HW135895   0.428   4.955   4.548 -0.8728 -1.3524 -0.0048
11694SOL    HW235896   0.367   5.088   4.509 -0.5231 -0.8041  1.3000
11695SOL     OW35897   0.678   4.504   0.819  0.3565  0.2342 -0.3375
11695SOL    HW135898   0.700   4.537   0.732 -0.8039 -0.2040 -0.8154
11695SOL    HW235899   0.594   4.460   0.807 -0.0630  0.6037  1.1074
11696SOL     OW35900   4.844   3.170   6.387  0.1222  0.2170 -0.2074
11696SOL    HW135901   4.796   3.087   6.390 -0.0037  0.2881 -0.2142
11696SOL    HW235902   4.934   3.147   6.409  0.1136  0.0589 -0.3355
11697SOL     OW35903   2.686   4.976   3.631 -0.5853 -0.0408 -0.2424
11697SOL    HW135904   2.641   4.951   3.550 -1.1485 -2.1013  0.6800
11697SOL    HW235905   2.616   4.984   3.696  0.2936 -3.0556  1.1463
11698SOL     OW35906   1.043   6.666   2.064  0.0042  0.8967 -0.0538
11698SOL    HW135907   1.016   6.705   1.981 -0.1251  0.3409 -0.2716
11698SOL    HW235908   1.116   6.721   2.093 -0.5507  1.6440 -0.0778
11699SOL     OW35909   7.095   7.905   0.222  0.4446  0.2791 -0.1639
11699SOL    HW135910   7.083   7.899   0.317 -0.1800  0.1441 -0.2485
11699SOL    HW235911   7.052   7.827   0.187 -0.5839  1.0507 -0.6644
11700SOL     OW35912   0.057   6.263   6.154  0.2027 -0.3218  0.4187
11700SOL    HW135913   0.068   6.175   6.120  0.6677 -0.0424 -0.1627
11700SOL    HW235914   0.120   6.316   6.105 -1.6422  0.7489 -0.8914
11701SOL     OW35915   2.142   4.432   4.109 -0.1213  0.1591 -0.1774
11701SOL    HW135916   2.102   4.380   4.178  0.3626  0.2655  0.1850
11701SOL    HW235917   2.232   4.398   4.102  0.8415  2.2558  1.4413
11702SOL     OW35918   4.559   4.039   4.695  0.2562 -0.7354 -0.8463
11702SOL    HW135919   4.509   3.966   4.659 -1.8328  0.0710  0.3537
11702SOL    HW235920   4.501   4.079   4.759  2.7715 -0.2728  1.2335
11703SOL     OW35921   0.099   6.641   5.762 -0.1185 -0.0060 -0.0989
11703SOL    HW135922   0.054   6.723   5.742 -1.4395 -0.9717 -1.2404
11703SOL    HW235923   0.081   6.624   5.854 -1.2080  0.1637 -0.2809
11704SOL     OW35924   6.359   1.195   4.251 -0.3810 -0.0149 -0.7693
11704SOL    HW135925   6.275   1.150   4.242 -0.5938  0.2371 -0.0391
11704SOL    HW235926   6.398   1.158   4.330 -0.5046  0.9868 -0.2316
11705SOL     OW35927   0.334   3.838   4.902  0.2231 -0.7912 -0.5545
11705SOL    HW135928   0.383   3.786   4.965  1.1834 -1.5066 -1.8627
11705SOL    HW235929   0.400   3.890   4.857  0.0262 -2.8109 -3.3166
11706SOL     OW35930   5.850   6.162   5.923 -0.7321  0.5512 -0.0848
11706SOL    HW135931   5.876   6.198   5.838 -1.4181 -0.0191 -0.5392
11706SOL    HW235932   5.910   6.203   5.986 -1.8977  3.0142 -0.5049
11707SOL     OW35933   4.969   0.377   2.652 -0.4884 -0.1042  0.5213
11707SOL    HW135934   4.906   0.376   2.581 -0.9783 -0.2576  0.9576
11707SOL    HW235935   5.053   0.359   2.610 -0.8511 -0.7413  0.0612
11708SOL     OW35936   2.233   0.700   6.091  0.7199  0.2899  0.7569
11708SOL    HW135937   2.165   0.658   6.038 -1.4226  1.5333  2.4308
11708SOL    HW235938   2.308   0.641   6.085  0.0449 -0.3291 -2.4297
11709SOL     OW35939   1.988   1.914   4.858 -0.0063  0.1642  0.8699
11709SOL    HW135940   2.048   1.869   4.799  1.8691  0.7204  2.3031
11709SOL    HW235941   1.901   1.881   4.834  0.7266  0.1288 -1.9359
11710SOL     OW35942   1.848   7.617   1.281  0.4644 -0.0798  0.0868
11710SOL    HW135943   1.943   7.610   1.292  0.2306  0.7288  3.1444
11710SOL    HW235944   1.827   7.555   1.211  3.2744  0.0375 -0.9147
11711SOL     OW35945   7.465   2.284   7.370  0.0411  0.1167  0.0536
11711SOL    HW135946   7.507   2.312   7.289  2.3388 -0.7108  0.9141
11711SOL    HW235947   7.416   2.205   7.345 -1.4443  1.3769 -1.0694
11712SOL     OW35948   2.513   0.524   4.677  0.1212  0.1077 -0.0339
11712SOL    HW135949   2.600   0.486   4.673  1.5201  3.0860  0.5183
11712SOL    HW235950   2.487   0.518   4.769  1.8170  3.4746  0.7380
11713SOL     OW35951   5.982   4.720   1.980 -0.3203  0.1012 -0.1955
11713SOL    HW135952   6.066   4.681   1.955 -0.8405 -1.6893  0.7560
11713SOL    HW235953   5.966   4.788   1.914  2.1437  0.8614 -0.0475
11714SOL     OW35954   3.253   5.155   3.303 -0.5143 -0.8088  0.2821
11714SOL    HW135955   3.170   5.200   3.317 -2.7779 -4.0393 -2.1585
11714SOL    HW235956   3.286   5.190   3.220 -0.5967 -1.1736  0.0930
11715SOL     OW35957   2.941   2.408   5.138 -0.5835  0.7017 -0.6835
11715SOL    HW135958   2.864   2.382   5.187 -1.0799  1.7660 -0.8911
11715SOL    HW235959   2.972   2.327   5.097 -0.7685  0.0095  0.5207
11716SOL     OW35960   3.678   4.299   1.961 -0.2693  0.5301  0.1147
11716SOL    HW135961   3.760   4.331   1.997  0.0746  1.9995 -1.8778
11716SOL    HW235962   3.684   4.203   1.968  1.0301  0.6749  1.1744
11717SOL     OW35963   0.032   6.676   0.250  0.0156 -0.1086 -0.1840
11717SOL    HW135964   0.067   6.737   0.185  0.6981 -1.9501 -1.5706
11717SOL    HW235965   0.087   6.689   0.327  1.4192 -0.3556 -1.1192
11718SOL     OW35966   7.299   0.924   3.515  0.4656  0.0261  0.3264
11718SOL    HW135967   7.241   0.996   3.491 -0.9979 -1.4417 -0.6849
11718SOL    HW235968   7.342   0.899   3.434 -0.5673 -1.5382  0.2247
11719SOL     OW35969   3.668   6.389   3.199  0.3555 -0.3190  0.1767
11719SOL    HW135970   3.706   6.474   3.179 -0.7904 -0.0465 -0.9228
11719SOL    HW235971   3.575   6.398   3.176 -0.0483 -1.4571  1.2799
11720SOL     OW35972   5.565   5.460   2.388  0.5048  0.0134 -0.6457
11720SOL    HW135973   5.655   5.451   2.420  0.5226  1.2573 -0.3133
11720SOL    HW235974   5.560   5.401   2.313  1.3771 -0.6232 -0.2093
11721SOL     OW35975   0.039   7.776   3.171 -0.6807  0.2115  0.6011
11721SOL    HW135976   0.131   7.800   3.173 -0.7814  0.7087 -0.5714
11721SOL    HW235977   0.024   7.742   3.082 -1.4952 -0.3631  0.9452
11722SOL     OW35978   5.193   0.759   6.794  0.1687 -0.1185  0.0621
11722SOL    HW135979   5.253   0.821   6.836  0.5128 -1.1876  1.1942
11722SOL    HW235980   5.132   0.735   6.864 -0.4625 -0.4181 -0.5920
11723SOL     OW35981   6.420   2.344   2.470  0.0348 -0.6725  0.0635
11723SOL    HW135982   6.429   2.320   2.377  1.2578 -2.7323  0.6785
11723SOL    HW235983   6.349   2.288   2.502  0.4060 -0.8169  0.6416
11724SOL     OW35984   3.634   7.892   0.863  0.1211  0.3247 -0.2114
11724SOL    HW135985   3.719   7.850   0.849 -0.8742 -1.1628 -1.9713
11724SOL    HW235986   3.606   7.863   0.950  1.3384  0.7279  0.3259
11725SOL     OW35987   2.952   6.634   2.727  0.0144 -0.2401 -0.3393
11725SOL    HW135988   3.018   6.638   2.796  0.0735 -1.8712 -0.2837
11725SOL    HW235989   2.885   6.697   2.754  0.5037 -0.1649  0.7146
11726SOL     OW35990   4.760   3.603   7.564  0.4409 -0.3538 -0.3218
11726SOL    HW135991   4.798   3.650   7.639  0.6601 -0.5256 -0.3259
11726SOL    HW235992   4.739   3.672   7.501  0.1470 -0.1949 -0.0572
11727SOL     OW35993   3.669   6.419   1.927 -0.1580 -0.2058 -0.1120
11727SOL    HW135994   3.642   6.506   1.897 -1.7905 -0.4100  0.7072
11727SOL    HW235995   3.640   6.415   2.018  0.5790 -1.3351  0.0892
11728SOL     OW35996   0.740   0.041   7.777 -0.1746  0.1601 -0.2912
11728SOL    HW135997   0.676   0.112   7.774  0.0811  0.5228  1.7863
11728SOL    HW235998   0.819   0.078   7.739 -0.8254  0.1234 -1.6828
11729SOL     OW35999   5.135   3.787   7.147  0.0854 -0.9193  0.1959
11729SOL    HW136000   5.081   3.832   7.212  2.4357  1.7387  0.4215
11729SOL    HW236001   5.142   3.698   7.179 -1.1659 -0.3794  2.0508
11730SOL     OW36002   6.082   5.201   5.964 -0.1752 -0.1528 -0.0988
11730SOL    HW136003   6.169   5.162   5.971  0.1277  0.6859  0.8250
11730SOL    HW236004   6.098   5.294   5.955 -0.9979  0.0570  0.5693
11731SOL     OW36005   6.382   5.509   7.226  0.0039 -0.7693  0.3308
11731SOL    HW136006   6.403   5.497   7.319  1.1686 -2.1014 -0.0808
11731SOL    HW236007   6.294   5.473   7.216 -0.2021 -0.4504  0.9461
11732SOL     OW36008   5.520   1.921   2.375 -0.1013 -0.9420  0.0459
11732SOL    HW136009   5.529   1.944   2.282 -1.8775  0.0476  0.0926
11732SOL    HW236010   5.596   1.961   2.416 -1.1897  1.7758 -0.4658
11733SOL     OW36011   4.361   3.214   3.572 -0.0322 -0.3402  0.2096
11733SOL    HW136012   4.375   3.121   3.553  0.4467  0.0579 -1.4722
11733SOL    HW236013   4.282   3.237   3.522  0.4547  0.3981 -0.2318
11734SOL     OW36014   3.632   4.078   2.872  0.1297 -0.1326  0.1026
11734SOL    HW136015   3.643   4.095   2.965  0.1052 -2.2158  0.5110
11734SOL    HW236016   3.537   4.076   2.859  0.1043 -2.0581  0.4832
11735SOL     OW36017   0.556   7.614   2.807  0.1608 -0.2457  0.6376
11735SOL    HW136018   0.643   7.583   2.831  0.9777 -0.0350 -1.8791
11735SOL    HW236019   0.533   7.561   2.731 -1.0964  1.0078  0.1282
11736SOL     OW36020   5.113   3.329   2.797  0.0745 -0.0018 -0.5614
11736SOL    HW136021   5.068   3.299   2.718 -0.2207  2.4614 -1.3926
11736SOL    HW236022   5.158   3.409   2.770 -0.5516  1.2441  1.8950
11737SOL     OW36023   4.964   2.310   5.318 -0.1526  0.3577  0.3891
11737SOL    HW136024   5.032   2.288   5.254  0.4990  0.1616  1.1250
11737SOL    HW236025   5.012   2.315   5.401 -0.5644  2.9732  0.4991
11738SOL     OW36026   0.376   3.411   6.142  0.0748 -0.0601 -0.2603
11738SOL    HW136027   0.323   3.487   6.117 -0.6086 -0.2908  0.4504
11738SOL    HW236028   0.332   3.376   6.220  1.1995 -0.3466  0.2525
11739SOL     OW36029   2.654   3.779   1.727  0.2338  0.1799 -0.4993
11739SOL    HW136030   2.594   3.829   1.781 -1.7339 -1.6170 -0.9676
11739SOL    HW236031   2.691   3.843   1.666 -0.2506  1.5345  0.6150
11740SOL     OW36032   4.745   0.938   7.386  0.3151 -0.6600  0.0383
11740SOL    HW136033   4.661   0.912   7.423  0.4709 -0.2277  0.7003
11740SOL    HW236034   4.769   1.017   7.434  1.5607 -1.3158  0.5320
11741SOL     OW36035   1.384   0.958   5.578  0.1311  0.0251  0.2940
11741SOL    HW136036   1.405   1.035   5.631  0.9016  0.1305 -0.1449
11741SOL    HW236037   1.298   0.931   5.608 -0.8916  2.0629 -0.7275
11742SOL     OW36038   5.610   7.400   7.882  0.6441  0.2325  0.2560
11742SOL    HW136039   5.558   7.406   7.962  0.3441 -4.6827  0.6149
11742SOL    HW236040   5.699   7.386   7.912  1.0462  1.5739 -0.3054
11743SOL     OW36041   7.460   2.313   5.072 -0.2845  0.0166 -0.5737
11743SOL    HW136042   7.397   2.365   5.022  0.0085  2.2880  1.3048
11743SOL    HW236043   7.411   2.284   5.149  0.8021  1.5512  0.7522
11744SOL     OW36044   6.105   2.614   4.823  0.0810 -0.4149  0.2406
11744SOL    HW136045   6.011   2.617   4.839  0.4924  0.1318  2.8294
11744SOL    HW236046   6.134   2.705   4.826  1.3091 -0.8531  3.8646
11745SOL     OW36047   5.942   1.104   2.401 -0.2436  0.1221  0.7992
11745SOL    HW136048   5.858   1.147   2.416 -0.8510 -0.9725  0.5589
11745SOL    HW236049   5.950   1.041   2.473 -0.3328 -0.8283 -0.0184
11746SOL     OW36050   4.510   0.174   5.617  0.1348 -0.3332 -0.2347
11746SOL    HW136051   4.539   0.087   5.644 -0.5440 -0.5705 -0.2710
11746SOL    HW236052   4.546   0.185   5.529 -0.9073 -1.1278 -0.7707
11747SOL     OW36053   3.051   7.879   4.171  0.0545 -0.5058  0.1407
11747SOL    HW136054   3.112   7.827   4.119  1.0181  0.3305  0.4383
11747SOL    HW236055   3.024   7.821   4.242  0.2265 -0.9952 -0.1943
11748SOL     OW36056   1.176   5.403   6.717 -0.2889  0.1391  0.1858
11748SOL    HW136057   1.162   5.497   6.727  0.0374  0.2808 -0.5972
11748SOL    HW236058   1.137   5.381   6.632  1.4199 -0.0297 -0.5955
11749SOL     OW36059   7.430   6.657   3.918 -0.6124 -0.0037 -0.5726
11749SOL    HW136060   7.489   6.582   3.925  1.4784  1.6092 -0.4359
11749SOL    HW236061   7.425   6.676   3.825  0.6474  1.0262 -0.4526
11750SOL     OW36062   5.477   1.061   5.438 -0.3313 -0.3654  0.6160
11750SOL    HW136063   5.397   1.009   5.425 -1.2462  1.1104  0.2841
11750SOL    HW236064   5.471   1.093   5.528 -0.5409  0.4602  0.3126
11751SOL     OW36065   4.093   4.408   5.375 -0.1786 -0.0625  0.0702
11751SOL    HW136066   4.151   4.437   5.445 -0.5745 -1.3023  0.9406
11751SOL    HW236067   4.037   4.483   5.356 -1.6641 -0.4140  2.7622
11752SOL     OW36068   7.089   5.822   7.858 -0.4427 -0.2916 -0.0893
11752SOL    HW136069   7.091   5.907   7.902 -0.8455  0.2472 -1.1146
11752SOL    HW236070   7.127   5.762   7.923  1.8836  1.0260 -0.1497
11753SOL     OW36071   7.357   3.368   5.051  0.1208  0.1322 -0.2087
11753SOL    HW136072   7.313   3.410   5.125  0.5851 -1.4409  0.9912
11753SOL    HW236073   7.293   3.371   4.979 -0.2315  1.8988  0.1731
11754SOL     OW36074   0.535   2.156   6.999 -0.0599  0.1177  0.0631
11754SOL    HW136075   0.490   2.226   7.047 -0.4426  0.0841 -0.2425
11754SOL    HW236076   0.582   2.202   6.928  0.0597  0.1106  0.1368
11755SOL     OW36077   4.196   6.368   3.073  0.3458  0.3284  0.2486
11755SOL    HW136078   4.237   6.451   3.096 -0.3796  0.2137  1.9974
11755SOL    HW236079   4.105   6.377   3.099 -0.2293 -0.2846 -1.4532
11756SOL     OW36080   7.110   3.378   2.102  0.5040  0.1996  0.3531
11756SOL    HW136081   7.045   3.371   2.172  0.0595  0.2942 -0.0488
11756SOL    HW236082   7.195   3.377   2.148  0.2665 -1.2680  0.7894
11757SOL     OW36083   1.043   3.319   6.452 -0.5164 -0.7096  0.0193
11757SOL    HW136084   1.040   3.224   6.436  0.2610 -0.5175 -1.3209
11757SOL    HW236085   0.966   3.336   6.506  0.9509 -2.5741  2.8308
11758SOL     OW36086   2.341   7.140   5.240 -0.4386  0.4126  0.2075
11758SOL    HW136087   2.317   7.170   5.327  1.9692  0.8251  0.7676
11758SOL    HW236088   2.382   7.216   5.199 -2.2918  0.4763 -1.6210
11759SOL     OW36089   3.672   2.973   5.640  0.1384 -0.0539 -0.8928
11759SOL    HW136090   3.593   2.991   5.691  1.1177  0.2763  0.5534
11759SOL    HW236091   3.671   3.039   5.571  0.6692  1.8549  0.8864
11760SOL     OW36092   7.268   6.026   3.141 -0.2521 -0.0049  0.6203
11760SOL    HW136093   7.194   5.997   3.087  0.6104  2.5303 -2.0713
11760SOL    HW236094   7.326   5.951   3.143 -1.0585 -0.6966 -0.6932
11761SOL     OW36095   3.329   3.060   4.881  0.6028 -0.3363 -0.2401
11761SOL    HW136096   3.310   3.111   4.960 -1.7855 -0.7417 -0.5262
11761SOL    HW236097   3.244   3.047   4.839  1.8347 -0.0134 -2.9832
11762SOL     OW36098   5.817   2.946   6.068  0.2230  0.1476 -0.2152
11762SOL    HW136099   5.822   2.927   5.974 -0.3741 -2.5416  0.2532
11762SOL    HW236100   5.727   2.973   6.082 -0.0028 -0.5889 -0.2285
11763SOL     OW36101   5.520   7.441   1.149  0.1212 -0.0284  0.3800
11763SOL    HW136102   5.492   7.530   1.128 -0.4459  0.0760  1.5221
11763SOL    HW236103   5.599   7.427   1.096  0.9570  1.6300  1.1471
11764SOL     OW36104   0.560   1.820   3.983  0.4404 -0.1533  0.4598
11764SOL    HW136105   0.563   1.842   4.076  0.1045 -0.3169  0.5108
11764SOL    HW236106   0.638   1.861   3.946  0.2807  0.3843  0.7104
11765SOL     OW36107   2.356   0.334   5.595  0.9551  0.1248  0.0454
11765SOL    HW136108   2.431   0.303   5.545  0.8378 -0.5580  0.2961
11765SOL    HW236109   2.335   0.419   5.556 -0.6938 -1.4927 -2.7047
11766SOL     OW36110   5.328   0.835   4.112  0.0383  0.7030  0.0084
11766SOL    HW136111   5.295   0.753   4.076  0.8770 -0.4843  1.8747
11766SOL    HW236112   5.263   0.900   4.087 -1.0082 -0.6567 -0.8785
11767SOL     OW36113   2.756   7.666   6.006  0.1678  0.3387 -0.4406
11767SOL    HW136114   2.681   7.640   6.059 -0.0115  0.5914 -0.5677
11767SOL    HW236115   2.805   7.727   6.061  0.6464 -0.3370 -0.1015
11768SOL     OW36116   3.724   4.825   1.920  0.3964 -0.7025  0.1103
11768SOL    HW136117   3.745   4.739   1.882  1.9844 -0.2392 -0.1050
11768SOL    HW236118   3.733   4.885   1.846  0.1459 -0.2369  0.4637
11769SOL     OW36119   3.820   4.286   6.770  0.2114 -0.4287  0.2177
11769SOL    HW136120   3.766   4.316   6.696  1.1781  0.0590 -0.2941
11769SOL    HW236121   3.790   4.338   6.844 -1.0612 -1.2176  0.2655
11770SOL     OW36122   6.175   3.564   5.714  0.3982 -0.0924  0.2913
11770SOL    HW136123   6.232   3.568   5.636  0.7233  0.4868  0.5541
11770SOL    HW236124   6.182   3.651   5.752 -1.0758  0.1355  0.0478
11771SOL     OW36125   5.614   0.045   1.735  0.2339  0.3701 -0.0465
11771SOL    HW136126   5.655   0.123   1.697  2.6898 -0.0183  1.6897
11771SOL    HW236127   5.597  -0.012   1.660  2.5419  0.7237 -0.8915
11772SOL     OW36128   3.225   5.245   6.210 -0.3778 -0.3668 -0.2478
11772SOL    HW136129   3.250   5.300   6.136 -1.3220 -0.1740 -0.4221
11772SOL    HW236130   3.227   5.305   6.285  1.2011 -0.7034 -0.0020
11773SOL     OW36131   2.975   2.525   1.982  0.2699  0.2856 -0.0524
11773SOL    HW136132   3.013   2.440   1.959 -0.8618  0.2194 -1.7824
11773SOL    HW236133   2.934   2.510   2.067  2.4105 -0.1405  0.9595
11774SOL     OW36134   6.084   4.639   6.120 -0.5526 -0.1837 -0.1044
11774SOL    HW136135   6.092   4.651   6.025  0.5800  1.4690  0.1838
11774SOL    HW236136   6.009   4.692   6.145 -1.3476 -1.2499 -0.1657
11775SOL     OW36137   4.711   1.405   2.001 -0.4130 -0.5536 -0.0344
11775SOL    HW136138   4.683   1.315   2.013  0.6685 -1.3090 -2.7756
11775SOL    HW236139   4.790   1.399   1.947  0.0239  2.0074  0.2199
11776SOL     OW36140   4.236   6.450   3.843 -0.0980 -0.4735 -0.4023
11776SOL    HW136141   4.310   6.509   3.832  0.6373 -1.2061  0.5300
11776SOL    HW236142   4.172   6.480   3.778  0.6028  0.7887 -0.5317
11777SOL     OW36143   3.581   1.889   7.626 -0.0821  0.2534  0.3967
11777SOL    HW136144   3.638   1.950   7.579  0.6723  0.2486  1.3077
11777SOL    HW236145   3.593   1.911   7.718 -1.4601  0.1642  0.6017
11778SOL     OW36146   0.027   4.173   2.718 -0.3833 -0.3998  0.0505
11778SOL    HW136147  -0.059   4.161   2.678 -0.3213  0.9153 -0.5046
11778SOL    HW236148   0.072   4.089   2.705 -1.0803 -0.6308 -0.8755
11779SOL     OW36149   6.501   1.548   0.825  0.5466 -0.2020  1.0805
11779SOL    HW136150   6.418   1.511   0.795  1.8265 -2.0294 -0.3446
11779SOL    HW236151   6.476   1.620   0.883 -2.0362  1.2332 -1.6698
11780SOL     OW36152   2.527   3.264   1.935  0.4149  0.1702 -0.5807
11780SOL    HW136153   2.536   3.316   2.015  0.9629  1.5295 -1.5004
11780SOL    HW236154   2.535   3.328   1.864 -1.6457 -0.7709 -1.7042
11781SOL     OW36155   6.652   0.202   3.701  0.0742 -0.1160 -0.2506
11781SOL    HW136156   6.690   0.270   3.756 -0.4282 -0.2149  0.2190
11781SOL    HW236157   6.566   0.186   3.738  0.0703 -0.7954 -0.5413
11782SOL     OW36158   3.911   3.151   3.515 -0.5370 -0.3608 -0.1409
11782SOL    HW136159   3.894   3.068   3.470  1.2431 -1.0354  0.4161
11782SOL    HW236160   3.999   3.176   3.487 -0.7001  0.8803  0.4168
11783SOL     OW36161   0.066   3.114   2.257  0.0633  0.0152  1.0227
11783SOL    HW136162   0.020   3.195   2.237 -1.3888 -0.5260  2.1151
11783SOL    HW236163   0.158   3.132   2.234 -0.4653  1.5181  0.0439
11784SOL     OW36164   5.778   5.895   7.251 -0.7065 -0.0558  0.0823
11784SOL    HW136165   5.732   5.979   7.243 -0.3384 -0.0530 -2.1833
11784SOL    HW236166   5.719   5.832   7.210 -0.2477 -0.6428  0.3266
11785SOL     OW36167   2.535   3.093   4.540  0.1485 -0.5254  0.2913
11785SOL    HW136168   2.600   3.033   4.506 -1.3086 -0.6563 -2.3593
11785SOL    HW236169   2.585   3.170   4.567  1.5530 -1.2082 -0.3314
11786SOL     OW36170   0.096   3.199   6.009 -0.1698  0.0613  0.6120
11786SOL    HW136171   0.049   3.251   5.943 -1.4171  0.1241  1.5262
11786SOL    HW236172   0.152   3.263   6.054  1.0609 -0.0743 -0.7027
11787SOL     OW36173   0.285   4.280   4.268 -0.4568 -0.2568 -0.5386
11787SOL    HW136174   0.263   4.373   4.273 -1.0909 -0.3867 -0.7843
11787SOL    HW236175   0.265   4.246   4.354  2.0564  0.3004  0.3077
11788SOL     OW36176   4.925   7.904   1.051 -0.2571 -0.4355 -0.7648
11788SOL    HW136177   4.990   7.973   1.037  1.0983 -1.4678  0.2272
11788SOL    HW236178   4.966   7.846   1.115 -1.5114 -1.9664 -1.3225
11789SOL     OW36179   2.966   2.470   0.553 -0.2817 -0.0918  0.2227
11789SOL    HW136180   2.917   2.521   0.618 -0.0864  0.1404  0.1905
11789SOL    HW236181   2.898   2.426   0.501 -0.5096  1.2926 -0.6839
11790SOL     OW36182   6.751   3.569   4.597 -0.2490  0.5959  0.0477
11790SOL    HW136183   6.834   3.535   4.628 -0.3238  0.3496 -0.0214
11790SOL    HW236184   6.766   3.663   4.586 -0.3869  0.7855  1.3704
11791SOL     OW36185   5.892   1.328   3.363  0.0609  0.0364 -0.0822
11791SOL    HW136186   5.972   1.374   3.390  0.9227 -0.9080 -0.9620
11791SOL    HW236187   5.849   1.388   3.302  0.7642  0.0292 -0.5996
11792SOL     OW36188   6.228   6.219   1.480 -0.1711  0.6078 -0.6006
11792SOL    HW136189   6.155   6.279   1.462 -1.3919 -0.9149 -0.9298
11792SOL    HW236190   6.186   6.142   1.519  1.4064  0.1650  0.2612
11793SOL     OW36191   4.524   5.014   1.623  0.1219 -0.2785 -0.2552
11793SOL    HW136192   4.446   4.976   1.664  0.7646 -0.2579  1.0010
11793SOL    HW236193   4.558   4.943   1.569 -0.9325 -0.1905 -1.0467
11794SOL     OW36194   6.843   5.484   0.455  0.1317 -0.3080  0.2054
11794SOL    HW136195   6.809   5.554   0.400  0.6968  0.9525  1.4199
11794SOL    HW236196   6.938   5.488   0.442  0.3449  0.5637  1.8946
11795SOL     OW36197   1.443   6.886   1.184 -0.0326  0.4453 -0.5230
11795SOL    HW136198   1.358   6.843   1.178 -0.1188  0.4463  0.5514
11795SOL    HW236199   1.432   6.969   1.137 -0.3696  0.0685 -1.1103
11796SOL     OW36200   6.454   6.696   6.365 -0.0073  0.1502 -0.1657
11796SOL    HW136201   6.439   6.773   6.310  0.2132  1.5625  1.6946
11796SOL    HW236202   6.540   6.710   6.403 -0.7244 -0.0870  1.6263
11797SOL     OW36203   0.115   6.369   4.483  0.0509 -0.2750  0.1986
11797SOL    HW136204   0.202   6.407   4.492 -0.3880  0.5950  0.8359
11797SOL    HW236205   0.068   6.397   4.562 -1.2142  0.3650 -0.7504
11798SOL     OW36206   0.904   5.399   2.710  0.3481  0.3480  0.1255
11798SOL    HW136207   0.998   5.408   2.691  0.6816 -0.7282  1.1772
11798SOL    HW236208   0.894   5.433   2.799  0.0484 -1.1252  0.6673
11799SOL     OW36209   3.279   4.334   1.600  0.0316 -0.2883  0.1523
11799SOL    HW136210   3.328   4.368   1.675  1.0832  0.3345 -0.7983
11799SOL    HW236211   3.261   4.243   1.622  0.0759 -0.0295  1.2880
11800SOL     OW36212   5.187   3.160   3.014  0.1236 -0.1677 -0.2195
11800SOL    HW136213   5.146   3.229   2.962  0.0238 -1.7599 -2.3228
11800SOL    HW236214   5.116   3.125   3.068 -0.2960  0.0031 -0.6557
11801SOL     OW36215   1.987   5.026   1.112  0.6046  0.0379  0.0542
11801SOL    HW136216   1.980   5.117   1.084 -1.2665 -0.3208 -0.7436
11801SOL    HW236217   1.908   5.010   1.164  0.6987 -1.2244 -0.1611
11802SOL     OW36218   6.830   7.935   3.379 -0.2519 -0.0158 -0.0506
11802SOL    HW136219   6.764   7.950   3.447 -0.1920 -0.0424  0.0136
11802SOL    HW236220   6.819   8.008   3.318  0.4724  0.6282  0.5965
11803SOL     OW36221   5.462   2.934   5.711  0.2218  0.2198 -0.0607
11803SOL    HW136222   5.463   3.029   5.706  0.8316  0.1472 -1.3622
11803SOL    HW236223   5.432   2.915   5.801  1.3871  1.6306  0.6412
11804SOL     OW36224   0.679   6.720   2.520 -0.1721  0.1360 -0.4749
11804SOL    HW136225   0.677   6.691   2.428 -0.1019  0.6486 -0.6409
11804SOL    HW236226   0.588   6.714   2.549 -0.6679  2.5640 -1.4069
11805SOL     OW36227   7.040   7.745   6.247  0.0497 -0.7071 -0.1732
11805SOL    HW136228   6.957   7.698   6.234  1.0944 -1.9472 -2.6774
11805SOL    HW236229   7.049   7.799   6.169 -0.4743  2.7231  2.0711
11806SOL     OW36230   0.723   1.117   7.394  0.5267  0.0884 -0.2834
11806SOL    HW136231   0.678   1.199   7.413 -1.3010 -1.0512  0.4212
11806SOL    HW236232   0.684   1.087   7.312  0.0289 -0.8706  0.2958
11807SOL     OW36233   4.970   6.142   1.965  0.7311 -0.0619  0.2482
11807SOL    HW136234   4.925   6.076   2.017  1.1193  0.2179  0.9402
11807SOL    HW236235   5.005   6.205   2.029  2.4069 -0.4638 -0.2408
11808SOL     OW36236   6.753   1.172   1.467  0.0335  0.0661  0.2934
11808SOL    HW136237   6.740   1.171   1.372  2.2964  0.2913 -0.0364
11808SOL    HW236238   6.846   1.150   1.479  0.1610  1.6180  2.3756
11809SOL     OW36239   6.653   4.528   2.999  0.1540 -0.6300  0.0236
11809SOL    HW136240   6.599   4.511   2.923 -1.7285  2.3385  0.6220
11809SOL    HW236241   6.715   4.596   2.971  0.2694 -0.4216  0.7452
11810SOL     OW36242   4.177   5.552   5.627 -0.0332 -0.4415  0.1051
11810SOL    HW136243   4.185   5.646   5.608 -1.5233 -0.8213 -2.8105
11810SOL    HW236244   4.255   5.513   5.589 -0.2462 -0.5585 -0.2191
11811SOL     OW36245   0.519   4.088   2.155 -0.0630 -0.4274  0.3828
11811SOL    HW136246   0.472   4.131   2.084 -0.0569  1.3635  1.4421
11811SOL    HW236247   0.607   4.071   2.120 -1.0836 -2.7750 -1.2172
11812SOL     OW36248   1.674   4.421   7.179 -0.8140  0.3436 -0.0260
11812SOL    HW136249   1.614   4.446   7.109 -2.3894  0.4590  1.3305
11812SOL    HW236250   1.649   4.332   7.201  1.3264 -0.6167 -1.2661
11813SOL     OW36251   3.470   4.070   5.934  0.0166  0.5840 -0.2625
11813SOL    HW136252   3.406   4.141   5.930  0.3132  1.0150  1.8096
11813SOL    HW236253   3.437   4.011   6.002 -1.2854 -2.3965 -3.3458
11814SOL     OW36254   4.391   7.689   7.133 -0.1464 -0.3285  0.2947
11814SOL    HW136255   4.461   7.750   7.109  0.6768 -0.9627  1.0206
11814SOL    HW236256   4.337   7.681   7.055  0.4979  0.3154 -0.2148
11815SOL     OW36257   7.566   5.692   5.318 -0.2198 -0.0189  0.3006
11815SOL    HW136258   7.531   5.622   5.262 -0.9728  0.3621  0.2859
11815SOL    HW236259   7.500   5.703   5.386 -0.4629  1.1966 -0.1181
11816SOL     OW36260   4.068   7.684   7.478 -0.6345 -0.5464  0.2878
11816SOL    HW136261   4.143   7.625   7.482  0.6164  1.0460  1.2958
11816SOL    HW236262   4.086   7.741   7.404 -1.6484 -1.1767 -0.4502
11817SOL     OW36263   0.637   1.279   6.044 -0.1583 -0.2698 -0.1940
11817SOL    HW136264   0.617   1.368   6.073 -0.6324 -0.4931  0.1724
11817SOL    HW236265   0.640   1.228   6.124 -0.2984 -0.6616 -0.4364
11818SOL     OW36266   3.986   3.767   3.741  0.1169 -0.5430 -0.0555
11818SOL    HW136267   4.016   3.857   3.750  0.1142 -0.6048  0.5586
11818SOL    HW236268   3.999   3.727   3.827 -1.8358 -0.5323  0.2759
11819SOL     OW36269   6.310   6.434   0.802  0.2794  0.2537 -0.1593
11819SOL    HW136270   6.283   6.514   0.848  0.1716 -0.1155  0.4271
11819SOL    HW236271   6.321   6.461   0.711 -0.8710  0.6797 -0.1763
11820SOL     OW36272   6.070   7.317   4.184 -0.1312  0.1690 -0.4487
11820SOL    HW136273   5.976   7.324   4.167 -0.3484  2.1762  1.3522
11820SOL    HW236274   6.076   7.276   4.270  0.6020  1.1200 -0.0348
11821SOL     OW36275   2.837   3.458   0.543  0.4355  0.1747  0.1100
11821SOL    HW136276   2.845   3.479   0.450  0.5380 -1.9189 -0.3836
11821SOL    HW236277   2.742   3.454   0.558  0.4199  0.2115  0.0216
11822SOL     OW36278   0.558   4.819   5.216 -0.1462 -0.2054 -0.0296
11822SOL    HW136279   0.602   4.824   5.131  1.9997 -0.3399  1.0622
11822SOL    HW236280   0.475   4.865   5.202 -0.6647 -1.8505 -2.7104
11823SOL     OW36281   2.079   5.472   3.028  0.1404  0.1163  0.4332
11823SOL    HW136282   2.098   5.498   3.118 -1.0197 -0.3758  0.8363
11823SOL    HW236283   2.132   5.393   3.014  1.8177  1.2900  0.0119
11824SOL     OW36284   1.531   7.582   3.819  0.1047  0.3305 -0.0063
11824SOL    HW136285   1.486   7.552   3.740  0.9253  0.1922 -0.4274
11824SOL    HW236286   1.588   7.509   3.843  2.2578  1.5795 -1.1445
11825SOL     OW36287   2.142   7.690   2.415  0.3861  0.1508  0.4428
11825SOL    HW136288   2.078   7.740   2.466 -2.3846 -1.5525 -1.2452
11825SOL    HW236289   2.118   7.599   2.431  0.7906 -0.4395 -2.2116
11826SOL     OW36290   6.692   3.038   6.701 -0.0429  0.0325  0.1166
11826SOL    HW136291   6.702   2.948   6.668 -0.5597  0.3856 -1.0504
11826SOL    HW236292   6.665   3.027   6.792  0.7358 -0.9882  0.2395
11827SOL     OW36293   5.842   4.574   1.483 -0.1439 -0.8788 -0.2558
11827SOL    HW136294   5.924   4.599   1.527 -0.1158 -1.9776  0.3403
11827SOL    HW236295   5.871   4.527   1.405 -0.2003  0.4141 -1.0705
11828SOL     OW36296   4.861   2.969   1.400 -0.3720 -0.1523 -0.4877
11828SOL    HW136297   4.922   2.936   1.467  0.2340 -1.5328 -1.7022
11828SOL    HW236298   4.898   3.053   1.374  0.4220 -0.4809 -0.4300
11829SOL     OW36299   0.550   0.170   3.163 -0.0706  0.3588 -0.3039
11829SOL    HW136300   0.594   0.136   3.241 -1.0088  1.1092  0.5765
11829SOL    HW236301   0.561   0.265   3.169 -2.0499  0.5916  0.1085
11830SOL     OW36302   5.556   5.687   5.725 -0.2018  0.0558  0.1059
11830SOL    HW136303   5.649   5.710   5.730 -0.4894  0.9649  1.4182
11830SOL    HW236304   5.541   5.673   5.631  1.3544 -0.5561 -0.0748
11831SOL     OW36305   6.857   5.365   4.597  0.2470 -0.0091 -0.1667
11831SOL    HW136306   6.839   5.272   4.583 -0.7312 -0.0116  1.0731
11831SOL    HW236307   6.900   5.393   4.516 -0.1141 -1.3637 -0.8452
11832SOL     OW36308   7.859   5.779   7.523  0.0024 -0.0008 -0.2055
11832SOL    HW136309   7.770   5.814   7.512 -0.6773 -1.2192  1.2102
11832SOL    HW236310   7.917   5.852   7.500 -1.3680  1.2075  0.1025
11833SOL     OW36311   7.236   1.178   3.012  0.2677  0.3558  0.1248
11833SOL    HW136312   7.286   1.259   3.020  1.4510 -0.3695  0.2037
11833SOL    HW236313   7.296   1.116   2.970 -0.1290 -0.8851  1.3063
11834SOL     OW36314   1.958   6.704   7.582 -0.1881 -0.4417  0.0030
11834SOL    HW136315   1.979   6.645   7.654  0.1329  0.3408  0.5657
11834SOL    HW236316   1.865   6.688   7.563  0.7134 -3.5283 -2.1329
11835SOL     OW36317   4.125   7.362   4.140 -0.0787 -0.4079  0.0761
11835SOL    HW136318   4.094   7.402   4.221 -0.2815  0.8736 -0.6281
11835SOL    HW236319   4.143   7.271   4.164  0.5626  0.1345  1.7316
11836SOL     OW36320   6.602   1.964   3.026 -0.1241 -0.2018 -0.7103
11836SOL    HW136321   6.636   2.050   3.001  1.1306 -0.9815 -1.7900
11836SOL    HW236322   6.593   1.917   2.943  0.5814 -1.5882 -0.0190
11837SOL     OW36323   6.804   4.605   0.204  0.1043  0.6775  0.3061
11837SOL    HW136324   6.806   4.525   0.150  1.5591 -0.5215  2.0865
11837SOL    HW236325   6.877   4.658   0.171 -0.9036  1.3319 -0.9223
11838SOL     OW36326   5.215   2.848   3.519 -0.1447  0.1278 -0.1225
11838SOL    HW136327   5.165   2.766   3.521 -0.7457  0.4862 -0.2128
11838SOL    HW236328   5.148   2.916   3.509  0.2752  0.7065  0.9638
11839SOL     OW36329   5.373   2.194   1.528 -0.1459 -0.4507 -0.1015
11839SOL    HW136330   5.358   2.228   1.616  0.3916  0.1587 -0.2469
11839SOL    HW236331   5.337   2.260   1.469 -0.7182 -0.9670 -0.3378
11840SOL     OW36332   2.554   0.116   0.647 -0.4596  0.3067 -0.0134
11840SOL    HW136333   2.503   0.043   0.611 -0.6141  0.6069 -0.4008
11840SOL    HW236334   2.620   0.134   0.581 -1.0738  1.2116 -0.4018
11841SOL     OW36335   7.423   6.468   6.529  0.3126  0.0760 -0.1195
11841SOL    HW136336   7.415   6.413   6.607  0.5502 -1.1259 -0.9379
11841SOL    HW236337   7.494   6.428   6.478 -0.8418 -0.0334 -1.6772
11842SOL     OW36338   3.065   1.752   3.855 -0.0235  0.2785  0.3037
11842SOL    HW136339   3.059   1.725   3.946 -0.7325  0.0925  0.2100
11842SOL    HW236340   2.975   1.775   3.831  0.4796  2.2905  0.2495
11843SOL     OW36341   5.714   1.766   4.456 -0.3412 -0.3906 -0.3597
11843SOL    HW136342   5.739   1.854   4.485 -0.9142  0.0412 -1.1311
11843SOL    HW236343   5.636   1.745   4.507 -0.7727 -0.0416 -0.8686
11844SOL     OW36344   6.650   1.628   7.942 -0.4564 -0.2757 -0.6722
11844SOL    HW136345   6.711   1.700   7.923 -1.5686  0.4566 -1.6054
11844SOL    HW236346   6.602   1.616   7.860 -0.8745 -1.5067 -0.2491
11845SOL     OW36347   4.735   0.026   2.342  0.6466  0.2161 -0.1357
11845SOL    HW136348   4.720  -0.066   2.322  0.8119  0.1410  0.0895
11845SOL    HW236349   4.827   0.041   2.320  0.3083  0.6306 -1.3349
11846SOL     OW36350   0.011   3.087   6.838  0.1547  0.2148  0.2003
11846SOL    HW136351  -0.018   3.161   6.892 -1.8236  0.4123 -1.0642
11846SOL    HW236352  -0.069   3.057   6.794  1.3996 -1.0550 -1.2544
11847SOL     OW36353   0.636   6.350   5.098  0.2517  0.1678 -0.5892
11847SOL    HW136354   0.540   6.346   5.097  0.3022 -1.8040 -0.9232
11847SOL    HW236355   0.658   6.418   5.034 -0.9370  1.3044  0.1888
11848SOL     OW36356   6.163   3.242   1.313 -0.7157 -0.4939 -0.4166
11848SOL    HW136357   6.124   3.217   1.229 -2.1281 -1.4816  0.5342
11848SOL    HW236358   6.122   3.326   1.334 -1.4030 -0.9307 -0.0213
11849SOL     OW36359   7.397   4.374   6.881 -0.2162 -0.6825 -0.1549
11849SOL    HW136360   7.304   4.398   6.882  0.0177  0.2406 -0.3807
11849SOL    HW236361   7.398   4.283   6.852 -1.0821 -0.8246  0.2433
11850SOL     OW36362   5.058   5.427   7.478  0.1446  0.2199 -0.5333
11850SOL    HW136363   5.150   5.425   7.506 -0.3816  0.2970  1.2465
11850SOL    HW236364   5.035   5.334   7.467 -0.6232 -0.0204  2.6637
11851SOL     OW36365   6.564   7.351   0.787 -0.1453  0.2600  0.2530
11851SOL    HW136366   6.580   7.281   0.724  0.6621  0.7471 -0.0952
11851SOL    HW236367   6.531   7.424   0.735  0.1549  0.5355  0.4392
11852SOL     OW36368   7.719   5.062   0.656 -0.1897 -0.6695  0.1658
11852SOL    HW136369   7.760   5.103   0.732 -0.4929  2.1231 -1.1287
11852SOL    HW236370   7.632   5.037   0.686  0.5883 -1.8880  1.4390
11853SOL     OW36371   4.030   0.086   6.146 -0.5357 -0.5420 -0.3312
11853SOL    HW136372   4.112   0.105   6.101 -0.0744  1.7525  1.3874
11853SOL    HW236373   3.969   0.153   6.114 -0.8698 -0.3710  0.6280
11854SOL     OW36374   0.856   3.592   0.989  0.9824  0.2139 -0.1058
11854SOL    HW136375   0.804   3.512   0.989 -1.1266  1.5063 -1.7863
11854SOL    HW236376   0.798   3.658   1.026  2.7266  0.9747  1.3358
11855SOL     OW36377   1.706   6.690   7.466  0.0751 -0.0415  0.0691
11855SOL    HW136378   1.688   6.711   7.375  0.1475  0.3836  0.1504
11855SOL    HW236379   1.674   6.600   7.478 -0.6046  0.1671 -0.1794
11856SOL     OW36380   2.257   4.885   6.349  0.4886  0.5453  0.5435
11856SOL    HW136381   2.202   4.902   6.426  0.3566  1.9827  0.1324
11856SOL    HW236382   2.293   4.798   6.366 -1.9613 -0.4764  0.7877
11857SOL     OW36383   3.119   2.604   4.607 -0.0559  0.0324  0.2589
11857SOL    HW136384   3.132   2.510   4.614  1.1728  0.2322  0.7134
11857SOL    HW236385   3.119   2.635   4.698  0.7412  0.6174  0.0664
11858SOL     OW36386   0.584   0.567   1.346 -0.5320  0.1245  0.1498
11858SOL    HW136387   0.548   0.631   1.284  0.6121  0.0913 -0.5579
11858SOL    HW236388   0.619   0.621   1.417 -0.5081  0.2367  0.0548
11859SOL     OW36389   3.464   0.656   7.828  0.5458  0.5128  0.4127
11859SOL    HW136390   3.383   0.611   7.852  0.1690  1.5536  1.1450
11859SOL    HW236391   3.482   0.714   7.902  0.1862  2.6700 -1.1402
11860SOL     OW36392   7.041   3.538   0.018 -0.8974 -0.3314 -0.5296
11860SOL    HW136393   7.112   3.475   0.010  1.0343  1.7962 -0.4167
11860SOL    HW236394   6.962   3.484   0.028  0.9369 -2.7080  1.5866
11861SOL     OW36395   5.066   1.641   7.215  0.4508  0.0854  0.4191
11861SOL    HW136396   5.136   1.671   7.158  0.3752  0.8176  0.7068
11861SOL    HW236397   5.062   1.707   7.284 -0.0559 -0.3239  0.7805
11862SOL     OW36398   7.997   5.474   6.991 -0.2196 -0.1412 -0.0526
11862SOL    HW136399   8.078   5.460   7.040  0.7714  2.0013 -1.0039
11862SOL    HW236400   8.001   5.409   6.920  2.4051  2.1189 -2.1254
11863SOL     OW36401   3.095   2.135   2.868  0.0139 -0.1034  0.0050
11863SOL    HW136402   3.146   2.193   2.924  0.8123  1.3041 -2.1131
11863SOL    HW236403   3.005   2.165   2.876  0.4457  1.5925 -1.2085
11864SOL     OW36404   3.848   3.566   4.280  0.2718  0.4266 -0.1436
11864SOL    HW136405   3.886   3.600   4.199  1.3462 -0.0241  0.1593
11864SOL    HW236406   3.887   3.480   4.291 -0.2170  0.2954  0.6112
11865SOL     OW36407   3.525   6.509   6.165 -0.3395  0.1268 -0.0490
11865SOL    HW136408   3.461   6.458   6.115  1.1508 -1.5322 -0.3181
11865SOL    HW236409   3.496   6.500   6.256 -0.4159 -0.7088 -0.1523
11866SOL     OW36410   4.134   0.434   5.752  0.3392 -0.0108  0.3324
11866SOL    HW136411   4.069   0.398   5.813 -0.1178 -0.7568 -0.5837
11866SOL    HW236412   4.084   0.487   5.691  0.5312 -0.9901 -0.6799
11867SOL     OW36413   2.964   6.582   0.049  0.0628 -0.2751 -0.3110
11867SOL    HW136414   3.014   6.558  -0.029  1.8306 -2.4177  1.4227
11867SOL    HW236415   3.030   6.605   0.114 -1.3206 -0.2698  1.1158
11868SOL     OW36416   0.004   4.189   0.726 -0.0007  0.6295  0.4089
11868SOL    HW136417   0.081   4.179   0.782 -1.0548  0.5177  1.8574
11868SOL    HW236418   0.017   4.274   0.684  0.9460  0.5859  0.5945
11869SOL     OW36419   5.217   4.194   4.395  0.0894  0.2435 -0.3906
11869SOL    HW136420   5.305   4.231   4.408  0.2337 -0.7075  1.5292
11869SOL    HW236421   5.232   4.100   4.384 -0.7573 -0.0530  0.9491
11870SOL     OW36422   7.520   3.789   1.112 -0.0973 -0.2985 -0.4717
11870SOL    HW136423   7.548   3.727   1.045 -1.1556  0.2896 -1.4802
11870SOL    HW236424   7.541   3.875   1.075 -0.8063  0.0366 -0.0915
11871SOL     OW36425   1.947   2.984   3.552  0.0337 -0.4503 -0.4604
11871SOL    HW136426   1.956   2.980   3.457 -0.6881 -0.7279 -0.5223
11871SOL    HW236427   1.857   2.955   3.569 -0.9351  2.5813  0.0529
11872SOL     OW36428   0.139   0.020   6.801  0.1702 -0.3402 -0.4469
11872SOL    HW136429   0.233   0.019   6.816  0.1956 -2.3082 -0.6255
11872SOL    HW236430   0.130   0.048   6.709  0.5264  0.7541 -0.1517
11873SOL     OW36431   0.816   5.521   6.830  0.4865  0.2612 -0.0780
11873SOL    HW136432   0.842   5.438   6.791 -1.8221 -1.6432  2.2228
11873SOL    HW236433   0.720   5.523   6.820  0.6414  3.5462 -1.7310
11874SOL     OW36434   6.152   2.786   3.084  0.0499  0.1179  0.2311
11874SOL    HW136435   6.078   2.794   3.145 -0.2302 -0.0643 -0.0812
11874SOL    HW236436   6.186   2.875   3.076  0.3844  0.0597  1.0212
11875SOL     OW36437   1.030   2.870   7.382  0.7337 -0.5865 -0.1985
11875SOL    HW136438   1.100   2.869   7.448  0.4863 -0.8049  0.0605
11875SOL    HW236439   0.978   2.947   7.404 -0.0710 -1.3514  0.6197
11876SOL     OW36440   6.047   5.068   6.267  0.8290  0.3277  0.2595
11876SOL    HW136441   6.101   5.001   6.225 -0.6945 -0.3558 -0.6180
11876SOL    HW236442   5.975   5.083   6.206 -1.1269 -0.2780  2.3551
11877SOL     OW36443   5.719   7.314   0.897 -0.1148  0.4691  0.0174
11877SOL    HW136444   5.765   7.339   0.977  0.8946  0.0901 -0.4350
11877SOL    HW236445   5.755   7.228   0.875  0.0898  0.8587 -1.1999
11878SOL     OW36446   3.651   4.846   3.790 -0.0558  0.5611 -0.2363
11878SOL    HW136447   3.693   4.932   3.787 -0.0709  0.5515 -0.7447
11878SOL    HW236448   3.558   4.865   3.778 -0.3596  0.6987  2.1177
11879SOL     OW36449   2.761   3.108   3.520 -0.6194 -0.0369  0.6776
11879SOL    HW136450   2.674   3.148   3.518 -0.6210 -0.0854 -0.2081
11879SOL    HW236451   2.821   3.181   3.538 -0.7427  0.1645  0.2697
11880SOL     OW36452   4.928   5.432   2.303  0.1714  0.4120 -0.0794
11880SOL    HW136453   4.856   5.373   2.282  0.8641 -0.4617 -0.0542
11880SOL    HW236454   5.001   5.374   2.323  0.9089  1.2866 -0.1951
11881SOL     OW36455   1.415   0.552   0.019 -0.1007  0.4360 -0.2526
11881SOL    HW136456   1.383   0.466   0.047 -0.1329  1.0862  1.8150
11881SOL    HW236457   1.343   0.589  -0.032 -0.1066 -0.7284 -1.1278
11882SOL     OW36458   0.120   1.047   1.256 -0.0795  0.0057 -0.3379
11882SOL    HW136459   0.114   1.110   1.328  0.6666 -0.5231  0.1927
11882SOL    HW236460   0.092   1.096   1.179  0.3732  0.9557  0.0937
11883SOL     OW36461   6.848   4.618   7.812 -0.6597 -0.4942 -0.0475
11883SOL    HW136462   6.919   4.570   7.852 -1.3994 -1.7407 -0.2034
11883SOL    HW236463   6.868   4.617   7.718 -0.4088 -0.0367 -0.0021
11884SOL     OW36464   2.490   1.650   3.115 -0.1206 -0.5972  0.4219
11884SOL    HW136465   2.412   1.656   3.060  1.1701 -1.9584 -1.6350
11884SOL    HW236466   2.494   1.733   3.162 -1.8457  0.1588 -0.7566
11885SOL     OW36467   4.443   5.356   2.060  0.2489 -0.7081  0.2455
11885SOL    HW136468   4.363   5.315   2.030 -0.6016 -0.0631  1.5842
11885SOL    HW236469   4.465   5.420   1.992  0.2064 -1.6139 -0.6206
11886SOL     OW36470   0.277   2.807   3.930 -0.2230 -0.4026 -0.3926
11886SOL    HW136471   0.306   2.803   4.021  0.5012  0.8150 -0.5552
11886SOL    HW236472   0.226   2.727   3.917 -0.0077 -0.7687  0.9678
11887SOL     OW36473   2.280   2.629   4.072 -0.4524  0.2467  0.3278
11887SOL    HW136474   2.235   2.610   3.989  1.1221 -0.4496 -0.3811
11887SOL    HW236475   2.366   2.660   4.046  0.6653 -1.5861  1.7113
11888SOL     OW36476   5.959   3.870   1.577  0.4403  0.2791 -0.3045
11888SOL    HW136477   5.949   3.851   1.484 -0.8520 -1.3830  0.1746
11888SOL    HW236478   5.884   3.925   1.598  1.4718  1.8249 -0.5261
11889SOL     OW36479   6.077   7.841   4.202 -0.5960  0.1300  0.7179
11889SOL    HW136480   6.045   7.931   4.197  0.5621  0.5901  1.4630
11889SOL    HW236481   6.169   7.849   4.228 -1.1502 -1.3448  3.3045
11890SOL     OW36482   7.349   3.444   2.258 -0.1899 -0.4921  0.3168
11890SOL    HW136483   7.322   3.528   2.296  1.2430 -0.2197  0.7864
11890SOL    HW236484   7.415   3.469   2.193  1.6971 -1.3698  1.8358
11891SOL     OW36485   5.589   4.217   4.935 -0.6594 -0.4348 -0.0439
11891SOL    HW136486   5.667   4.267   4.912  1.3257 -2.3665  2.1959
11891SOL    HW236487   5.542   4.206   4.852  0.3375  2.5482 -1.0646
11892SOL     OW36488   3.737   6.605   3.976 -0.0915 -0.2107 -0.7263
11892SOL    HW136489   3.741   6.524   4.027  0.6203 -0.5669 -1.3331
11892SOL    HW236490   3.644   6.620   3.961 -0.1341 -2.3248 -2.8100
11893SOL     OW36491   0.309   1.525   1.786  0.2068 -0.0121 -0.2812
11893SOL    HW136492   0.350   1.593   1.839 -0.3513 -0.6714  1.0075
11893SOL    HW236493   0.232   1.568   1.747 -1.0984 -0.3370  1.8637
11894SOL     OW36494   4.507   2.414   3.988  0.3261  0.2073  0.4732
11894SOL    HW136495   4.506   2.508   3.970  0.6011  0.4162  1.5201
11894SOL    HW236496   4.483   2.407   4.081 -2.9451 -0.9529 -0.3829
11895SOL     OW36497   7.605   1.983   6.702 -0.0081 -0.1845  0.1902
11895SOL    HW136498   7.574   2.004   6.790  1.7859  0.6398  0.6548
11895SOL    HW236499   7.568   2.051   6.646  0.3260  0.3478  0.6124
11896SOL     OW36500   5.501   2.445   7.522  0.0933  0.0241  0.2630
11896SOL    HW136501   5.438   2.496   7.571  1.3288  2.0643 -0.2235
11896SOL    HW236502   5.569   2.508   7.496  1.3640 -1.7344 -0.8239
11897SOL     OW36503   3.841   0.161   5.115  0.2163 -0.4457  0.1754
11897SOL    HW136504   3.925   0.151   5.069  0.0412  1.2970 -0.5606
11897SOL    HW236505   3.829   0.256   5.122 -1.4845 -0.6886  0.6810
11898SOL     OW36506   3.595   5.419   7.254  0.1848 -0.5124  0.6248
11898SOL    HW136507   3.576   5.348   7.316 -1.8354 -1.4207 -0.9684
11898SOL    HW236508   3.640   5.376   7.181 -2.4558 -0.5046 -1.0809
11899SOL     OW36509   6.940   7.540   4.698 -0.1872 -0.4756  0.0492
11899SOL    HW136510   6.922   7.469   4.759  0.6266  1.6775  2.9360
11899SOL    HW236511   7.014   7.509   4.646  1.5024 -1.0328  2.6410
11900SOL     OW36512   7.615   3.098   6.522  0.7990 -0.5059  0.4273
11900SOL    HW136513   7.669   3.028   6.559  2.3999  0.1467 -0.6188
11900SOL    HW236514   7.575   3.059   6.445 -0.0415 -0.9112  1.0582
11901SOL     OW36515   7.880   3.956   3.035  0.1245  0.7982 -0.5204
11901SOL    HW136516   7.952   4.017   3.048  1.7027 -1.0323 -0.4768
11901SOL    HW236517   7.814   4.006   2.987  1.0483  2.7519  0.2303
11902SOL     OW36518   4.752   0.916   2.179  1.0396 -0.5151 -0.2349
11902SOL    HW136519   4.821   0.980   2.195  1.2016 -0.9042  0.6704
11902SOL    HW236520   4.766   0.888   2.088  0.1183  1.7172 -1.0812
11903SOL     OW36521   2.406   1.228   6.487  0.3592 -0.3362  0.0224
11903SOL    HW136522   2.453   1.145   6.497  0.0855 -0.3455  1.3020
11903SOL    HW236523   2.338   1.225   6.553  0.3542  0.9187  0.0790
11904SOL     OW36524   3.207   5.282   5.433 -0.0594 -0.4237  0.2828
11904SOL    HW136525   3.113   5.273   5.426 -0.4395  0.4998  3.2644
11904SOL    HW236526   3.221   5.322   5.519  3.0579 -0.8947  0.0749
11905SOL     OW36527   0.648   7.500   6.184 -0.1412  0.4497  0.1380
11905SOL    HW136528   0.711   7.551   6.234  0.3187 -0.1386  0.1633
11905SOL    HW236529   0.572   7.491   6.242 -0.6694  2.0200 -0.2659
11906SOL     OW36530   2.287   0.217   2.996  0.1907 -0.1200 -0.3128
11906SOL    HW136531   2.317   0.286   3.055  0.5298  0.1849 -0.8341
11906SOL    HW236532   2.266   0.262   2.915  0.1840 -0.6012 -0.5824
11907SOL     OW36533   0.246   6.061   2.957  0.0016  0.2040  0.5123
11907SOL    HW136534   0.213   6.029   3.041 -2.0763 -0.4787 -0.5328
11907SOL    HW236535   0.176   6.042   2.895  0.8388  2.2060 -1.0909
11908SOL     OW36536   4.184   1.790   2.035 -0.4803  0.3322  0.0451
11908SOL    HW136537   4.111   1.825   1.986 -0.2870 -0.5957 -0.9195
11908SOL    HW236538   4.256   1.785   1.972 -0.2793 -1.0074  0.3660
11909SOL     OW36539   4.480   0.673   6.946 -0.5626  0.2502 -0.5775
11909SOL    HW136540   4.390   0.648   6.927 -0.8799  0.9862 -0.0437
11909SOL    HW236541   4.473   0.742   7.012  0.4813 -1.4854  1.3987
11910SOL     OW36542   1.896   5.509   3.927 -0.2404 -0.0780 -0.1263
11910SOL    HW136543   1.850   5.482   3.848 -1.2177 -0.3796  0.5268
11910SOL    HW236544   1.893   5.605   3.926 -0.2023 -0.0809 -0.4744
11911SOL     OW36545   6.721   4.988   6.398 -0.0925 -0.2417  0.1637
11911SOL    HW136546   6.732   4.903   6.356  0.9396 -0.7094  1.3508
11911SOL    HW236547   6.789   5.043   6.360 -1.7774  0.5685 -1.8092
11912SOL     OW36548   4.305   5.117   6.436 -0.3714 -0.2842  0.1864
11912SOL    HW136549   4.283   5.103   6.343  2.2038 -1.8507 -0.2045
11912SOL    HW236550   4.262   5.045   6.482 -0.3918 -0.3580  0.0514
11913SOL     OW36551   0.691   0.432   7.009  0.0164  0.4272  0.3587
11913SOL    HW136552   0.765   0.465   7.060  0.7087  0.8235 -0.9017
11913SOL    HW236553   0.642   0.378   7.072  1.1752  0.4377  1.2975
11914SOL     OW36554   5.543   4.990   2.685  0.1846  0.1950  0.6407
11914SOL    HW136555   5.543   4.975   2.590 -2.2469  0.7497  0.5146
11914SOL    HW236556   5.509   4.908   2.721  0.6095  0.1758  0.9891
11915SOL     OW36557   1.031   2.426   3.810  0.1731  0.1397 -1.0622
11915SOL    HW136558   1.022   2.331   3.799  0.9053  0.1416 -1.6583
11915SOL    HW236559   0.999   2.463   3.728 -0.5667  0.4362 -0.6454
11916SOL     OW36560   2.235   7.457   0.339 -0.4181 -0.0582 -0.0530
11916SOL    HW136561   2.239   7.484   0.431  1.9408  0.9056 -0.3952
11916SOL    HW236562   2.312   7.498   0.299 -0.6537 -1.6011 -2.1612
11917SOL     OW36563   7.230   4.003   3.169  0.2193  0.4773  0.0569
11917SOL    HW136564   7.321   3.987   3.141 -0.5068  0.1999 -2.2710
11917SOL    HW236565   7.197   3.916   3.192  0.5714  0.6004  1.0732
11918SOL     OW36566   1.940   7.714   1.648  0.2837  0.6394 -0.0935
11918SOL    HW136567   1.871   7.750   1.593 -0.2816  0.6299  0.5942
11918SOL    HW236568   1.949   7.623   1.619 -0.1457  0.5796 -0.0441
11919SOL     OW36569   5.276   4.142   5.179  0.3709  0.8316  0.5226
11919SOL    HW136570   5.338   4.164   5.249 -1.3544 -0.2114  2.4482
11919SOL    HW236571   5.215   4.215   5.178 -1.0434 -0.2824  1.8558
11920SOL     OW36572   4.671   3.800   1.155  0.0344  0.1429 -0.0580
11920SOL    HW136573   4.658   3.736   1.085  3.4758  0.4560 -1.0350
11920SOL    HW236574   4.671   3.748   1.235 -2.4189 -0.3976 -0.3591
11921SOL     OW36575   1.634   6.710   5.441  0.5037  0.7991  0.2325
11921SOL    HW136576   1.546   6.674   5.429  0.7842 -0.1314  0.8510
11921SOL    HW236577   1.685   6.674   5.368  1.4132 -2.2159  2.2438
11922SOL     OW36578   4.748   1.115   4.739  0.2134 -0.5960  0.0130
11922SOL    HW136579   4.788   1.127   4.826 -0.2734 -2.2564  0.4810
11922SOL    HW236580   4.676   1.178   4.737  0.7866  0.0913  0.4473
11923SOL     OW36581   6.650   2.171   0.831  0.5113 -0.1252  0.3778
11923SOL    HW136582   6.687   2.091   0.868 -0.2980 -0.4998  0.3840
11923SOL    HW236583   6.598   2.141   0.757 -0.4776  0.3131  0.8843
11924SOL     OW36584   3.065   0.555   7.564 -0.1482  0.1626  0.3790
11924SOL    HW136585   3.063   0.650   7.563  1.7165  0.2263  0.1809
11924SOL    HW236586   3.046   0.529   7.473  1.5715  0.4449 -0.0879
11925SOL     OW36587   7.318   4.041   4.908  0.3362 -0.1485  0.5487
11925SOL    HW136588   7.307   4.136   4.898 -0.0234 -0.1178  1.2715
11925SOL    HW236589   7.399   4.032   4.958  0.2390 -0.2166  0.6937
11926SOL     OW36590   6.822   2.736   6.581 -0.3119 -0.8803  0.0425
11926SOL    HW136591   6.744   2.754   6.529 -1.3708  0.3419  1.9992
11926SOL    HW236592   6.895   2.749   6.520 -1.6017 -2.4532 -1.9289
11927SOL     OW36593   0.126   5.517   4.823 -0.0595  0.7130  0.1953
11927SOL    HW136594   0.064   5.544   4.890  1.2139  1.3926  1.1273
11927SOL    HW236595   0.169   5.598   4.796  0.1793  0.2958 -0.6859
11928SOL     OW36596   3.807   5.785   4.496 -0.1119 -0.1700 -0.2401
11928SOL    HW136597   3.859   5.709   4.469  0.2702 -0.5443  1.4523
11928SOL    HW236598   3.739   5.748   4.552 -2.2848  0.3056 -2.4603
11929SOL     OW36599   6.752   7.885   4.177  0.2214  0.7046 -0.2771
11929SOL    HW136600   6.823   7.927   4.128  1.1170 -1.3238 -0.7453
11929SOL    HW236601   6.765   7.915   4.267  1.4534  0.6426 -0.4293
11930SOL     OW36602   1.572   1.546   4.173  0.2204 -0.3845 -0.0497
11930SOL    HW136603   1.499   1.574   4.118 -0.0341 -1.9672 -0.5628
11930SOL    HW236604   1.584   1.453   4.151  1.4028 -0.5305  1.1283
11931SOL     OW36605   0.675   4.629   0.149 -0.1632  0.4477 -0.0802
11931SOL    HW136606   0.615   4.556   0.164  0.5450 -0.2918 -0.8087
11931SOL    HW236607   0.662   4.687   0.225 -0.8308 -0.3621  0.4257
11932SOL     OW36608   1.733   0.482   1.126 -0.7880 -0.1102  0.1609
11932SOL    HW136609   1.792   0.470   1.201 -0.6173  0.3745  0.1077
11932SOL    HW236610   1.651   0.442   1.153 -0.2756 -1.2669  0.0367
11933SOL     OW36611   3.099   5.382   7.696 -0.2552 -0.0424  0.1705
11933SOL    HW136612   3.054   5.302   7.673  2.7100 -1.0160 -2.6779
11933SOL    HW236613   3.139   5.364   7.782 -0.1811 -1.3669 -0.1320
11934SOL     OW36614   7.410   1.301   2.340 -0.0590  0.0694 -0.0406
11934SOL    HW136615   7.427   1.285   2.248 -2.8716  1.5339 -0.8721
11934SOL    HW236616   7.434   1.393   2.353 -1.9026  0.5443  0.0922
11935SOL     OW36617   4.031   2.609   0.273  0.2281  0.3805  0.6094
11935SOL    HW136618   4.026   2.658   0.355 -1.2359 -0.6194  1.1332
11935SOL    HW236619   3.941   2.584   0.254  0.7232 -0.5662 -0.6008
11936SOL     OW36620   0.322   2.156   5.124  0.2541 -0.2312  0.2008
11936SOL    HW136621   0.294   2.151   5.216  2.6869 -1.1174  0.9572
11936SOL    HW236622   0.416   2.139   5.128  0.3918 -0.2243 -2.4760
11937SOL     OW36623   7.249   1.287   6.506 -0.2847  0.5263 -0.0909
11937SOL    HW136624   7.236   1.236   6.586 -2.1503 -0.9086 -1.2687
11937SOL    HW236625   7.331   1.253   6.469 -0.2919  0.0314  0.3423
11938SOL     OW36626   4.034   4.568   2.036  0.5135 -0.4463 -0.1293
11938SOL    HW136627   4.083   4.639   2.078 -0.1139  0.5955 -1.1363
11938SOL    HW236628   4.026   4.595   1.945  0.1632 -1.7634 -0.5015
11939SOL     OW36629   2.690   6.864   2.604  0.4067  0.0762 -0.1294
11939SOL    HW136630   2.756   6.934   2.607  1.1418 -0.6528  1.5318
11939SOL    HW236631   2.731   6.794   2.554  1.3498 -0.8032  1.8342
11940SOL     OW36632   4.721   5.961   2.967  0.1466  0.0122  0.3178
11940SOL    HW136633   4.785   5.974   3.037 -2.3600  2.0658  2.3371
11940SOL    HW236634   4.649   5.913   3.009 -0.6003 -0.3252 -1.3282
11941SOL     OW36635   5.494   0.375   5.027  0.2186  0.4111 -0.3717
11941SOL    HW136636   5.469   0.314   4.958  0.1148 -2.3632  1.9962
11941SOL    HW236637   5.585   0.353   5.047  0.7951  2.3285 -0.7115
11942SOL     OW36638   4.282   6.572   2.109  0.3763 -0.1287 -0.2446
11942SOL    HW136639   4.206   6.575   2.051  0.6874  0.2951 -0.6422
11942SOL    HW236640   4.264   6.638   2.176  0.3287 -0.1268 -0.2607
11943SOL     OW36641   7.713   5.042   0.269 -0.4004 -0.1268  0.0340
11943SOL    HW136642   7.673   4.977   0.326 -2.5996  1.0895 -0.0781
11943SOL    HW236643   7.678   5.126   0.299 -1.0577  0.6066 -2.6357
11944SOL     OW36644   1.631   5.676   6.364 -0.0519  0.1783  0.4441
11944SOL    HW136645   1.558   5.617   6.384 -1.0415  1.1614 -0.2197
11944SOL    HW236646   1.698   5.620   6.326 -0.8839 -0.5605  0.0548
11945SOL     OW36647   3.754   0.332   3.580 -0.2486  0.6268  0.4391
11945SOL    HW136648   3.661   0.338   3.560 -0.3848  1.1030  1.2073
11945SOL    HW236649   3.784   0.423   3.585  0.3705  0.4708 -0.3148
11946SOL     OW36650   5.388   6.947   0.331 -0.5455 -0.0858  0.1009
11946SOL    HW136651   5.407   6.996   0.251  1.4960 -1.5799 -0.3533
11946SOL    HW236652   5.351   7.013   0.390  1.2054  1.8049 -0.8334
11947SOL     OW36653   1.088   3.665   3.630  0.0173 -0.4252  0.9994
11947SOL    HW136654   1.125   3.702   3.550 -1.7384  1.7801  1.1525
11947SOL    HW236655   1.139   3.705   3.701  0.1689 -0.7141  1.0528
11948SOL     OW36656   6.554   1.418   6.946  0.2723  0.1823 -0.2137
11948SOL    HW136657   6.599   1.503   6.943  0.5536  0.0352 -0.2260
11948SOL    HW236658   6.619   1.359   6.983 -0.1380  0.1025  0.3808
11949SOL     OW36659   7.256   2.453   0.336 -0.0458  0.1229  0.2527
11949SOL    HW136660   7.319   2.462   0.265  1.3447 -0.5618  1.3853
11949SOL    HW236661   7.276   2.525   0.395 -2.2478  1.6574 -0.8155
11950SOL     OW36662   2.761   6.480   5.304 -0.2241  0.3417 -0.1229
11950SOL    HW136663   2.813   6.485   5.223 -2.4714  0.8125 -1.5965
11950SOL    HW236664   2.767   6.568   5.341 -0.2726  0.4999 -0.4846
11951SOL     OW36665   6.769   1.153   3.392 -0.0422  0.1279 -0.5246
11951SOL    HW136666   6.707   1.192   3.331  0.5869  0.4665 -0.9482
11951SOL    HW236667   6.818   1.090   3.340  0.8403  0.7819 -0.5019
11952SOL     OW36668   7.246   5.039   6.710 -0.3133  0.1024 -0.0407
11952SOL    HW136669   7.267   5.103   6.641  0.0008  0.4785  0.4001
11952SOL    HW236670   7.296   5.069   6.786  0.6221 -1.2510 -0.1134
11953SOL     OW36671   4.292   5.107   0.144  0.2481 -0.6695  0.3242
11953SOL    HW136672   4.248   5.024   0.126 -0.9388 -0.2114  1.0517
11953SOL    HW236673   4.366   5.083   0.201  2.2667 -1.7230 -2.6207
11954SOL     OW36674   1.084   7.979   3.195 -0.4516  0.2136 -0.2670
11954SOL    HW136675   1.079   8.042   3.267  2.8867  0.6630 -0.3242
11954SOL    HW236676   1.010   8.001   3.139 -0.2398  3.1464  0.5022
11955SOL     OW36677   6.746   4.922   0.415 -0.4478 -0.3004 -0.0288
11955SOL    HW136678   6.777   4.952   0.330  1.6078  0.6136  1.0310
11955SOL    HW236679   6.748   5.000   0.470  0.2624 -1.3351  1.4263
11956SOL     OW36680   3.074   7.330   0.723  0.2818 -0.0965 -0.2935
11956SOL    HW136681   3.071   7.255   0.783 -0.5471  1.7466  2.0300
11956SOL    HW236682   2.993   7.322   0.673 -0.8456  0.3815  1.4030
11957SOL     OW36683   2.402   4.172   6.489 -0.2504  0.0218 -0.1494
11957SOL    HW136684   2.376   4.261   6.510  0.2322 -0.0152  0.6479
11957SOL    HW236685   2.392   4.124   6.572  0.9961 -0.2955 -0.1694
11958SOL     OW36686   3.791   3.888   3.546  0.6559 -0.1323 -0.0320
11958SOL    HW136687   3.841   3.819   3.590  0.8937  0.4291  0.5803
11958SOL    HW236688   3.787   3.959   3.610 -1.6146 -0.4711  0.2832
11959SOL     OW36689   1.040   1.125   4.612  0.0135 -0.1540 -0.2886
11959SOL    HW136690   0.980   1.191   4.645 -0.5814 -0.8276  0.0005
11959SOL    HW236691   0.997   1.042   4.632  1.0996 -0.6489  0.0547
11960SOL     OW36692   1.703   6.209   2.351  0.1741  0.0781  1.3426
11960SOL    HW136693   1.644   6.133   2.350 -0.3251  0.3869 -2.1648
11960SOL    HW236694   1.791   6.171   2.346  0.0708 -0.3025  2.2886
11961SOL     OW36695   2.274   7.564   1.537  0.1450 -0.0600  0.3703
11961SOL    HW136696   2.282   7.659   1.540 -0.9365  0.0641 -0.3563
11961SOL    HW236697   2.363   7.532   1.554  0.5171  1.0757  0.5960
11962SOL     OW36698   4.954   3.913   7.287  0.0029  0.0729  0.3905
11962SOL    HW136699   4.911   3.994   7.258  0.0904  0.2607  0.7860
11962SOL    HW236700   4.983   3.932   7.376 -0.1177 -0.4527  0.5421
11963SOL     OW36701   6.672   1.091   0.218 -0.4422  0.0239  0.3372
11963SOL    HW136702   6.672   1.036   0.139  1.5069  2.2391 -1.2495
11963SOL    HW236703   6.588   1.137   0.215 -0.1591  0.4844 -0.7305
11964SOL     OW36704   2.448   6.612   2.024  0.5347 -0.2175 -0.1541
11964SOL    HW136705   2.479   6.646   1.940 -0.6574 -0.3759 -0.6753
11964SOL    HW236706   2.374   6.555   2.001 -0.8571  1.0321  1.1223
11965SOL     OW36707   7.970   4.347   4.784  0.1942 -0.0848 -0.5463
11965SOL    HW136708   7.926   4.263   4.800 -0.4971  0.1819 -1.0777
11965SOL    HW236709   8.063   4.328   4.803 -0.0940 -0.7091  0.3118
11966SOL     OW36710   5.114   5.406   2.916 -0.3004  0.6504 -0.2789
11966SOL    HW136711   5.179   5.345   2.879 -0.1516  0.7663 -0.2109
11966SOL    HW236712   5.158   5.445   2.991  0.5269  2.6744 -1.7609
11967SOL     OW36713   5.040   6.974   1.825 -0.7113  0.0434  0.3902
11967SOL    HW136714   5.013   6.882   1.817 -0.6863  0.2081 -2.1845
11967SOL    HW236715   5.072   6.997   1.738 -0.5312  2.4511  1.0465
11968SOL     OW36716   3.001   6.248   6.283  0.0434 -0.0760 -0.7461
11968SOL    HW136717   2.966   6.313   6.344 -1.7985 -1.5959 -0.1122
11968SOL    HW236718   3.087   6.226   6.318 -0.0509  0.7659  0.0290
11969SOL     OW36719   3.006   3.458   2.165  0.2725  0.0383  0.2662
11969SOL    HW136720   3.091   3.503   2.164  0.3918 -0.0177  2.7589
11969SOL    HW236721   3.021   3.377   2.117  1.5641  0.1848  0.3998
11970SOL     OW36722   5.608   1.678   7.367 -0.0260  0.9295 -0.0238
11970SOL    HW136723   5.543   1.748   7.364 -2.1829 -1.0937 -2.4723
11970SOL    HW236724   5.587   1.630   7.447  0.3244  2.0154  0.7270
11971SOL     OW36725   0.407   3.975   6.974  0.0904 -0.2379  0.1186
11971SOL    HW136726   0.489   4.005   6.935 -0.0228 -0.2701 -0.1475
11971SOL    HW236727   0.424   3.884   6.998  0.4367  0.0430  0.9383
11972SOL     OW36728   7.966   5.315   6.709  0.0862 -0.5715  0.5870
11972SOL    HW136729   8.003   5.231   6.683 -1.7799 -1.2144 -0.0644
11972SOL    HW236730   7.878   5.293   6.741 -0.9718  1.3059 -0.9800
11973SOL     OW36731   0.599   3.845   0.837  0.5510 -0.5272 -0.3485
11973SOL    HW136732   0.592   3.777   0.771  0.6786 -0.2954 -0.6043
11973SOL    HW236733   0.666   3.905   0.803  0.6121 -0.4007 -0.0157
11974SOL     OW36734   0.282   5.205   7.794 -0.3658 -0.0445  0.1924
11974SOL    HW136735   0.312   5.256   7.868  0.6908  1.5835 -1.3174
11974SOL    HW236736   0.322   5.119   7.805 -0.6468  0.0169  1.7565
11975SOL     OW36737   0.081   5.305   2.479 -0.2489  0.3695  0.3860
11975SOL    HW136738  -0.006   5.299   2.518  0.3654  1.3269  1.9194
11975SOL    HW236739   0.133   5.240   2.526  0.3098  1.0127  0.6460
11976SOL     OW36740   7.472   0.546   5.399 -0.2212 -0.1318 -0.7682
11976SOL    HW136741   7.536   0.520   5.465 -0.5246 -0.3536 -0.5614
11976SOL    HW236742   7.399   0.485   5.410 -0.2798 -0.1632 -1.3008
11977SOL     OW36743   7.908   2.057   0.681 -0.5449  0.2815  0.4217
11977SOL    HW136744   7.952   1.972   0.673 -0.6368  0.1532  1.2709
11977SOL    HW236745   7.876   2.075   0.592  1.1937  0.3769 -0.1946
11978SOL     OW36746   7.001   5.911   4.856 -0.5021 -0.2387 -0.1321
11978SOL    HW136747   6.981   5.942   4.944 -2.2059 -1.1118 -0.1904
11978SOL    HW236748   7.095   5.929   4.845 -0.8016  2.1226  0.9195
11979SOL     OW36749   5.791   4.525   3.555 -0.3045  0.2939 -0.4932
11979SOL    HW136750   5.810   4.575   3.476 -0.4215 -1.3687 -1.5937
11979SOL    HW236751   5.856   4.557   3.619  1.1668  0.1555 -1.8847
11980SOL     OW36752   0.485   1.683   2.369  0.0004  0.5680 -0.3133
11980SOL    HW136753   0.420   1.670   2.437 -0.0615  2.6246  0.0541
11980SOL    HW236754   0.480   1.604   2.315 -2.0050  0.2229  0.3593
11981SOL     OW36755   1.696   5.728   6.791 -0.4016  0.3353  0.2262
11981SOL    HW136756   1.750   5.806   6.803  2.4346 -1.5074 -0.0798
11981SOL    HW236757   1.682   5.694   6.880  2.0810 -1.1552  0.1184
11982SOL     OW36758   1.439   2.769   3.669 -0.0291 -0.3260 -0.0833
11982SOL    HW136759   1.431   2.839   3.733  3.2933 -1.6188  1.9021
11982SOL    HW236760   1.398   2.693   3.711  2.0944 -1.1622  0.5487
11983SOL     OW36761   0.911   0.794   5.213 -0.3606  0.2240 -0.1213
11983SOL    HW136762   0.903   0.699   5.198  1.0434  0.5791 -3.5025
11983SOL    HW236763   0.981   0.801   5.278 -1.3497 -1.1056  1.1214
11984SOL     OW36764   0.766   4.315   3.938 -0.0849  0.2516 -0.3670
11984SOL    HW136765   0.684   4.364   3.946 -0.5738 -0.1727 -2.5238
11984SOL    HW236766   0.828   4.377   3.900 -0.1382 -0.1904 -1.1845
11985SOL     OW36767   4.921   0.687   1.595 -0.2217 -0.5900  0.4372
11985SOL    HW136768   4.984   0.690   1.666  0.4343  0.5170 -0.1936
11985SOL    HW236769   4.965   0.727   1.521 -1.1359 -1.1365 -0.4195
11986SOL     OW36770   6.077   3.983   5.413  0.5190 -0.0273 -0.2644
11986SOL    HW136771   6.062   3.933   5.493 -0.3530  0.4221 -0.1468
11986SOL    HW236772   5.990   4.006   5.382  0.9505  2.8064  0.5494
11987SOL     OW36773   0.628   0.293   2.892 -0.7115  0.7437 -0.4016
11987SOL    HW136774   0.716   0.328   2.877 -0.1307 -1.2816 -1.8987
11987SOL    HW236775   0.642   0.215   2.946 -1.4727 -0.2059 -1.5577
11988SOL     OW36776   3.305   3.479   2.180  0.1329 -0.3672  0.1148
11988SOL    HW136777   3.314   3.385   2.192 -2.0084 -0.6272 -0.0978
11988SOL    HW236778   3.380   3.504   2.127 -0.0202 -2.1918 -1.0035
11989SOL     OW36779   4.540   2.342   5.806 -0.2818 -1.0816  0.0739
11989SOL    HW136780   4.547   2.431   5.772  1.6266 -0.1819  2.6900
11989SOL    HW236781   4.454   2.340   5.849 -0.6355 -0.7585 -0.6027
11990SOL     OW36782   5.708   2.449   6.990 -0.3648 -0.0636  0.2602
11990SOL    HW136783   5.766   2.485   7.057 -0.7771  1.6697 -0.2950
11990SOL    HW236784   5.634   2.510   6.986 -1.7442 -1.6803  0.2224
11991SOL     OW36785   6.009   0.417   7.719 -0.5768 -0.0950 -0.2821
11991SOL    HW136786   6.073   0.354   7.752 -0.8929 -0.3092 -0.0673
11991SOL    HW236787   6.061   0.485   7.677 -0.1040  0.7505  1.6243
11992SOL     OW36788   2.022   7.147   5.374 -0.3206  0.4413  0.2179
11992SOL    HW136789   2.065   7.215   5.322  1.4621 -0.7135  0.1143
11992SOL    HW236790   2.014   7.073   5.314  1.6631 -0.8741  1.5098
11993SOL     OW36791   6.410   2.020   4.144  0.1121  0.2313 -0.0832
11993SOL    HW136792   6.422   1.931   4.177 -0.9429  0.2235  0.2889
11993SOL    HW236793   6.388   2.072   4.221 -0.1432  0.6404 -0.4270
11994SOL     OW36794   5.878   7.096   2.335 -0.0959  0.1418 -0.7195
11994SOL    HW136795   5.907   7.187   2.340  0.1775 -0.0228  0.9035
11994SOL    HW236796   5.783   7.101   2.332 -0.0479  0.5258 -1.9607
11995SOL     OW36797   0.813   6.185   5.583 -0.2935 -0.1304 -0.1816
11995SOL    HW136798   0.791   6.269   5.624 -1.1404 -0.2515 -0.3796
11995SOL    HW236799   0.767   6.186   5.499 -3.3470 -2.2922  1.3486
11996SOL     OW36800   7.422   5.710   3.818 -0.1949  0.1127 -0.4953
11996SOL    HW136801   7.376   5.781   3.863  0.5134  0.1745  0.1327
11996SOL    HW236802   7.490   5.753   3.766  1.6284 -0.2317  1.5439
11997SOL     OW36803   0.092   4.380   6.258  0.0502  0.3663 -0.1280
11997SOL    HW136804   0.036   4.416   6.328 -0.5952 -0.0760 -0.4054
11997SOL    HW236805   0.144   4.454   6.228  0.1546  0.6194  0.6553
11998SOL     OW36806   3.131   7.198   4.084 -0.6298  0.2242  0.3555
11998SOL    HW136807   3.109   7.239   4.001  0.0948 -2.1381 -1.0633
11998SOL    HW236808   3.227   7.197   4.085 -0.6403 -0.7363  0.7124
11999SOL     OW36809   0.216   2.596   1.967 -0.0206  0.7470  0.1515
11999SOL    HW136810   0.264   2.522   1.932  0.2136  0.4574  1.0768
11999SOL    HW236811   0.186   2.644   1.890 -0.6131 -0.5829 -0.4716
12000SOL     OW36812   4.259   5.110   4.012 -0.2993  0.7032  0.4085
12000SOL    HW136813   4.205   5.107   4.091  1.0584  1.8562  1.4201
12000SOL    HW236814   4.264   5.203   3.989  0.7760  0.5665  0.0178
12001SOL     OW36815   0.959   3.137   0.302 -0.1018  0.5692  0.0778
12001SOL    HW136816   1.010   3.087   0.366 -0.5810 -1.4255 -1.0402
12001SOL    HW236817   0.935   3.217   0.347  0.6441 -0.2447  1.9631
12002SOL     OW36818   5.361   7.202   7.302  0.7125  0.0567  0.0754
12002SOL    HW136819   5.270   7.212   7.331  0.3550  0.0825 -1.0358
12002SOL    HW236820   5.411   7.261   7.358 -0.0844  0.7503  0.0574
12003SOL     OW36821   5.457   7.933   5.593 -0.8489 -0.3272  0.3912
12003SOL    HW136822   5.400   7.901   5.522 -0.8039 -2.8256  1.4428
12003SOL    HW236823   5.396   7.959   5.662 -0.8295  0.4730  0.1116
12004SOL     OW36824   7.834   7.752   3.359  0.0163 -0.1877  0.3024
12004SOL    HW136825   7.745   7.735   3.327 -0.0773 -1.3929  1.1409
12004SOL    HW236826   7.889   7.743   3.281 -0.4057 -1.2703  0.1097
12005SOL     OW36827   4.404   5.760   7.979  0.4430  0.5592 -0.4668
12005SOL    HW136828   4.460   5.690   7.947 -0.3925 -0.1025 -0.5003
12005SOL    HW236829   4.440   5.840   7.939  1.9401  0.2804  0.3045
12006SOL     OW36830   5.924   6.721   3.518  0.0114  0.1155 -0.1452
12006SOL    HW136831   5.933   6.711   3.424 -1.3935 -1.3773 -0.1348
12006SOL    HW236832   5.972   6.802   3.538  1.1573 -0.0865 -1.9747
12007SOL     OW36833   3.962   2.664   5.731 -0.0248 -0.0271  0.1410
12007SOL    HW136834   3.943   2.713   5.811 -0.4077  1.6846 -0.9573
12007SOL    HW236835   4.045   2.700   5.700 -0.5089  0.2163 -0.8985
12008SOL     OW36836   6.095   0.618   6.888 -0.3325 -0.0162 -0.1705
12008SOL    HW136837   6.062   0.607   6.977 -0.8631  1.6593 -0.1380
12008SOL    HW236838   6.120   0.530   6.860 -0.9340 -0.6745  1.3316
12009SOL     OW36839   0.535   3.220   5.920 -0.5690 -0.5636  0.1756
12009SOL    HW136840   0.485   3.264   5.989  0.5539  0.7855  0.1557
12009SOL    HW236841   0.499   3.131   5.917 -2.3895  0.1376  0.7121
12010SOL     OW36842   0.507   1.424   0.484  1.0304  0.8268 -0.3864
12010SOL    HW136843   0.592   1.425   0.529  0.4927 -1.8274  0.8195
12010SOL    HW236844   0.521   1.366   0.409 -0.1378 -0.9585  0.7532
12011SOL     OW36845   2.954   0.055   0.910 -0.4542 -0.2294 -0.5830
12011SOL    HW136846   2.930  -0.022   0.962  0.4524 -1.1480 -1.4749
12011SOL    HW236847   2.872   0.099   0.892 -0.9384 -0.7286  0.3431
12012SOL     OW36848   4.188   6.827   3.830 -0.4071  0.2446  0.1989
12012SOL    HW136849   4.117   6.764   3.842 -1.6905  1.9910  1.9332
12012SOL    HW236850   4.191   6.876   3.912  1.9931  1.0363 -0.3272
12013SOL     OW36851   2.462   3.264   1.121 -0.3249  0.2773  0.5485
12013SOL    HW136852   2.475   3.212   1.201  1.6396 -0.6755 -0.3440
12013SOL    HW236853   2.463   3.199   1.050 -1.6040  1.1614 -0.3055
12014SOL     OW36854   4.801   5.820   6.926 -0.1062  0.2192  0.0461
12014SOL    HW136855   4.872   5.882   6.935 -1.2083  1.6354 -0.8455
12014SOL    HW236856   4.730   5.856   6.979 -1.3355  0.6231 -1.8333
12015SOL     OW36857   7.676   0.941   4.087  0.4171  0.1954  0.5789
12015SOL    HW136858   7.596   0.906   4.127  0.4292  1.1053  1.4331
12015SOL    HW236859   7.669   1.036   4.100  1.8495  0.2456  1.0845
12016SOL     OW36860   4.739   6.875   6.519 -0.2258 -0.7070 -0.1657
12016SOL    HW136861   4.695   6.959   6.536  0.8228 -0.1334 -0.2044
12016SOL    HW236862   4.677   6.809   6.550 -0.8276  0.1069  0.4114
12017SOL     OW36863   7.064   4.478   3.835 -0.4639  0.0785  0.2093
12017SOL    HW136864   7.027   4.453   3.750  0.0354 -0.9743  0.2863
12017SOL    HW236865   7.135   4.539   3.813 -0.1795 -0.3737 -0.1569
12018SOL     OW36866   3.577   5.490   5.547 -0.3206 -0.2285  0.1675
12018SOL    HW136867   3.551   5.405   5.510  0.4376  0.0140 -0.9660
12018SOL    HW236868   3.672   5.485   5.553 -0.3075  0.3810  0.4961
12019SOL     OW36869   7.682   6.753   2.344 -0.5079  0.0181 -0.7217
12019SOL    HW136870   7.740   6.719   2.412  0.5763  1.2897 -0.9816
12019SOL    HW236871   7.595   6.748   2.382 -0.0706 -0.6412  0.2026
12020SOL     OW36872   4.989   0.254   1.600 -0.1614 -0.2078  0.0406
12020SOL    HW136873   5.003   0.217   1.687 -0.7688  0.2242  0.3313
12020SOL    HW236874   4.915   0.314   1.612  0.9182  1.2373 -0.3820
12021SOL     OW36875   7.619   0.057   4.435 -0.4520  0.7009 -0.8008
12021SOL    HW136876   7.656   0.034   4.350  1.1008  1.2202 -0.2849
12021SOL    HW236877   7.643   0.148   4.448 -0.1972  0.4717  0.4258
12022SOL     OW36878   6.821   4.398   4.890  0.3120 -0.2818  0.0299
12022SOL    HW136879   6.809   4.431   4.801 -0.0118 -1.0879 -0.2307
12022SOL    HW236880   6.884   4.458   4.930 -0.1804  0.5766 -0.4726
12023SOL     OW36881   3.349   4.173   4.593  0.4071  0.1393  0.2335
12023SOL    HW136882   3.325   4.157   4.501 -1.5593  4.2170 -0.0757
12023SOL    HW236883   3.394   4.257   4.591  0.2393  0.3329  3.0543
12024SOL     OW36884   7.890   5.978   6.298 -0.1529  0.4622  0.2851
12024SOL    HW136885   7.828   6.032   6.249  0.2815  1.1905  0.5117
12024SOL    HW236886   7.861   5.985   6.389 -0.3951 -0.1039  0.2491
12025SOL     OW36887   2.331   1.279   4.595  0.0830  0.0004  0.0380
12025SOL    HW136888   2.412   1.242   4.560  0.3905  1.0879 -0.4176
12025SOL    HW236889   2.275   1.203   4.612 -0.0235 -0.5558 -2.7059
12026SOL     OW36890   3.847   7.460   6.670 -0.0141  0.4919  0.2616
12026SOL    HW136891   3.916   7.513   6.709  1.1956 -1.3887  0.7353
12026SOL    HW236892   3.872   7.370   6.689 -1.3869 -0.3124 -1.5795
12027SOL     OW36893   6.170   0.387   5.632  0.0354  0.1451 -0.3900
12027SOL    HW136894   6.075   0.384   5.621  0.1287 -0.2248 -1.0994
12027SOL    HW236895   6.205   0.327   5.565  0.7940  0.7151 -0.5201
12028SOL     OW36896   3.783   5.315   6.229  0.4478 -0.1950 -0.2461
12028SOL    HW136897   3.703   5.336   6.277  0.1004  0.6019 -1.1539
12028SOL    HW236898   3.752   5.276   6.147  0.8724  2.5935 -1.8019
12029SOL     OW36899   1.904   5.628   1.054 -0.6044 -0.1636 -0.0846
12029SOL    HW136900   1.972   5.694   1.040  1.6064 -2.5514 -1.1278
12029SOL    HW236901   1.920   5.597   1.144 -1.5798  0.6447  0.3721
12030SOL     OW36902   1.543   6.519   0.177  0.1585  1.2608 -0.0294
12030SOL    HW136903   1.632   6.525   0.210 -0.3411 -1.4758  1.8998
12030SOL    HW236904   1.487   6.531   0.254 -1.1152  0.4599 -0.8042
12031SOL     OW36905   5.492   4.040   3.874 -0.1097  0.1919  0.0899
12031SOL    HW136906   5.537   3.956   3.879  1.4145  0.8080 -2.3621
12031SOL    HW236907   5.409   4.020   3.830  1.2702  0.2933 -2.6596
12032SOL     OW36908   4.201   0.859   1.976  0.2798  0.2684  0.7006
12032SOL    HW136909   4.154   0.928   2.022 -1.5238 -0.5403  0.1105
12032SOL    HW236910   4.225   0.796   2.044  0.5059  0.6709  0.9975
12033SOL     OW36911   1.548   4.905   1.980 -0.2589  0.7105 -0.4903
12033SOL    HW136912   1.532   4.870   2.068  1.0062  0.3174 -0.4128
12033SOL    HW236913   1.469   4.881   1.930  0.4697 -2.0671 -0.3904
12034SOL     OW36914   3.697   6.528   6.483 -0.2877 -0.2073 -0.2137
12034SOL    HW136915   3.713   6.550   6.391  0.3400  1.0862  0.1942
12034SOL    HW236916   3.679   6.612   6.525 -0.2991 -0.7619  0.8947
12035SOL     OW36917   0.740   1.768   3.145 -0.1829 -0.2522  0.1491
12035SOL    HW136918   0.718   1.768   3.052  1.1987 -0.9247 -0.1908
12035SOL    HW236919   0.769   1.857   3.164  0.1201 -0.2712 -0.2199
12036SOL     OW36920   4.399   0.194   7.242  0.1826 -0.4209  0.1637
12036SOL    HW136921   4.332   0.200   7.174 -1.1506 -0.2993  1.4498
12036SOL    HW236922   4.465   0.259   7.218 -1.9520  2.0643  0.7932
12037SOL     OW36923   4.160   2.154   2.373 -0.1688 -0.2029  0.0335
12037SOL    HW136924   4.076   2.173   2.331  0.2735 -1.9695 -1.7671
12037SOL    HW236925   4.152   2.190   2.461 -2.3319  0.7932 -0.5383
12038SOL     OW36926   7.860   0.438   5.772  0.0847  0.0599  0.1276
12038SOL    HW136927   7.903   0.466   5.853 -0.0185  3.9126 -1.0621
12038SOL    HW236928   7.932   0.429   5.709 -0.1838  0.1969 -0.1950
12039SOL     OW36929   6.781   0.020   5.363 -0.3900  0.7630 -0.2913
12039SOL    HW136930   6.691   0.044   5.386  0.1541  0.5252  2.2439
12039SOL    HW236931   6.831   0.101   5.374  0.0018  0.4692  0.1501
12040SOL     OW36932   2.893   1.674   2.875 -0.4696 -0.4158 -0.3162
12040SOL    HW136933   2.939   1.592   2.894  0.5593  0.6801  2.1763
12040SOL    HW236934   2.957   1.726   2.827 -0.2215 -0.1292  0.3148
12041SOL     OW36935   3.017   7.936   6.868  0.3814 -0.4654  0.2147
12041SOL    HW136936   3.002   7.915   6.960 -1.1543  0.9542  0.3188
12041SOL    HW236937   2.939   7.902   6.823  0.1175  0.7451 -0.2563
12042SOL     OW36938   6.524   2.273   4.791 -0.7230  0.2962 -0.0549
12042SOL    HW136939   6.613   2.294   4.819 -0.6693  0.8585 -0.6262
12042SOL    HW236940   6.533   2.253   4.697 -1.3737  1.5439 -0.3964
12043SOL     OW36941   0.176   5.249   2.831 -0.2859  0.5057 -0.1289
12043SOL    HW136942   0.247   5.285   2.885 -0.3371  0.1142  0.2016
12043SOL    HW236943   0.209   5.163   2.804 -0.0592  0.8948 -1.1215
12044SOL     OW36944   0.273   7.604   3.405 -0.0068  0.2785 -0.4117
12044SOL    HW136945   0.215   7.674   3.437 -1.2438 -0.9864  0.1497
12044SOL    HW236946   0.214   7.537   3.371  0.8856 -2.5755  3.2699
12045SOL     OW36947   7.644   1.239   2.487 -0.0761 -0.0706 -0.5730
12045SOL    HW136948   7.554   1.257   2.462  0.1697  3.0931  0.5929
12045SOL    HW236949   7.696   1.301   2.437  1.0120  1.4009  2.2919
12046SOL     OW36950   7.289   3.175   1.475 -0.0027  0.2790 -0.4231
12046SOL    HW136951   7.267   3.211   1.561 -0.0531  1.3404 -0.8668
12046SOL    HW236952   7.290   3.251   1.417 -1.1412 -0.5836 -1.6032
12047SOL     OW36953   1.911   0.494   1.335 -0.4000  0.1964 -0.1345
12047SOL    HW136954   1.888   0.520   1.424 -2.8088  0.8658 -0.9212
12047SOL    HW236955   1.994   0.540   1.318  0.9367 -1.2141  2.2915
12048SOL     OW36956   2.934   3.457   1.659 -0.0946 -0.1318  0.3504
12048SOL    HW136957   2.888   3.420   1.735  0.2654  0.0166  0.6417
12048SOL    HW236958   2.864   3.488   1.602 -0.3628 -0.0496  0.7193
12049SOL     OW36959   3.945   5.096   5.871 -0.1553 -0.7042  0.4860
12049SOL    HW136960   3.966   5.183   5.836  1.3103 -1.5483 -0.7832
12049SOL    HW236961   3.853   5.083   5.848  0.2328 -0.4091 -1.3364
12050SOL     OW36962   1.658   0.553   0.171 -0.4899  0.5348  0.5914
12050SOL    HW136963   1.723   0.491   0.138  0.6224  2.3211 -0.6252
12050SOL    HW236964   1.585   0.545   0.110 -0.0570  0.9337  0.0180
12051SOL     OW36965   5.425   7.803   4.785  0.4056 -0.4432 -0.0697
12051SOL    HW136966   5.368   7.734   4.819 -2.0149  1.6969  0.4136
12051SOL    HW236967   5.389   7.823   4.699  1.1295  0.1609 -0.2374
12052SOL     OW36968   6.403   7.709   7.502 -0.1670 -0.5586 -0.3521
12052SOL    HW136969   6.335   7.761   7.460 -0.3756 -1.1641 -0.7618
12052SOL    HW236970   6.359   7.666   7.575 -0.0443 -0.3378 -0.1468
12053SOL     OW36971   3.642   3.987   6.253 -0.0338 -0.8139  0.0155
12053SOL    HW136972   3.624   4.081   6.245 -1.7129 -1.1673 -0.5886
12053SOL    HW236973   3.598   3.961   6.334  1.0882 -0.9349  0.5951
12054SOL     OW36974   5.284   6.871   7.831  0.0070 -0.3287 -0.5422
12054SOL    HW136975   5.319   6.836   7.913 -1.8437  0.1022  0.4683
12054SOL    HW236976   5.329   6.954   7.819  0.2827 -0.3927  0.0304
12055SOL     OW36977   2.457   3.352   0.268 -0.2423 -0.0049 -0.3903
12055SOL    HW136978   2.420   3.278   0.220  0.5001 -0.5171 -0.1778
12055SOL    HW236979   2.551   3.341   0.261 -0.1303  0.1409  0.8422
12056SOL     OW36980   3.607   1.196   4.194  0.7263 -0.1255 -0.5011
12056SOL    HW136981   3.696   1.212   4.226 -0.0302  3.1089  0.2445
12056SOL    HW236982   3.584   1.277   4.148 -1.9738 -0.7693 -0.3565
12057SOL     OW36983   3.648   0.494   2.192 -0.3908  0.3850  0.4152
12057SOL    HW136984   3.640   0.581   2.154  0.1703  0.8921  1.4254
12057SOL    HW236985   3.621   0.505   2.283  1.8441 -0.0064  1.1589
12058SOL     OW36986   7.896   7.172   1.356 -0.1978 -0.0885 -0.0069
12058SOL    HW136987   7.982   7.213   1.351  0.1606  0.1891  5.5444
12058SOL    HW236988   7.836   7.243   1.380 -1.1486 -1.1508  0.8086
12059SOL     OW36989   0.078   3.445   4.858 -0.5780 -0.1967 -0.1936
12059SOL    HW136990   0.016   3.516   4.842  0.5749  0.7125 -0.6538
12059SOL    HW236991   0.140   3.451   4.786 -0.1564 -1.3251  0.0753
12060SOL     OW36992   5.235   2.055   2.143  0.6763  0.5574  0.1347
12060SOL    HW136993   5.170   2.110   2.100  0.3186  0.4049  0.4772
12060SOL    HW236994   5.206   1.965   2.126  1.6747  0.4539 -1.0691
12061SOL     OW36995   2.643   4.789   6.062  0.1884 -0.0913 -0.0570
12061SOL    HW136996   2.549   4.778   6.052  0.4403 -0.2297 -2.5582
12061SOL    HW236997   2.657   4.884   6.060  0.0463 -0.0403  1.0433
12062SOL     OW36998   4.009   5.781   6.223 -0.0271  0.3576  0.0755
12062SOL    HW136999   3.975   5.863   6.260  1.2132  1.4282 -1.1136
12062SOL    HW237000   4.059   5.808   6.146 -0.6482 -1.6319 -1.0745
12063SOL     OW37001   2.761   2.377   4.061 -0.3532 -0.3855  0.5001
12063SOL    HW137002   2.729   2.354   4.148  2.0783 -1.9047  1.0282
12063SOL    HW237003   2.854   2.397   4.074 -0.8516  3.3637 -1.0666
12064SOL     OW37004   2.097   5.443   4.749 -0.0185  0.0024  0.7881
12064SOL    HW137005   2.058   5.376   4.805 -0.2579  1.3409  2.2652
12064SOL    HW237006   2.024   5.501   4.726 -0.1849 -1.2148 -1.9891
12065SOL     OW37007   0.953   5.530   2.948 -0.1533 -0.3468  0.6147
12065SOL    HW137008   0.872   5.577   2.967 -1.0958 -0.7231 -2.2140
12065SOL    HW237009   1.015   5.560   3.015 -2.5108  0.1730  2.6442
12066SOL     OW37010   1.500   3.815   4.066  0.5988  0.3031 -0.8755
12066SOL    HW137011   1.581   3.862   4.049  0.9177  0.0755  0.0347
12066SOL    HW237012   1.527   3.727   4.093  0.0221 -0.1711 -1.8093
12067SOL     OW37013   6.783   0.204   1.086 -0.0430  0.8109  0.3209
12067SOL    HW137014   6.727   0.264   1.135 -0.8642 -0.1771  0.6137
12067SOL    HW237015   6.776   0.121   1.133  0.2838  0.2289 -0.6465
12068SOL     OW37016   0.101   0.886   4.479  0.9169  0.2985 -0.4450
12068SOL    HW137017   0.057   0.909   4.397 -0.2501 -1.9167 -0.4872
12068SOL    HW237018   0.123   0.793   4.469  1.3306  0.1619  1.5082
12069SOL     OW37019   2.035   4.414   3.860 -0.3295  0.2919  0.2606
12069SOL    HW137020   2.037   4.328   3.818 -0.4854 -0.5962  2.0637
12069SOL    HW237021   2.085   4.403   3.940 -3.0818  0.9894  2.1410
12070SOL     OW37022   1.646   2.779   6.247  0.2634 -0.3546  0.1544
12070SOL    HW137023   1.607   2.841   6.185  0.1102 -1.2166 -0.6031
12070SOL    HW237024   1.574   2.756   6.306  0.1863 -0.2316  0.1095
12071SOL     OW37025   0.246   3.648   2.362 -0.2132  0.3766  0.5736
12071SOL    HW137026   0.168   3.601   2.392  0.1151  0.2267  1.1858
12071SOL    HW237027   0.274   3.600   2.284 -0.9873  0.6906  0.0942
12072SOL     OW37028   0.220   3.369   3.903  0.4907  0.4070  0.3551
12072SOL    HW137029   0.248   3.279   3.889 -0.2191  0.3318 -0.6297
12072SOL    HW237030   0.126   3.367   3.889 -0.3673  0.3090  5.3972
12073SOL     OW37031   1.736   7.348   4.738  0.3436  0.1524  0.6118
12073SOL    HW137032   1.777   7.262   4.730 -0.2291 -0.1196  0.6038
12073SOL    HW237033   1.662   7.335   4.797 -0.2464  0.4509 -0.0420
12074SOL     OW37034   0.277   4.555   4.359 -0.3684 -0.3732  0.1189
12074SOL    HW137035   0.213   4.596   4.301 -0.4286  1.4957  1.4682
12074SOL    HW237036   0.229   4.537   4.440  0.8690  1.4538  1.3034
12075SOL     OW37037   4.153   2.549   4.810  0.5165 -0.2994 -0.6472
12075SOL    HW137038   4.245   2.546   4.784  0.9381  0.1653  0.7107
12075SOL    HW237039   4.156   2.574   4.903 -1.0712  2.1095 -1.1871
12076SOL     OW37040   6.523   2.550   5.057  0.2882  0.1108 -0.2553
12076SOL    HW137041   6.434   2.576   5.035 -0.1718  0.1123  1.5094
12076SOL    HW237042   6.513   2.470   5.108  1.4195 -0.9191 -1.6010
12077SOL     OW37043   4.193   1.823   3.964  0.3193 -0.3206 -0.2566
12077SOL    HW137044   4.149   1.869   3.893 -0.0940  0.1783  0.3116
12077SOL    HW237045   4.135   1.750   3.984  0.7614 -0.8431 -0.8693
12078SOL     OW37046   2.076   4.947   3.633 -0.1091 -0.4545 -0.7356
12078SOL    HW137047   2.004   4.952   3.571  0.3073 -2.1317 -1.3692
12078SOL    HW237048   2.095   4.854   3.642  0.3086 -0.2070  1.3802
12079SOL     OW37049   4.786   2.326   7.573  0.4521 -0.4183  0.4811
12079SOL    HW137050   4.746   2.348   7.657 -1.4193  0.2306 -0.5354
12079SOL    HW237051   4.866   2.378   7.571 -0.7372  1.5154  0.8428
12080SOL     OW37052   3.430   6.556   1.180 -0.1182  0.3417  0.7478
12080SOL    HW137053   3.435   6.468   1.218  0.1295  0.1799  0.3374
12080SOL    HW237054   3.509   6.564   1.127 -0.4883  0.5586  0.2300
12081SOL     OW37055   2.152   2.712   2.891 -0.4987 -0.3631 -0.5391
12081SOL    HW137056   2.213   2.769   2.845 -0.8392 -1.0018 -1.7945
12081SOL    HW237057   2.066   2.736   2.859 -0.7798 -0.5457  0.0628
12082SOL     OW37058   0.821   3.367   7.433 -0.3990 -0.1835 -0.0871
12082SOL    HW137059   0.739   3.347   7.386  0.0703  0.5869 -1.2581
12082SOL    HW237060   0.805   3.452   7.474 -0.7524 -0.7847  1.0388
12083SOL     OW37061   4.220   7.907   5.328 -0.2928  0.2135 -0.2267
12083SOL    HW137062   4.193   7.896   5.237  0.1184 -1.9026 -0.1125
12083SOL    HW237063   4.172   7.985   5.358  0.2371  1.4471 -2.4795
12084SOL     OW37064   7.024   2.019   4.961 -0.1900  0.0783 -0.0720
12084SOL    HW137065   6.962   2.006   5.033 -1.6098  0.6422 -1.1538
12084SOL    HW237066   6.986   1.971   4.887  0.1404  1.2351 -1.0280
12085SOL     OW37067   4.982   3.264   7.840  0.6918  0.1797  0.1225
12085SOL    HW137068   5.039   3.280   7.765 -0.5003  0.5244 -0.7301
12085SOL    HW237069   4.909   3.214   7.804  1.9456 -2.9722  1.8078
12086SOL     OW37070   0.212   4.508   0.278  0.2074  0.4758  0.2919
12086SOL    HW137071   0.139   4.506   0.217 -0.7439 -0.2322  1.4366
12086SOL    HW237072   0.259   4.589   0.258  0.1051  0.0852 -1.5940
12087SOL     OW37073   1.906   6.164   3.798  0.2725 -0.4448 -0.2239
12087SOL    HW137074   1.958   6.178   3.719  0.3300 -2.1572 -0.5010
12087SOL    HW237075   1.920   6.244   3.850  0.3772  0.6150 -1.8429
12088SOL     OW37076   0.990   0.296   1.440  0.0293  0.0727 -0.4018
12088SOL    HW137077   1.072   0.339   1.460 -0.2717  0.1895  0.6071
12088SOL    HW237078   0.986   0.294   1.344  0.8342  0.7476 -0.4484
12089SOL     OW37079   7.081   5.445   7.208 -0.1355  0.3040 -0.1768
12089SOL    HW137080   7.119   5.416   7.291 -1.1368 -1.0563 -0.1709
12089SOL    HW237081   6.992   5.474   7.231 -1.4776 -2.8206 -1.1790
12090SOL     OW37082   3.449   2.662   0.863 -0.0585  0.1672 -0.2104
12090SOL    HW137083   3.529   2.708   0.889 -0.2757  0.7959 -0.6445
12090SOL    HW237084   3.385   2.688   0.929  1.0397 -3.3067  2.3742
12091SOL     OW37085   6.957   6.008   5.087  0.0766  0.0959  0.1225
12091SOL    HW137086   6.958   6.036   5.178 -1.1774 -1.8409  0.7450
12091SOL    HW237087   6.919   6.082   5.039  0.5337  1.0273  1.1769
12092SOL     OW37088   6.057   4.924   3.173  0.1957 -0.1662  0.0017
12092SOL    HW137089   5.989   4.987   3.196  1.3112  1.1580 -0.2141
12092SOL    HW237090   6.131   4.979   3.145  1.2362 -1.5722 -0.0460
12093SOL     OW37091   3.683   0.889   2.613  0.1037 -0.0268  0.4771
12093SOL    HW137092   3.746   0.836   2.565 -2.3066 -0.6575 -2.0870
12093SOL    HW237093   3.721   0.898   2.700  2.0463 -3.3803  0.0604
12094SOL     OW37094   4.918   4.391   7.667  0.3018 -0.2678  0.3315
12094SOL    HW137095   4.873   4.404   7.750  1.4579 -1.1068  1.1132
12094SOL    HW237096   4.929   4.478   7.631 -1.9707 -0.0466  0.1016
12095SOL     OW37097   3.086   1.968   3.471 -0.3786 -0.5193 -0.4745
12095SOL    HW137098   3.136   1.967   3.552  0.7050  1.0287 -1.0976
12095SOL    HW237099   3.090   1.878   3.439 -2.4005 -1.5790  2.1063
12096SOL     OW37100   3.876   4.500   3.249 -0.2449  0.0721  0.4955
12096SOL    HW137101   3.961   4.503   3.293 -0.2986  0.5353  0.5689
12096SOL    HW237102   3.850   4.592   3.240 -0.2945 -0.0167 -0.3896
12097SOL     OW37103   1.924   0.287   4.710 -0.1518  0.4006  0.1340
12097SOL    HW137104   1.977   0.208   4.702  0.9843  1.1388  0.2659
12097SOL    HW237105   1.942   0.320   4.798  1.7549  2.4509 -0.9573
12098SOL     OW37106   0.504   2.672   6.390 -0.4113  0.2560 -0.2550
12098SOL    HW137107   0.512   2.764   6.415  0.8059 -0.8170  3.7883
12098SOL    HW237108   0.595   2.640   6.389 -0.8447 -0.9711 -1.2311
12099SOL     OW37109   6.864   7.586   5.458  0.2218  0.7897  0.0795
12099SOL    HW137110   6.884   7.666   5.411  2.6410  0.5133  0.5814
12099SOL    HW237111   6.903   7.598   5.545 -0.2259 -0.5240  0.4877
12100SOL     OW37112   4.970   0.735   3.031 -0.6367 -0.4488  0.1526
12100SOL    HW137113   5.040   0.689   2.985  0.3692 -0.0722  1.2586
12100SOL    HW237114   4.936   0.798   2.967  0.2280 -0.4472 -0.3130
12101SOL     OW37115   3.837   5.917   0.324 -0.2012 -0.1518  0.0591
12101SOL    HW137116   3.909   5.979   0.333 -1.6714  1.5137  0.7634
12101SOL    HW237117   3.839   5.890   0.232  1.3436 -0.1696  0.0904
12102SOL     OW37118   5.357   4.793   0.362 -0.1268 -0.1034 -0.5952
12102SOL    HW137119   5.342   4.826   0.451  1.7063 -1.0699  0.0977
12102SOL    HW237120   5.333   4.701   0.366 -1.0144  0.0926 -1.3748
12103SOL     OW37121   2.936   5.534   0.294  0.1907 -0.3626 -0.1217
12103SOL    HW137122   2.985   5.471   0.347 -0.2267  0.3375  1.1255
12103SOL    HW237123   3.000   5.570   0.234  0.3816 -2.1539 -1.0200
12104SOL     OW37124   5.188   4.195   0.720  0.2106  0.1999 -0.0400
12104SOL    HW137125   5.168   4.288   0.706 -0.8950  0.0090  0.1892
12104SOL    HW237126   5.102   4.152   0.720  0.6228 -0.6553  1.0620
12105SOL     OW37127   4.513   2.953   3.627  0.0020 -0.2966  0.0735
12105SOL    HW137128   4.588   2.944   3.685  0.0945 -0.5494 -0.0848
12105SOL    HW237129   4.549   2.941   3.539  0.0187  0.9915 -0.1047
12106SOL     OW37130   3.276   0.228   6.588 -0.1344 -0.3447 -0.2995
12106SOL    HW137131   3.314   0.313   6.608 -0.3603 -0.6594  1.5191
12106SOL    HW237132   3.341   0.186   6.531  1.1523  0.0605  0.8387
12107SOL     OW37133   4.875   7.006   4.483 -0.0002 -0.2046  0.6905
12107SOL    HW137134   4.806   6.997   4.549  0.7824 -0.6452  1.4548
12107SOL    HW237135   4.957   6.992   4.531  0.5866 -0.3870 -0.3438
12108SOL     OW37136   5.994   3.197   7.811 -0.4650  0.3888  0.2866
12108SOL    HW137137   6.031   3.138   7.745 -0.6098  0.2133  0.3610
12108SOL    HW237138   6.044   3.278   7.801 -1.1550  0.7049 -0.7212
12109SOL     OW37139   6.280   1.903   5.819  0.7571  0.1535 -0.5142
12109SOL    HW137140   6.185   1.904   5.815  0.8079 -0.1194 -2.2572
12109SOL    HW237141   6.308   1.981   5.771  1.4243 -0.7605 -1.6612
12110SOL     OW37142   3.200   6.254   0.887 -0.0999 -0.0268  0.0003
12110SOL    HW137143   3.178   6.182   0.945  1.8503 -0.1794  0.5676
12110SOL    HW237144   3.151   6.236   0.807 -0.4257 -1.4240  0.5037
12111SOL     OW37145   4.898   3.286   3.396 -0.2760 -0.6039 -0.2778
12111SOL    HW137146   4.909   3.355   3.331 -2.3710 -0.7389 -0.8199
12111SOL    HW237147   4.931   3.323   3.477  2.7992 -0.5904 -1.4715
12112SOL     OW37148   5.519   2.557   3.124  0.3937 -0.0389 -0.1719
12112SOL    HW137149   5.527   2.578   3.217  2.4453  0.8163 -0.5078
12112SOL    HW237150   5.602   2.516   3.101  0.1955  0.4009 -1.7711
12113SOL     OW37151   7.579   3.297   1.268  0.4175 -0.0314 -0.1670
12113SOL    HW137152   7.589   3.363   1.336 -1.4643  0.2107 -0.1011
12113SOL    HW237153   7.597   3.214   1.312 -2.8558 -0.0932  1.2046
12114SOL     OW37154   2.823   4.757   2.452 -0.5887 -0.2637 -0.2981
12114SOL    HW137155   2.739   4.716   2.472 -0.3387 -1.2182 -1.1568
12114SOL    HW237156   2.804   4.818   2.381 -0.8438  0.6942  0.5729
12115SOL     OW37157   4.464   7.893   0.927 -0.3092  0.0800 -0.4587
12115SOL    HW137158   4.494   7.856   1.010  1.2846  2.9329  0.3213
12115SOL    HW237159   4.383   7.938   0.949 -0.5513 -0.2307 -0.7141
12116SOL     OW37160   3.247   0.938   6.860 -0.0309  0.2424  0.5037
12116SOL    HW137161   3.281   0.850   6.845 -1.6147 -0.4320  0.7268
12116SOL    HW237162   3.219   0.939   6.951  1.2142  1.4240  0.8938
12117SOL     OW37163   6.623   3.210   0.597  0.9601  0.4952  0.0300
12117SOL    HW137164   6.654   3.153   0.668  0.2204  1.1343  0.8801
12117SOL    HW237165   6.530   3.188   0.588  0.6180  1.7069  0.5100
12118SOL     OW37166   7.539   2.679   2.290  0.2522 -0.1550 -0.6110
12118SOL    HW137167   7.467   2.742   2.283  0.0039 -0.4304 -0.5542
12118SOL    HW237168   7.505   2.599   2.249 -0.2702 -0.9632  1.3784
12119SOL     OW37169   7.100   5.029   3.293  0.2330  0.3209  0.4066
12119SOL    HW137170   7.068   5.077   3.370  0.5628 -0.4452  1.0197
12119SOL    HW237171   7.183   4.990   3.321 -1.0079 -2.3072  0.5776
12120SOL     OW37172   7.377   4.158   2.854 -0.7242 -0.2067  0.3614
12120SOL    HW137173   7.324   4.195   2.926 -1.3091 -1.1007  0.3911
12120SOL    HW237174   7.378   4.228   2.788  2.2132  1.7920  2.3578
12121SOL     OW37175   0.511   6.994   2.842  0.0080  0.2835  0.2764
12121SOL    HW137176   0.517   6.968   2.934 -1.3477 -1.6380 -0.1448
12121SOL    HW237177   0.600   7.020   2.819  0.4770  0.2764  1.9736
12122SOL     OW37178   5.779   1.395   7.735  0.1505  0.2138 -0.2730
12122SOL    HW137179   5.862   1.409   7.781 -0.7285  1.1527  1.0732
12122SOL    HW237180   5.719   1.365   7.804 -1.7018  3.4817 -0.3834
12123SOL     OW37181   1.719   6.019   4.982  0.4407 -0.4364 -0.3598
12123SOL    HW137182   1.649   6.079   4.955  1.2533  0.1026 -1.2785
12123SOL    HW237183   1.680   5.932   4.972 -0.2997 -0.1165 -0.2988
12124SOL     OW37184   5.385   4.053   2.165 -0.2221  0.0443  0.2525
12124SOL    HW137185   5.335   4.063   2.084 -0.3411 -0.5952  0.2475
12124SOL    HW237186   5.439   4.133   2.170  1.7048 -1.0757 -1.7903
12125SOL     OW37187   3.867   7.576   6.014 -0.6547 -0.0501  0.1199
12125SOL    HW137188   3.850   7.667   6.040  0.9486  0.6955 -1.3487
12125SOL    HW237189   3.960   7.563   6.032 -0.1677 -0.4043 -2.4888
12126SOL     OW37190   7.842   6.060   1.283 -0.0395 -0.3472  0.9676
12126SOL    HW137191   7.793   6.013   1.215  2.0615 -1.4302  0.1733
12126SOL    HW237192   7.892   5.993   1.328  2.3864  0.9767  0.3552
12127SOL     OW37193   7.560   6.428   3.862  0.7168  0.2730 -0.2235
12127SOL    HW137194   7.506   6.376   3.922 -0.2730  1.6396  0.0920
12127SOL    HW237195   7.571   6.372   3.785  1.8719 -1.4497  1.1472
12128SOL     OW37196   3.602   5.801   6.355 -0.1835 -0.3815 -0.2743
12128SOL    HW137197   3.552   5.751   6.420 -0.5091  2.0408  1.3947
12128SOL    HW237198   3.645   5.734   6.302  0.3133 -2.4494  2.5914
12129SOL     OW37199   1.075   6.911   1.877  0.0326  0.8264 -0.6962
12129SOL    HW137200   1.036   6.935   1.793 -0.6869  3.1069  0.2668
12129SOL    HW237201   1.168   6.903   1.858 -0.4021 -1.1580 -2.2375
12130SOL     OW37202   5.433   2.524   7.060  0.2970 -0.2510  0.0461
12130SOL    HW137203   5.346   2.559   7.040 -0.1737 -1.6930 -0.5310
12130SOL    HW237204   5.415   2.450   7.118  1.1861 -0.2588  0.3147
12131SOL     OW37205   3.762   1.964   5.590 -0.7487  0.0104  0.0232
12131SOL    HW137206   3.752   1.868   5.588  0.4864 -0.1174 -1.9719
12131SOL    HW237207   3.819   1.981   5.664  0.4504 -0.9790 -0.6557
12132SOL     OW37208   1.892   6.989   6.933  0.0340 -0.0064 -0.3349
12132SOL    HW137209   1.845   6.915   6.895  0.9082 -1.6516  1.7070
12132SOL    HW237210   1.968   7.001   6.876 -1.1430  0.6596 -1.8257
12133SOL     OW37211   2.768   5.577   6.991  0.5066 -0.0833 -0.2361
12133SOL    HW137212   2.750   5.664   7.028  0.5813 -1.0563  2.1469
12133SOL    HW237213   2.682   5.547   6.959 -0.0854 -0.2865  1.4925
12134SOL     OW37214   3.193   5.583   1.885  0.0635  0.0198  0.2638
12134SOL    HW137215   3.107   5.542   1.899 -0.3012  1.3444  2.0573
12134SOL    HW237216   3.255   5.522   1.925 -0.1508 -0.4094 -0.0583
12135SOL     OW37217   3.761   3.804   0.004  0.4419 -0.1875 -0.0199
12135SOL    HW137218   3.804   3.843   0.080  0.1445  0.1814 -0.0415
12135SOL    HW237219   3.830   3.752  -0.039  0.4749 -0.8297  0.7939
12136SOL     OW37220   7.252   4.679   0.795 -0.2407  0.3674  0.5084
12136SOL    HW137221   7.273   4.766   0.762 -0.3037  0.5354  0.9045
12136SOL    HW237222   7.266   4.620   0.721  0.6301  0.6079  0.4741
12137SOL     OW37223   1.088   4.764   3.268 -0.3213 -0.6605  0.2470
12137SOL    HW137224   1.000   4.727   3.262 -0.7987  0.3236  1.0185
12137SOL    HW237225   1.074   4.859   3.272  0.6998 -0.5395  1.4514
12138SOL     OW37226   1.857   2.542   7.641  0.2062  0.0116  0.0397
12138SOL    HW137227   1.865   2.613   7.704  1.6714  1.7008 -1.9833
12138SOL    HW237228   1.816   2.582   7.564 -1.9199 -2.0957  0.0046
12139SOL     OW37229   2.129   3.752   1.072 -0.0859  0.4373  0.9486
12139SOL    HW137230   2.086   3.837   1.066 -0.7128  0.1329  1.0208
12139SOL    HW237231   2.206   3.767   1.127  1.4180  1.5785 -1.4157
12140SOL     OW37232   7.373   3.896   2.750  0.4769  0.1850  0.3029
12140SOL    HW137233   7.369   3.948   2.669 -0.8721 -0.1470  0.1430
12140SOL    HW237234   7.351   3.958   2.819 -2.8789 -0.4906 -0.0580
12141SOL     OW37235   1.626   5.564   4.271 -0.5684 -0.1113  0.2476
12141SOL    HW137236   1.606   5.650   4.234 -1.8211 -0.0549  1.0390
12141SOL    HW237237   1.589   5.502   4.208  0.0377 -0.0717 -0.1512
12142SOL     OW37238   5.492   2.062   6.115  0.1097  0.0928  0.0729
12142SOL    HW137239   5.445   2.129   6.065 -1.0223 -0.0832  0.8651
12142SOL    HW237240   5.469   2.081   6.206  1.7965  0.1435  0.5012
12143SOL     OW37241   0.305   3.813   0.242 -0.0950 -0.1578  0.4551
12143SOL    HW137242   0.267   3.755   0.176 -0.4063 -2.2039  2.3726
12143SOL    HW237243   0.229   3.854   0.284  0.0524  0.2189  0.3538
12144SOL     OW37244   7.174   3.327   6.991 -0.0988 -0.1290 -0.1260
12144SOL    HW137245   7.174   3.423   6.997  1.2185 -0.0546 -1.1757
12144SOL    HW237246   7.258   3.301   7.030  1.1150 -0.6322 -2.9669
12145SOL     OW37247   0.434   4.612   7.141 -0.4233  0.0864  0.0550
12145SOL    HW137248   0.364   4.567   7.188  0.0305  0.0394  0.6912
12145SOL    HW237249   0.464   4.548   7.076 -0.4308 -0.1815  0.3150
12146SOL     OW37250   6.386   2.576   3.715  0.2869  0.4066  0.7324
12146SOL    HW137251   6.372   2.564   3.809  0.1307 -1.5016  0.4841
12146SOL    HW237252   6.471   2.536   3.697 -1.7290 -3.5483 -0.6946
12147SOL     OW37253   0.068   2.471   2.519 -0.4751 -0.1197 -0.3897
12147SOL    HW137254   0.043   2.562   2.501 -0.8012 -0.0309  0.4821
12147SOL    HW237255   0.130   2.449   2.449 -0.8988  0.5548 -0.9848
12148SOL     OW37256   1.590   0.200   4.581 -0.6474 -0.6613  0.4656
12148SOL    HW137257   1.582   0.267   4.649 -0.0709  1.1577 -1.2035
12148SOL    HW237258   1.594   0.250   4.499 -0.7520 -2.7783 -0.8543
12149SOL     OW37259   1.282   2.529   7.343 -0.0549  0.6865 -0.2451
12149SOL    HW137260   1.231   2.529   7.424 -0.7164  3.6200 -0.6047
12149SOL    HW237261   1.368   2.561   7.369 -0.0240  0.8684 -0.5705
12150SOL     OW37262   2.439   0.661   0.828  0.4766 -0.2633  0.5349
12150SOL    HW137263   2.375   0.662   0.757 -0.7072  1.0868  1.5888
12150SOL    HW237264   2.393   0.621   0.902  1.4589 -0.9987  0.7526
12151SOL     OW37265   7.892   5.134   3.060  0.2273 -0.1231 -0.1916
12151SOL    HW137266   7.925   5.188   3.132 -2.4643  1.6228 -0.2289
12151SOL    HW237267   7.825   5.079   3.100 -0.0477 -0.4051 -1.0335
12152SOL     OW37268   1.758   7.874   3.208 -0.0348  0.1822 -0.1223
12152SOL    HW137269   1.719   7.856   3.293  0.9676 -1.6110 -0.0273
12152SOL    HW237270   1.792   7.964   3.216  0.8949 -0.3160  1.7045
12153SOL     OW37271   0.177   1.926   4.205 -0.0734  0.4776  0.3956
12153SOL    HW137272   0.093   1.969   4.193  0.0310  0.0621 -2.0870
12153SOL    HW237273   0.157   1.832   4.197  0.1837  0.1943  2.7104
12154SOL     OW37274   4.822   1.054   5.715  0.5274 -0.1948  0.5642
12154SOL    HW137275   4.769   1.031   5.638  1.6726  1.0559 -0.6336
12154SOL    HW237276   4.877   1.126   5.685  0.2769  0.9950  2.8734
12155SOL     OW37277   7.839   6.774   3.487 -0.7304 -0.2569 -0.3196
12155SOL    HW137278   7.871   6.802   3.573 -2.2159  0.5529 -0.0047
12155SOL    HW237279   7.747   6.752   3.503 -1.5108  1.6270 -2.0650
12156SOL     OW37280   4.527   7.555   6.462  0.0766  0.5606 -0.4764
12156SOL    HW137281   4.442   7.599   6.468  0.4758  1.2092  0.6610
12156SOL    HW237282   4.585   7.622   6.425  0.1515  0.1968 -1.0190
12157SOL     OW37283   7.590   4.085   1.074  0.1106 -0.0148  0.0113
12157SOL    HW137284   7.568   4.175   1.096  0.1568 -0.1232  0.5032
12157SOL    HW237285   7.603   4.085   0.979 -1.7940  0.0933 -0.2512
12158SOL     OW37286   6.221   5.063   1.450 -0.1291 -0.0140  0.7371
12158SOL    HW137287   6.259   5.074   1.537  0.7334 -0.5624  0.4482
12158SOL    HW237288   6.241   5.145   1.404 -0.1670  0.0916  0.9119
12159SOL     OW37289   0.351   2.995   2.942  0.8005 -0.4664  0.1300
12159SOL    HW137290   0.372   2.973   3.033  1.4138 -0.0855  0.0872
12159SOL    HW237291   0.270   3.046   2.948  0.5854 -0.8366  0.4200
12160SOL     OW37292   4.193   3.770   5.692 -0.0484  0.2738 -0.2364
12160SOL    HW137293   4.121   3.827   5.665 -0.6296  0.9571  2.5522
12160SOL    HW237294   4.271   3.826   5.688 -0.3805  0.8415  1.0007
12161SOL     OW37295   0.531   1.239   3.343  0.1249  0.3547  0.5896
12161SOL    HW137296   0.598   1.186   3.386 -0.0214  0.5839  1.0961
12161SOL    HW237297   0.480   1.277   3.414 -1.4713 -0.9776  0.2018
12162SOL     OW37298   3.174   2.385   3.909  0.0955  0.0434 -0.2055
12162SOL    HW137299   3.120   2.362   3.985 -1.0441 -0.8579 -1.2634
12162SOL    HW237300   3.112   2.420   3.845  0.9627  0.2528 -0.9469
12163SOL     OW37301   5.522   0.138   6.255  0.2233  0.0927 -0.3456
12163SOL    HW137302   5.538   0.208   6.192 -0.1614  0.2764 -0.2368
12163SOL    HW237303   5.433   0.153   6.286  0.1416 -0.4402 -0.3167
12164SOL     OW37304   6.065   4.171   2.728  0.2544  0.4399 -0.3549
12164SOL    HW137305   6.152   4.204   2.704  0.5061 -0.6435 -0.9605
12164SOL    HW237306   6.034   4.127   2.649 -1.3392  1.8268 -0.5154
12165SOL     OW37307   0.719   0.724   0.756 -0.1084  0.1033  0.2361
12165SOL    HW137308   0.659   0.778   0.706 -0.0803  0.0072  0.0981
12165SOL    HW237309   0.801   0.774   0.758  0.3967 -0.6330 -1.2284
12166SOL     OW37310   7.811   4.446   3.314  0.6293 -0.1821 -0.5732
12166SOL    HW137311   7.877   4.417   3.251  0.7797 -1.3113  0.0975
12166SOL    HW237312   7.852   4.518   3.361  0.5270  0.6618 -1.7348
12167SOL     OW37313   3.117   2.319   2.522  1.2747  0.5060  0.4384
12167SOL    HW137314   3.167   2.250   2.479 -0.3924  0.2003 -1.0775
12167SOL    HW237315   3.027   2.289   2.519  0.7101  2.0755  1.0726
12168SOL     OW37316   5.427   0.742   3.005 -0.3201 -0.0569  0.7531
12168SOL    HW137317   5.406   0.784   3.088 -0.7972  1.0984  0.0657
12168SOL    HW237318   5.345   0.742   2.956  0.6457  2.1857 -0.9544
12169SOL     OW37319   7.045   7.163   4.607 -0.4458  0.1368  0.1495
12169SOL    HW137320   7.135   7.196   4.598 -0.1754  0.0690  2.3508
12169SOL    HW237321   7.007   7.215   4.677 -1.7920 -0.5743 -0.0301
12170SOL     OW37322   2.636   1.267   3.913 -0.2681  0.0280 -0.5660
12170SOL    HW137323   2.695   1.256   3.988 -1.5566 -2.5410  0.1321
12170SOL    HW237324   2.579   1.339   3.937  2.4619  2.5177 -1.2188
12171SOL     OW37325   6.779   7.911   5.974 -0.0346  0.4063  0.1360
12171SOL    HW137326   6.734   7.855   6.037 -1.4709 -0.0010 -1.2207
12171SOL    HW237327   6.713   7.975   5.947  1.1550  1.8456  0.5462
12172SOL     OW37328   4.763   5.031   4.311  0.1704  0.1779  0.3028
12172SOL    HW137329   4.749   5.002   4.401  1.2115  1.5181  0.9080
12172SOL    HW237330   4.675   5.046   4.277 -0.3154 -1.9973  0.5123
12173SOL     OW37331   7.024   6.856   7.363  0.3379 -0.1233 -0.2758
12173SOL    HW137332   6.991   6.769   7.342 -0.0162 -0.2003  0.5840
12173SOL    HW237333   6.990   6.912   7.293 -0.2583 -0.5022 -0.2936
12174SOL     OW37334   2.793   4.583   3.652 -0.0961 -0.1198 -0.3589
12174SOL    HW137335   2.701   4.568   3.634 -0.0566 -1.0646  0.1932
12174SOL    HW237336   2.819   4.510   3.708  0.6190  0.9062  0.6863
12175SOL     OW37337   7.013   7.646   7.753  0.3151  0.4261 -0.6699
12175SOL    HW137338   7.069   7.642   7.830  0.0450  0.0430 -0.4919
12175SOL    HW237339   7.067   7.611   7.682 -0.1448 -1.2098 -0.2335
12176SOL     OW37340   6.443   0.812   3.910  0.0940 -0.1121  0.3311
12176SOL    HW137341   6.535   0.819   3.937  0.2419 -2.7024  0.6269
12176SOL    HW237342   6.395   0.801   3.992 -0.3535 -0.0309  0.0817
12177SOL     OW37343   3.319   5.969   5.511  0.6093  0.0744 -0.3895
12177SOL    HW137344   3.388   5.994   5.451  0.1037 -0.6283 -1.2833
12177SOL    HW237345   3.256   6.041   5.508  1.6202  1.0254  0.9429
12178SOL     OW37346   4.571   5.554   1.466  0.0648 -0.3555  0.1252
12178SOL    HW137347   4.543   5.502   1.391 -1.0118  0.3139  0.0501
12178SOL    HW237348   4.549   5.644   1.443 -0.6951 -0.1929  1.4400
12179SOL     OW37349   2.996   7.629   7.754  0.3296 -0.0837 -0.4569
12179SOL    HW137350   2.925   7.659   7.811  1.8394  0.9795  0.9491
12179SOL    HW237351   3.030   7.551   7.798  1.5449  0.7795  0.1835
12180SOL     OW37352   1.654   5.095   2.790 -0.2097 -0.0750  0.5996
12180SOL    HW137353   1.714   5.060   2.725 -0.5582 -0.4708  0.4918
12180SOL    HW237354   1.708   5.153   2.844  0.0342  0.4270 -0.1757
12181SOL     OW37355   2.922   4.514   2.424 -0.0079  0.1202 -0.7121
12181SOL    HW137356   2.911   4.609   2.421 -1.6854 -0.0349  0.1616
12181SOL    HW237357   2.845   4.479   2.380 -1.0551 -0.8949  1.8511
12182SOL     OW37358   0.269   4.968   0.668  0.3711 -0.1850  0.0138
12182SOL    HW137359   0.301   5.056   0.652  0.6076 -0.1219  0.8482
12182SOL    HW237360   0.176   4.972   0.647 -0.2135  0.9476  2.6508
12183SOL     OW37361   2.896   2.132   1.736 -0.0139  0.0608  0.1689
12183SOL    HW137362   2.893   2.186   1.815 -1.3051  0.0353  0.1535
12183SOL    HW237363   2.805   2.128   1.706  0.4815  0.2400 -1.4354
12184SOL     OW37364   2.289   0.446   5.092 -0.2790  0.4344 -0.1760
12184SOL    HW137365   2.306   0.522   5.147 -0.2576  0.3104 -0.0117
12184SOL    HW237366   2.313   0.371   5.146 -0.9403  0.2758 -0.1034
12185SOL     OW37367   6.941   5.931   1.422 -0.1745  0.2617 -0.2751
12185SOL    HW137368   6.850   5.960   1.410 -0.5187 -0.7686 -0.2256
12185SOL    HW237369   6.933   5.853   1.476  0.7360  0.0488 -0.4540
12186SOL     OW37370   4.295   0.793   2.231  0.5026 -0.0629  0.1086
12186SOL    HW137371   4.253   0.759   2.310 -1.5472  0.6117 -0.6804
12186SOL    HW237372   4.345   0.869   2.261  1.4311 -1.0494  1.1026
12187SOL     OW37373   4.341   2.230   1.379  0.3815  0.4080  0.3484
12187SOL    HW137374   4.350   2.146   1.335  0.7967  1.2893 -1.3005
12187SOL    HW237375   4.291   2.211   1.458 -0.3931 -1.2149 -0.5196
12188SOL     OW37376   3.611   2.401   3.819  0.2482  0.3753 -0.1848
12188SOL    HW137377   3.684   2.458   3.843 -0.2914  1.7346 -1.7219
12188SOL    HW237378   3.651   2.328   3.772  0.7450  0.4950  0.0551
12189SOL     OW37379   5.953   0.076   4.138 -0.2547 -0.1735 -0.4872
12189SOL    HW137380   5.863   0.044   4.135 -0.5987  0.8968 -2.5383
12189SOL    HW237381   5.950   0.150   4.199 -0.0433 -2.1813  2.0402
12190SOL     OW37382   7.141   6.375   3.988 -0.7612  0.5926  0.0590
12190SOL    HW137383   7.235   6.381   3.968 -0.6398  1.7040  0.9160
12190SOL    HW237384   7.100   6.356   3.904  0.2009  0.4285 -0.3862
12191SOL     OW37385   3.641   5.777   4.017  0.3690 -0.0248 -0.1866
12191SOL    HW137386   3.717   5.831   4.039  0.4965  0.0113 -0.7103
12191SOL    HW237387   3.673   5.716   3.950 -1.0639  2.6605 -3.4892
12192SOL     OW37388   5.339   2.309   3.175 -0.4480  0.3532 -0.5340
12192SOL    HW137389   5.322   2.400   3.202 -1.3238  0.1142 -0.2517
12192SOL    HW237390   5.253   2.276   3.151 -0.4908 -1.1103  1.5224
12193SOL     OW37391   6.356   4.131   6.393 -0.0601  0.3494  0.6787
12193SOL    HW137392   6.330   4.209   6.441  1.1048 -0.1140  2.1137
12193SOL    HW237393   6.321   4.058   6.445 -1.0750 -0.0894 -0.6067
12194SOL     OW37394   7.184   6.031   0.059 -0.3217  0.0719  0.1708
12194SOL    HW137395   7.170   6.077   0.141 -0.0909 -0.4213  0.4946
12194SOL    HW237396   7.275   6.001   0.064  0.8078  2.9716 -1.7532
12195SOL     OW37397   0.880   2.689   6.639  0.2147  0.2935 -0.4208
12195SOL    HW137398   0.921   2.681   6.554  0.5973 -0.2782 -0.1849
12195SOL    HW237399   0.879   2.600   6.674 -1.8970  0.1584 -0.7370
12196SOL     OW37400   0.947   1.756   0.672 -0.0031 -0.0066  0.1595
12196SOL    HW137401   0.940   1.781   0.764 -0.0645 -1.0469  0.4367
12196SOL    HW237402   1.006   1.681   0.672 -1.0271 -0.8055 -0.5131
12197SOL     OW37403   2.582   1.274   4.478  0.1918  0.4909  0.2900
12197SOL    HW137404   2.524   1.321   4.418 -0.9697  1.9436  2.4972
12197SOL    HW237405   2.658   1.331   4.489  0.3986  0.2299  0.2419
12198SOL     OW37406   4.758   2.431   1.702 -0.0818  0.1715 -0.2490
12198SOL    HW137407   4.666   2.407   1.711  0.6680 -1.7504  3.3953
12198SOL    HW237408   4.762   2.523   1.729 -0.9456  0.3432 -0.6944
12199SOL     OW37409   0.664   4.267   6.765  0.0682  0.3136  0.0444
12199SOL    HW137410   0.687   4.325   6.692  0.5270  0.5964  0.4074
12199SOL    HW237411   0.645   4.326   6.838  1.2629  0.0070  0.6235
12200SOL     OW37412   7.609   0.243   6.260 -0.8558  0.6204  0.0840
12200SOL    HW137413   7.622   0.324   6.310 -1.0713 -0.4911  1.9711
12200SOL    HW237414   7.514   0.235   6.251 -0.8303  0.6421 -0.2229
12201SOL     OW37415   7.033   4.878   7.549  0.2794 -0.0106  0.2551
12201SOL    HW137416   7.004   4.787   7.548 -2.4714  0.7753  2.4109
12201SOL    HW237417   6.998   4.915   7.468 -1.2029 -0.1640  0.8002
12202SOL     OW37418   6.517   7.273   1.034 -0.1174  0.2958 -0.0771
12202SOL    HW137419   6.495   7.284   0.942  1.9998 -1.4325 -0.8299
12202SOL    HW237420   6.600   7.319   1.044 -0.2683  0.3532  0.9584
12203SOL     OW37421   5.061   6.199   3.843  0.2009 -0.5276  0.7850
12203SOL    HW137422   5.154   6.218   3.838  0.1876 -0.6648  0.0819
12203SOL    HW237423   5.020   6.282   3.866  0.1472  0.3091 -2.1961
12204SOL     OW37424   5.811   5.438   4.106  0.4623  0.5045 -0.3337
12204SOL    HW137425   5.891   5.449   4.055  0.4018  0.2622 -0.4783
12204SOL    HW237426   5.827   5.489   4.185  1.8139 -1.6845  0.8519
12205SOL     OW37427   0.799   1.691   6.120 -0.0544  0.5722  0.1172
12205SOL    HW137428   0.873   1.747   6.145  2.0923 -1.8131 -0.6872
12205SOL    HW237429   0.825   1.653   6.036 -0.7281 -2.8879  1.4222
12206SOL     OW37430   1.379   5.718   0.054  0.5205 -0.7889  0.1362
12206SOL    HW137431   1.398   5.661   0.128  0.4662 -0.0106  0.7562
12206SOL    HW237432   1.345   5.798   0.094  1.9933  0.2336 -0.6587
12207SOL     OW37433   4.815   4.137   4.324 -0.4550  0.2890  0.1428
12207SOL    HW137434   4.849   4.127   4.413 -1.0005  0.9107  0.4268
12207SOL    HW237435   4.856   4.066   4.275 -0.3232 -0.1948  0.9405
12208SOL     OW37436   3.112   2.675   0.410 -0.3950  0.2109 -0.6762
12208SOL    HW137437   3.088   2.670   0.317 -1.8433 -1.2112 -0.2287
12208SOL    HW237438   3.089   2.590   0.446  2.6980 -0.2305  0.4284
12209SOL     OW37439   4.367   1.643   7.823  0.2149 -0.2051  0.2156
12209SOL    HW137440   4.299   1.691   7.776 -0.8394 -0.8845  1.0169
12209SOL    HW237441   4.325   1.560   7.847  1.0677 -0.3010  1.4183
12210SOL     OW37442   0.859   7.853   1.305 -0.2744 -0.3451  0.4898
12210SOL    HW137443   0.804   7.784   1.266 -0.3511 -0.6921  1.2132
12210SOL    HW237444   0.927   7.805   1.352  0.8113  0.0809 -0.6114
12211SOL     OW37445   6.750   3.573   1.205  0.1233 -0.1211 -0.2515
12211SOL    HW137446   6.678   3.616   1.250  1.4997  1.6634  0.3099
12211SOL    HW237447   6.822   3.573   1.268  0.8937 -1.0970 -1.0910
12212SOL     OW37448   4.814   0.363   6.808  0.0865 -0.0430 -0.0497
12212SOL    HW137449   4.804   0.436   6.746 -0.3269 -0.5773 -0.6225
12212SOL    HW237450   4.896   0.321   6.781 -1.2269 -1.6096 -1.6556
12213SOL     OW37451   1.719   5.105   7.348  0.4450  0.2152 -0.2763
12213SOL    HW137452   1.684   5.150   7.424  1.4122 -1.3924  1.1616
12213SOL    HW237453   1.765   5.173   7.298 -0.9093  1.4403  0.1346
12214SOL     OW37454   4.405   0.839   7.138 -0.0632 -0.3915 -0.1820
12214SOL    HW137455   4.365   0.769   7.189 -1.2655  1.6370  1.7261
12214SOL    HW237456   4.332   0.896   7.114  0.5773 -0.8321 -3.5215
12215SOL     OW37457   5.642   0.792   3.649  0.0102 -0.5096 -0.4607
12215SOL    HW137458   5.608   0.800   3.738 -1.6587  0.4861 -1.1711
12215SOL    HW237459   5.693   0.871   3.636  0.3363 -0.7019 -0.3623
12216SOL     OW37460   3.197   4.566   3.012  0.1707 -0.5524 -0.0569
12216SOL    HW137461   3.124   4.628   3.011  0.4577 -0.2161 -1.1253
12216SOL    HW237462   3.191   4.521   2.928 -1.0320 -3.1741  1.3899
12217SOL     OW37463   1.495   7.803   4.473 -0.2920  0.2811 -0.2669
12217SOL    HW137464   1.522   7.783   4.383 -0.2147 -0.1003 -0.1619
12217SOL    HW237465   1.496   7.718   4.518 -0.2450  0.4810  0.1167
12218SOL     OW37466   1.910   5.509   7.780  0.5006 -0.4025  0.4387
12218SOL    HW137467   1.911   5.542   7.870  1.4443 -1.4042  0.8170
12218SOL    HW237468   1.920   5.414   7.790  2.3582 -0.3540 -0.7779
12219SOL     OW37469   7.997   4.978   5.757  0.2135  0.0831 -0.7238
12219SOL    HW137470   8.031   4.889   5.745  0.0751 -0.0895  0.1327
12219SOL    HW237471   7.916   4.979   5.705  1.2415  0.3433 -2.3487
12220SOL     OW37472   2.926   6.835   3.044 -1.1011 -0.2813  0.0386
12220SOL    HW137473   2.988   6.899   3.081 -1.9652  0.5182  0.1221
12220SOL    HW237474   2.977   6.755   3.035 -0.0128  0.4112 -0.0129
12221SOL     OW37475   4.129   4.933   2.428 -0.3135  0.4499  0.3346
12221SOL    HW137476   4.143   4.882   2.349  1.5559  0.5530  0.5594
12221SOL    HW237477   4.083   4.874   2.488  1.0515 -0.6900  0.2816
12222SOL     OW37478   3.444   4.786   5.778  0.2162 -0.1693  0.2461
12222SOL    HW137479   3.459   4.774   5.684 -0.5612  0.0739  0.0893
12222SOL    HW237480   3.455   4.880   5.793 -1.0938  0.0009  0.1385
12223SOL     OW37481   2.177   3.541   6.888 -0.3737  0.5984 -0.4051
12223SOL    HW137482   2.216   3.543   6.801 -1.4940  0.4765 -0.9220
12223SOL    HW237483   2.101   3.599   6.882 -0.7509  0.1963  0.3446
12224SOL     OW37484   6.324   7.187   6.646  0.0663  0.2817  0.1484
12224SOL    HW137485   6.292   7.265   6.692  0.4662  0.1999  0.5605
12224SOL    HW237486   6.328   7.213   6.554  0.5714  0.8698  0.3368
12225SOL     OW37487   2.516   6.769   4.910  0.7617  0.9930  0.1598
12225SOL    HW137488   2.432   6.787   4.868 -0.2522 -0.0826  1.6658
12225SOL    HW237489   2.504   6.685   4.954  2.9042  0.4068 -0.2879
12226SOL     OW37490   5.852   3.921   0.336  0.2581  0.0239 -0.4654
12226SOL    HW137491   5.902   3.963   0.266  1.0097 -0.2633 -0.1094
12226SOL    HW237492   5.877   3.829   0.331  0.5501  0.0560  0.3717
12227SOL     OW37493   4.873   2.112   1.274  0.3804  0.9364 -0.2276
12227SOL    HW137494   4.882   2.148   1.363  0.0213  0.0511  0.1715
12227SOL    HW237495   4.950   2.057   1.262 -0.5081 -0.4609  0.2714
12228SOL     OW37496   0.228   5.375   7.100  0.0575 -0.4263  0.5244
12228SOL    HW137497   0.199   5.287   7.076  2.5209 -0.9822 -0.6117
12228SOL    HW237498   0.281   5.363   7.179 -1.6158  0.3970  1.8125
12229SOL     OW37499   4.368   1.392   5.731  0.2073  0.0615  0.3668
12229SOL    HW137500   4.364   1.306   5.689 -0.7337  0.6638 -0.8028
12229SOL    HW237501   4.323   1.380   5.814 -2.2657  0.0700 -0.9477
12230SOL     OW37502   4.320   5.197   5.719  0.6217 -0.2226  0.5673
12230SOL    HW137503   4.300   5.136   5.648  0.2233 -0.9785  1.3280
12230SOL    HW237504   4.394   5.158   5.765  1.2573  0.5567  0.2336
12231SOL     OW37505   3.514   3.893   3.536 -0.4823  0.3836 -0.1344
12231SOL    HW137506   3.601   3.885   3.575 -0.6186  1.1193  0.3216
12231SOL    HW237507   3.523   3.963   3.472 -0.1380 -1.1344 -1.7951
12232SOL     OW37508   1.227   1.255   6.888  0.1376 -0.7812  0.4473
12232SOL    HW137509   1.234   1.327   6.951 -0.1142 -1.8035  1.6612
12232SOL    HW237510   1.148   1.274   6.839  1.5305  1.2224 -1.1102
12233SOL     OW37511   5.275   3.063   2.113  0.0225 -1.0779 -0.2166
12233SOL    HW137512   5.300   3.150   2.079  1.4299 -2.1221 -1.9308
12233SOL    HW237513   5.225   3.082   2.192 -1.8148  1.3954 -1.8988
12234SOL     OW37514   0.764   4.266   4.824 -0.3751  0.0397 -0.2149
12234SOL    HW137515   0.763   4.180   4.781  0.1531 -0.1282  0.1040
12234SOL    HW237516   0.773   4.246   4.917  0.9726  0.4721 -0.2408
12235SOL     OW37517   1.503   2.803   4.662  0.6433  0.0126 -0.3370
12235SOL    HW137518   1.458   2.797   4.747 -0.2719 -0.2174 -0.8227
12235SOL    HW237519   1.542   2.717   4.650 -0.1168 -0.2987 -0.6219
12236SOL     OW37520   1.766   6.693   3.275  0.0725  0.3330 -0.5157
12236SOL    HW137521   1.724   6.776   3.297 -0.2692  0.7398 -2.5598
12236SOL    HW237522   1.859   6.714   3.264  0.7491 -0.3984  3.1275
12237SOL     OW37523   3.977   6.463   1.532  0.3272 -0.0051  0.1324
12237SOL    HW137524   3.896   6.473   1.481  0.2275 -1.3396 -0.0064
12237SOL    HW237525   4.041   6.517   1.487  0.0558 -0.6161 -1.0241
12238SOL     OW37526   0.441   3.239   3.319  0.6701 -0.5750 -0.4906
12238SOL    HW137527   0.437   3.334   3.333  1.1302 -0.4223 -1.3636
12238SOL    HW237528   0.349   3.211   3.320  0.5420 -0.1400 -0.0907
12239SOL     OW37529   4.942   2.395   6.041  0.2604 -0.1534 -0.3732
12239SOL    HW137530   5.012   2.363   6.097  0.4298  2.3898  0.9083
12239SOL    HW237531   4.873   2.423   6.102 -0.9376 -0.4675 -1.5444
12240SOL     OW37532   0.149   2.800   7.129  0.0920  0.2612 -0.1789
12240SOL    HW137533   0.201   2.720   7.128 -0.0762  0.1516 -0.2526
12240SOL    HW237534   0.154   2.831   7.219  0.8883  0.6481 -0.3534
12241SOL     OW37535   3.967   4.652   3.910  0.7535  0.1888 -0.3289
12241SOL    HW137536   3.998   4.642   4.000 -0.3299 -0.0437  0.0329
12241SOL    HW237537   3.871   4.646   3.917  0.6381  0.6011 -1.4394
12242SOL     OW37538   2.388   6.916   5.600  0.0660  0.3651 -0.3530
12242SOL    HW137539   2.336   6.843   5.566 -0.3945  0.6326 -0.2263
12242SOL    HW237540   2.418   6.886   5.685 -0.3508  0.4296 -0.1825
12243SOL     OW37541   7.683   2.827   1.779  0.5220 -0.4321 -0.1565
12243SOL    HW137542   7.682   2.890   1.851 -1.1306  0.3958 -0.8757
12243SOL    HW237543   7.615   2.763   1.802 -0.0976 -0.0960 -1.0306
12244SOL     OW37544   1.759   4.761   3.206 -0.2142  0.1765  0.5312
12244SOL    HW137545   1.762   4.701   3.281 -1.6347  1.5123  1.6970
12244SOL    HW237546   1.851   4.773   3.181  0.4059  0.6437  2.8496
12245SOL     OW37547   7.841   7.894   6.715 -0.8161  0.0385 -0.1986
12245SOL    HW137548   7.776   7.956   6.747 -1.6793 -0.7794 -0.3171
12245SOL    HW237549   7.914   7.948   6.684 -0.2359  0.8678  2.4916
12246SOL     OW37550   6.816   5.279   1.706  0.4907  0.1111 -0.3389
12246SOL    HW137551   6.878   5.349   1.729  0.1075  0.2446  0.2865
12246SOL    HW237552   6.853   5.240   1.627  1.2842  0.3100 -0.0720
12247SOL     OW37553   5.220   3.318   1.993  0.6834 -0.0659  0.1853
12247SOL    HW137554   5.288   3.385   1.994 -0.9819  1.6775  3.4217
12247SOL    HW237555   5.138   3.366   1.991 -0.5214 -2.0690 -0.1941
12248SOL     OW37556   4.034   6.679   1.373 -0.4446 -0.3180 -0.8968
12248SOL    HW137557   3.949   6.706   1.336 -0.5496  1.6721  0.6910
12248SOL    HW237558   4.084   6.760   1.378  0.7208 -1.0987  0.3015
12249SOL     OW37559   0.178   7.361   5.576  0.2676  0.6227  0.7988
12249SOL    HW137560   0.237   7.308   5.630  0.5320 -0.3012 -0.3847
12249SOL    HW237561   0.129   7.413   5.640  0.4308 -0.5915  1.9577
12250SOL     OW37562   5.049   1.397   7.060  0.0485  0.1777  0.4884
12250SOL    HW137563   5.061   1.480   7.105  1.4304 -0.5432  1.4851
12250SOL    HW237564   5.059   1.331   7.128  3.4663 -1.0148 -1.0179
12251SOL     OW37565   0.099   6.517   2.742  0.0235 -0.4885 -0.1452
12251SOL    HW137566   0.118   6.435   2.695 -0.0477 -0.4311 -0.2734
12251SOL    HW237567   0.007   6.509   2.768  0.0275 -0.4659 -0.1241
12252SOL     OW37568   1.938   6.564   0.806  0.4529 -0.2999  0.2051
12252SOL    HW137569   1.985   6.603   0.733  2.3818  0.2210  1.6816
12252SOL    HW237570   1.940   6.631   0.874 -1.8159 -0.5506  0.5451
12253SOL     OW37571   4.049   3.308   4.626  0.0945  0.1990  0.1979
12253SOL    HW137572   4.126   3.285   4.573  0.7831  0.0497  1.2614
12253SOL    HW237573   4.058   3.257   4.706 -2.0466 -1.2091 -0.4039
12254SOL     OW37574   4.890   5.144   0.677  0.1268 -0.4515 -0.5622
12254SOL    HW137575   4.971   5.121   0.631  0.3695 -0.9075  0.0810
12254SOL    HW237576   4.901   5.235   0.702 -0.1387 -0.1034 -1.6752
12255SOL     OW37577   0.447   6.786   2.680  0.3024 -0.1615 -0.3413
12255SOL    HW137578   0.459   6.852   2.749  1.7639  0.8960 -1.5812
12255SOL    HW237579   0.449   6.702   2.728 -3.9787  0.6925  1.5556
12256SOL     OW37580   7.571   5.425   0.668  0.2676 -0.2091  0.3553
12256SOL    HW137581   7.554   5.351   0.610  0.3997  0.4880 -0.5867
12256SOL    HW237582   7.666   5.439   0.662  0.6236 -1.5074  2.4405
12257SOL     OW37583   6.325   7.516   6.989 -0.6895 -0.0476  0.0036
12257SOL    HW137584   6.302   7.600   6.949 -0.5803  1.6916  3.3780
12257SOL    HW237585   6.419   7.523   7.005  0.0585 -2.3809 -3.0972
12258SOL     OW37586   4.668   4.757   1.466  0.0672  0.3136 -0.1968
12258SOL    HW137587   4.737   4.817   1.494  0.3532  0.5216 -1.3112
12258SOL    HW237588   4.715   4.682   1.429 -0.2968 -0.2278  0.4352
12259SOL     OW37589   7.299   2.547   3.427  0.2374  0.1563 -0.6628
12259SOL    HW137590   7.384   2.584   3.401  0.9702 -0.3241  0.9743
12259SOL    HW237591   7.310   2.453   3.415  0.0057  0.0778 -0.2614
12260SOL     OW37592   4.582   5.358   1.234  0.2231  0.3135 -0.4563
12260SOL    HW137593   4.646   5.293   1.205  0.3565  1.1350 -2.0329
12260SOL    HW237594   4.520   5.308   1.287  0.7468 -0.9588 -1.0251
12261SOL     OW37595   5.606   6.387   1.695 -0.1570  1.5296 -0.0391
12261SOL    HW137596   5.683   6.331   1.691  0.0923  1.7393  1.3532
12261SOL    HW237597   5.641   6.474   1.717 -0.6464  1.9592 -0.9623
12262SOL     OW37598   5.343   3.453   0.471  0.0809  0.3576  0.1245
12262SOL    HW137599   5.287   3.421   0.400  0.6197 -0.5827  0.1165
12262SOL    HW237600   5.357   3.545   0.451  2.4785 -0.5198 -2.4928
12263SOL     OW37601   4.339   1.934   7.548  0.0639  0.0379  0.3632
12263SOL    HW137602   4.301   1.852   7.581 -0.7561  0.1576 -0.2829
12263SOL    HW237603   4.265   1.982   7.513  0.7598  0.4538 -0.5360
12264SOL     OW37604   3.988   0.573   5.506 -0.9258 -0.3000 -0.1156
12264SOL    HW137605   3.920   0.605   5.446  0.1286 -0.2918 -1.3121
12264SOL    HW237606   3.980   0.477   5.502 -1.1034 -0.2921  0.0289
12265SOL     OW37607   3.369   1.814   5.162  0.4244  0.6364 -0.8759
12265SOL    HW137608   3.416   1.854   5.236  0.6336 -0.2881 -0.5099
12265SOL    HW237609   3.359   1.722   5.186  0.9885  0.2000 -2.2448
12266SOL     OW37610   5.088   0.384   7.247 -0.2202 -0.2115  0.4914
12266SOL    HW137611   5.119   0.380   7.156 -3.9807  1.1258 -0.9462
12266SOL    HW237612   5.075   0.478   7.263 -0.7457 -0.5360  2.0123
12267SOL     OW37613   6.742   4.512   7.282 -0.1759  0.1907  0.7582
12267SOL    HW137614   6.696   4.591   7.252  0.6124  1.7713  3.5150
12267SOL    HW237615   6.691   4.482   7.357  1.8655  0.5594  2.3406
12268SOL     OW37616   7.324   5.722   4.922 -1.0479  0.7224  0.6822
12268SOL    HW137617   7.314   5.709   5.016 -1.3723  0.9401  0.6766
12268SOL    HW237618   7.357   5.638   4.890  0.8624  1.2167  1.2617
12269SOL     OW37619   7.446   4.008   1.636  0.4649  0.4530 -1.3358
12269SOL    HW137620   7.366   3.999   1.585  0.4162 -0.0245 -1.1866
12269SOL    HW237621   7.497   4.076   1.592  0.5987 -0.2219 -2.2463
12270SOL     OW37622   4.910   2.139   6.481  0.4830 -0.4868 -0.5080
12270SOL    HW137623   4.910   2.233   6.464 -0.4464 -0.7341 -1.9696
12270SOL    HW237624   4.932   2.131   6.574 -1.5222  1.2824  0.1711
12271SOL     OW37625   6.030   2.529   2.306 -0.4849  0.0228  0.4140
12271SOL    HW137626   6.041   2.523   2.401 -2.6491  4.4744  1.0812
12271SOL    HW237627   5.938   2.509   2.291 -0.4626  0.6596 -0.6293
12272SOL     OW37628   6.237   4.614   1.897  0.0425 -0.1326 -0.0865
12272SOL    HW137629   6.273   4.548   1.837  0.2357 -1.0815  1.0488
12272SOL    HW237630   6.313   4.667   1.922  0.2456 -0.6712  0.4708
12273SOL     OW37631   2.441   5.706   6.787  0.4540 -0.1625  0.3266
12273SOL    HW137632   2.465   5.652   6.712  0.6801  0.1766  0.1509
12273SOL    HW237633   2.359   5.669   6.819  0.8454 -0.8947  0.4953
12274SOL     OW37634   0.849   5.786   2.424  0.1701  0.5926  0.3992
12274SOL    HW137635   0.907   5.747   2.359  0.8598  2.6396 -0.2421
12274SOL    HW237636   0.778   5.825   2.373  0.1068  1.2221  0.9653
12275SOL     OW37637   4.931   1.861   6.069  0.4470  0.5678 -0.5624
12275SOL    HW137638   4.970   1.839   6.154  2.1883 -2.5376 -2.0860
12275SOL    HW237639   4.864   1.926   6.090 -0.3467 -1.3753  3.4233
12276SOL     OW37640   4.210   6.095   3.122  0.1763  0.4979  0.1559
12276SOL    HW137641   4.205   6.189   3.106  4.2320  0.8967  0.7016
12276SOL    HW237642   4.221   6.057   3.034 -2.0578  0.4382 -0.1218
12277SOL     OW37643   3.548   7.928   3.985  0.2044  0.1412 -0.1841
12277SOL    HW137644   3.526   8.010   3.941 -0.9223 -0.4688 -0.7783
12277SOL    HW237645   3.570   7.868   3.914  0.0918 -0.3413  0.1872
12278SOL     OW37646   4.144   7.736   0.014 -0.0637 -0.3165 -0.4999
12278SOL    HW137647   4.151   7.724   0.109 -1.7274 -0.2355 -0.3451
12278SOL    HW237648   4.069   7.681  -0.011 -1.0242  1.3752 -1.4198
12279SOL     OW37649   0.611   0.313   7.864 -0.3242  0.5378  0.2721
12279SOL    HW137650   0.518   0.293   7.860  0.2389 -2.1443 -0.2743
12279SOL    HW237651   0.631   0.318   7.957 -0.8650  0.3818  0.3971
12280SOL     OW37652   2.037   5.777   5.636 -0.3491  0.2708  0.2435
12280SOL    HW137653   2.055   5.817   5.551 -0.7082 -1.3934 -0.6387
12280SOL    HW237654   2.092   5.825   5.698 -0.6408  1.9897 -0.8092
12281SOL     OW37655   4.496   1.602   5.109  0.1236 -0.4066  0.3738
12281SOL    HW137656   4.453   1.516   5.111 -1.6872  0.3704 -2.8108
12281SOL    HW237657   4.581   1.585   5.070  0.4652 -1.0009  1.3415
12282SOL     OW37658   2.017   1.345   7.769  0.5656 -0.7695 -0.5757
12282SOL    HW137659   2.063   1.260   7.764  2.0401 -0.2669  2.7399
12282SOL    HW237660   2.088   1.409   7.777 -0.5817  0.2442  2.2643
12283SOL     OW37661   5.726   5.363   1.399  0.6219 -0.5153 -0.1386
12283SOL    HW137662   5.701   5.288   1.453  0.1477  0.5313  1.0994
12283SOL    HW237663   5.643   5.397   1.366  0.7583  0.1670  0.2294
12284SOL     OW37664   2.914   1.821   4.813 -0.0322 -0.4108  0.3325
12284SOL    HW137665   2.975   1.759   4.853  0.6734  0.3907  0.5117
12284SOL    HW237666   2.967   1.870   4.750 -0.3615  0.6310  0.8437
12285SOL     OW37667   5.191   4.554   5.020  0.3134 -0.2502 -0.0974
12285SOL    HW137668   5.250   4.584   4.951 -0.7669  3.5931  0.5276
12285SOL    HW237669   5.191   4.625   5.085 -3.6653 -0.8574  0.7167
12286SOL     OW37670   3.863   4.338   5.644 -0.1112  0.0322 -0.2530
12286SOL    HW137671   3.848   4.279   5.718  1.1233  0.0674  0.0234
12286SOL    HW237672   3.829   4.290   5.569  1.5391 -1.3411 -0.1433
12287SOL     OW37673   4.224   0.176   6.348  0.2663  0.4201 -0.2980
12287SOL    HW137674   4.283   0.222   6.288  0.8127 -1.0387 -0.9219
12287SOL    HW237675   4.157   0.139   6.291  0.2806 -0.2054  0.0849
12288SOL     OW37676   2.912   0.441   1.601 -0.2428  0.1853  0.7354
12288SOL    HW137677   2.864   0.476   1.675 -1.4619 -0.1396  0.1130
12288SOL    HW237678   2.859   0.463   1.525  0.1657 -0.9132  0.1119
12289SOL     OW37679   3.111   3.235   1.744 -0.5065 -0.5066  0.1046
12289SOL    HW137680   3.162   3.190   1.676 -2.3813 -0.9231 -1.0597
12289SOL    HW237681   3.098   3.323   1.709 -2.7972 -1.1842 -0.8024
12290SOL     OW37682   7.845   2.093   6.902  0.6915  0.6695 -0.0687
12290SOL    HW137683   7.756   2.057   6.905  0.7870  0.3827 -0.7001
12290SOL    HW237684   7.834   2.184   6.931  0.0092  0.9778 -1.2768
12291SOL     OW37685   3.842   7.684   4.909 -0.0455  0.8414  0.0904
12291SOL    HW137686   3.854   7.613   4.845  1.6886  0.3193  0.9621
12291SOL    HW237687   3.801   7.642   4.984 -0.6439  1.1362 -0.0676
12292SOL     OW37688   7.064   6.320   4.628 -0.4337 -0.3234  0.1022
12292SOL    HW137689   7.025   6.234   4.643  0.9955 -1.1927 -1.0077
12292SOL    HW237690   6.991   6.375   4.599 -1.1462 -1.4593 -0.2751
12293SOL     OW37691   6.234   7.955   2.492  0.1784 -0.0739 -0.2341
12293SOL    HW137692   6.263   7.867   2.470  0.5821  0.3566 -1.5154
12293SOL    HW237693   6.149   7.943   2.533  0.5286 -1.1016  0.2000
12294SOL     OW37694   2.354   2.329   6.877  0.4044 -0.7099 -0.3069
12294SOL    HW137695   2.264   2.298   6.887  0.4865 -0.7218  0.3961
12294SOL    HW237696   2.388   2.279   6.803 -0.6911  0.4981 -1.6631
12295SOL     OW37697   4.660   4.867   6.365  0.7276  0.3983  0.2937
12295SOL    HW137698   4.580   4.853   6.315  1.5606  1.5171 -1.4038
12295SOL    HW237699   4.631   4.904   6.449 -0.6283 -0.7881  0.3588
12296SOL     OW37700   7.162   2.980   0.712 -0.0540 -0.0791  0.6719
12296SOL    HW137701   7.090   2.999   0.653  1.6005  2.0974 -0.7638
12296SOL    HW237702   7.211   2.909   0.670  2.4483  3.0201 -1.9058
12297SOL     OW37703   1.216   5.679   6.038 -0.0545 -0.2958 -0.1324
12297SOL    HW137704   1.214   5.591   6.000  1.8809 -0.2129 -0.4777
12297SOL    HW237705   1.236   5.665   6.130 -0.8533 -0.2693  0.0497
12298SOL     OW37706   3.769   1.615   7.651 -0.1616  0.2433 -0.1139
12298SOL    HW137707   3.798   1.603   7.561 -0.9365  1.6632 -0.5783
12298SOL    HW237708   3.674   1.625   7.645 -0.5917 -2.4992  1.1863
12299SOL     OW37709   2.189   4.394   4.850  0.5437 -0.0895  0.0588
12299SOL    HW137710   2.239   4.376   4.930  2.7765 -0.4524 -1.3850
12299SOL    HW237711   2.177   4.309   4.809  0.5763  0.2554 -0.6770
12300SOL     OW37712   1.860   3.365   2.868  0.0989  0.0200 -0.4471
12300SOL    HW137713   1.767   3.342   2.874 -0.3992  2.2760  1.5517
12300SOL    HW237714   1.862   3.441   2.811  0.5234  0.8489  0.6545
12301SOL     OW37715   0.158   2.482   0.041  0.2867  0.0735 -0.4119
12301SOL    HW137716   0.114   2.550   0.092  0.0703 -0.8909  0.6851
12301SOL    HW237717   0.235   2.459   0.093  0.9696  0.2725 -1.3246
12302SOL     OW37718   6.754   4.124   3.590  0.5654  0.2289  0.3386
12302SOL    HW137719   6.707   4.055   3.637  0.5312 -1.4434 -2.0403
12302SOL    HW237720   6.846   4.099   3.598  0.6056  0.2921  0.0720
12303SOL     OW37721   7.943   3.883   3.474 -0.0883  0.3113 -0.4259
12303SOL    HW137722   7.959   3.795   3.439 -0.5875  0.8206 -1.9442
12303SOL    HW237723   7.897   3.867   3.556  1.4933 -0.9049  0.2664
12304SOL     OW37724   6.962   7.573   7.150  0.0963  0.6898  0.3568
12304SOL    HW137725   6.918   7.557   7.067 -1.7020  0.4999  1.3134
12304SOL    HW237726   6.952   7.667   7.165 -1.0923  0.4451  1.1676
12305SOL     OW37727   3.448   1.400   0.042  0.0533  0.9344  0.2170
12305SOL    HW137728   3.459   1.315   0.085  1.0012 -0.3564 -2.4447
12305SOL    HW237729   3.537   1.424   0.015 -0.6299  1.2458 -1.8097
12306SOL     OW37730   1.070   0.044   5.782 -0.2777  0.1868  0.1012
12306SOL    HW137731   1.113  -0.042   5.785  0.4250  0.3491 -2.9984
12306SOL    HW237732   0.999   0.039   5.846 -1.3165 -3.3090 -1.2386
12307SOL     OW37733   5.264   4.733   6.732  0.5821 -0.1735  0.0343
12307SOL    HW137734   5.226   4.725   6.819  1.5017 -1.8169  0.3018
12307SOL    HW237735   5.189   4.740   6.674 -0.1512 -2.6482  0.6297
12308SOL     OW37736   1.471   5.958   7.457  0.2103  0.3990  0.0958
12308SOL    HW137737   1.543   5.979   7.398  0.0242  0.8236  0.0170
12308SOL    HW237738   1.435   6.043   7.483 -0.7026  0.1822 -0.4240
12309SOL     OW37739   1.083   5.333   1.360 -0.3381  0.1550 -0.1974
12309SOL    HW137740   1.028   5.285   1.422  0.6595  0.3767  0.8999
12309SOL    HW237741   1.171   5.328   1.398  0.1296  1.0936 -1.1238
12310SOL     OW37742   2.508   0.704   6.612  0.2655  0.1128 -0.1578
12310SOL    HW137743   2.530   0.611   6.608  1.6887  0.4747 -1.0371
12310SOL    HW237744   2.565   0.739   6.681  1.3394  0.7436 -1.3422
12311SOL     OW37745   5.900   0.539   6.425 -0.0829 -0.3449 -0.3837
12311SOL    HW137746   5.970   0.582   6.474 -0.1207 -0.4480 -0.2395
12311SOL    HW237747   5.935   0.530   6.336  0.2231 -0.7183 -0.2260
12312SOL     OW37748   6.505   4.603   3.463 -0.6970 -0.0689  0.3687
12312SOL    HW137749   6.499   4.583   3.370  0.4189 -3.2236  0.9187
12312SOL    HW237750   6.487   4.697   3.469 -1.6765 -0.0069 -2.9045
12313SOL     OW37751   4.790   5.702   0.417 -0.2775  0.3420  0.2272
12313SOL    HW137752   4.872   5.726   0.459 -0.3619 -0.0069  0.5968
12313SOL    HW237753   4.798   5.608   0.400  0.3566  0.7635 -1.9060
12314SOL     OW37754   6.477   5.535   5.801  0.0733  0.4184  0.5515
12314SOL    HW137755   6.447   5.456   5.755  2.0712 -0.3986  0.5757
12314SOL    HW237756   6.562   5.510   5.837  0.6524  2.5391  0.7230
12315SOL     OW37757   0.450   5.349   1.010 -0.3362  0.4089  0.5959
12315SOL    HW137758   0.387   5.307   1.069 -0.1996 -0.0567  0.4080
12315SOL    HW237759   0.400   5.418   0.967 -0.8713 -0.3321  0.0159
12316SOL     OW37760   4.848   1.702   4.548  0.3730  0.3310  0.2851
12316SOL    HW137761   4.859   1.743   4.463  0.0863  0.6652  0.4093
12316SOL    HW237762   4.887   1.764   4.610  0.2951  0.2369  0.4292
12317SOL     OW37763   0.265   5.946   1.791  0.5253  0.2120 -0.3548
12317SOL    HW137764   0.252   6.029   1.837 -0.0857  0.3598 -0.7882
12317SOL    HW237765   0.269   5.970   1.698 -1.6312 -0.4551 -0.6353
12318SOL     OW37766   7.885   7.439   5.357  0.1326  0.4171 -0.2995
12318SOL    HW137767   7.937   7.358   5.355  1.0325  0.9863 -0.1374
12318SOL    HW237768   7.943   7.504   5.397 -0.9278  0.9125  0.4540
12319SOL     OW37769   4.053   3.526   7.695 -0.1066 -0.2283  0.8431
12319SOL    HW137770   4.131   3.473   7.679  1.7086  1.5560  3.3769
12319SOL    HW237771   4.046   3.584   7.619  1.4860  0.1382  0.9786
12320SOL     OW37772   2.045   1.310   7.416 -0.4975 -0.7024 -0.0493
12320SOL    HW137773   2.011   1.285   7.330  0.6442  1.0821 -1.0660
12320SOL    HW237774   2.123   1.363   7.396  0.6199 -1.4724  2.1231
12321SOL     OW37775   6.632   4.186   0.562  0.4526  0.0105  0.2224
12321SOL    HW137776   6.666   4.231   0.485  0.2790 -0.6848 -0.2705
12321SOL    HW237777   6.626   4.253   0.629  1.5904  0.4076 -0.0656
12322SOL     OW37778   3.209   7.275   3.409  0.3291 -0.4626  0.1164
12322SOL    HW137779   3.304   7.289   3.401  0.2581 -0.8139 -1.6532
12322SOL    HW237780   3.199   7.181   3.397 -0.3286 -0.2824 -0.8228
12323SOL     OW37781   2.238   5.147   4.902 -0.4739  0.0606  0.3519
12323SOL    HW137782   2.274   5.236   4.902  0.1338 -0.1664 -1.0704
12323SOL    HW237783   2.239   5.122   4.810  1.1659 -2.1666  0.9517
12324SOL     OW37784   1.168   6.571   5.896  0.4851  0.0051 -0.2481
12324SOL    HW137785   1.220   6.576   5.815  0.6503 -0.1452 -0.1507
12324SOL    HW237786   1.108   6.498   5.881 -0.2700  0.7078 -0.6920
12325SOL     OW37787   3.914   0.221   3.983  0.2087 -0.3273 -0.0629
12325SOL    HW137788   3.846   0.271   3.937 -0.4758 -1.3760 -0.2006
12325SOL    HW237789   3.866   0.156   4.035  1.1237 -1.5938 -0.7644
12326SOL     OW37790   2.582   4.800   0.142  0.2482  0.1963 -0.1364
12326SOL    HW137791   2.667   4.758   0.132 -0.8492 -1.8608 -1.1878
12326SOL    HW237792   2.525   4.731   0.177 -1.9128  0.4081 -3.0440
12327SOL     OW37793   1.925   3.858   2.700  0.7593 -0.1557  0.2348
12327SOL    HW137794   1.871   3.918   2.752 -0.6346 -0.1126 -1.2381
12327SOL    HW237795   1.892   3.771   2.723  0.1312 -0.1350 -0.6010
12328SOL     OW37796   0.668   5.169   6.505 -0.3500  0.7256 -0.1206
12328SOL    HW137797   0.762   5.153   6.512 -0.5097  0.7712  2.4875
12328SOL    HW237798   0.647   5.149   6.414  2.4551  2.1350 -1.1435
12329SOL     OW37799   6.384   1.398   2.934  0.2468 -0.3431  0.1849
12329SOL    HW137800   6.300   1.438   2.912  1.3455  0.0011 -3.8176
12329SOL    HW237801   6.436   1.470   2.969 -0.1371  0.0844 -0.1218
12330SOL     OW37802   6.844   5.176   2.736  0.1467  0.1808  0.1008
12330SOL    HW137803   6.795   5.117   2.793 -0.7234  1.3923  0.6172
12330SOL    HW237804   6.792   5.182   2.656 -0.3982  1.1900  0.5158
12331SOL     OW37805   1.736   4.387   1.371 -0.7362 -0.0913 -0.1888
12331SOL    HW137806   1.717   4.444   1.445 -0.0910 -0.1760  0.0468
12331SOL    HW237807   1.815   4.339   1.397 -0.6127 -0.2553 -0.8504
12332SOL     OW37808   5.975   0.667   7.185  0.1329  0.3952  0.3566
12332SOL    HW137809   5.896   0.637   7.140 -1.6507  1.7301  2.4457
12332SOL    HW237810   5.951   0.665   7.278  2.8341  0.1294  1.0996
12333SOL     OW37811   3.238   2.722   5.339 -0.0610 -0.4080  0.1187
12333SOL    HW137812   3.203   2.640   5.373 -0.1492  0.0597  1.1909
12333SOL    HW237813   3.284   2.761   5.414 -1.0131  1.0671 -0.0487
12334SOL     OW37814   4.810   4.334   2.939 -0.1921  0.5906  0.2589
12334SOL    HW137815   4.833   4.241   2.937 -0.1539  0.5461  2.1239
12334SOL    HW237816   4.722   4.336   2.976 -0.3758  1.2776 -0.2054
12335SOL     OW37817   6.932   3.009   0.593 -0.2471  0.0999  0.4006
12335SOL    HW137818   6.916   3.059   0.513  0.4832  1.5187  1.1141
12335SOL    HW237819   6.850   3.015   0.641 -0.3760  0.0551  0.1873
12336SOL     OW37820   1.884   7.178   3.867  0.9994  0.0667 -0.5232
12336SOL    HW137821   1.944   7.133   3.807  1.9666  0.1323  0.3893
12336SOL    HW237822   1.825   7.109   3.898 -0.2350  0.2263 -2.3885
12337SOL     OW37823   0.300   6.740   6.562 -0.1888  0.8779 -0.2774
12337SOL    HW137824   0.292   6.827   6.524  0.8262  0.9823 -0.2707
12337SOL    HW237825   0.313   6.682   6.486  2.0050  1.1061 -0.1190
12338SOL     OW37826   3.502   6.977   3.030  0.0325  0.6686 -0.2750
12338SOL    HW137827   3.567   6.985   2.961 -0.7167 -1.1872 -1.2272
12338SOL    HW237828   3.446   6.905   3.003 -0.8676  0.5365  1.7922
12339SOL     OW37829   4.816   0.444   6.302  0.6887 -0.2055  0.3774
12339SOL    HW137830   4.783   0.356   6.320  0.6136 -0.7959 -2.4158
12339SOL    HW237831   4.740   0.501   6.315 -0.0843 -0.9348 -0.8387
12340SOL     OW37832   6.173   4.293   0.623  0.0075  0.4440  0.3395
12340SOL    HW137833   6.217   4.238   0.689 -0.7358 -1.7421 -0.9352
12340SOL    HW237834   6.082   4.262   0.624 -0.5311  1.9788 -0.1040
12341SOL     OW37835   5.732   4.520   2.368  0.0346  0.1492 -1.2412
12341SOL    HW137836   5.749   4.427   2.382  2.1057  0.8311  1.0104
12341SOL    HW237837   5.665   4.521   2.299  0.0343 -2.9810 -1.3870
12342SOL     OW37838   0.090   7.613   7.296 -0.4066  0.3318 -0.5092
12342SOL    HW137839   0.008   7.566   7.313 -0.1368 -0.4543 -1.3369
12342SOL    HW237840   0.148   7.588   7.368 -0.5010 -0.0349 -0.5620
12343SOL     OW37841   1.661   7.913   4.963 -0.4682  0.5661  0.5393
12343SOL    HW137842   1.725   7.885   4.896 -0.5254 -0.2631  0.8269
12343SOL    HW237843   1.613   7.984   4.921 -1.2520 -0.6807 -0.7253
12344SOL     OW37844   3.865   5.897   4.036 -0.1189  0.6366  0.3432
12344SOL    HW137845   3.880   5.946   3.956 -4.0749  2.4379  0.5609
12344SOL    HW237846   3.947   5.903   4.085  0.6983  3.8335 -1.3290
12345SOL     OW37847   4.461   0.806   1.060 -0.2184  0.5997 -0.3812
12345SOL    HW137848   4.425   0.872   1.119 -2.4307 -0.1820 -0.8200
12345SOL    HW237849   4.407   0.728   1.075 -0.6087  0.2907 -3.1623
12346SOL     OW37850   4.924   0.851   6.340 -0.2567  0.7291  0.0781
12346SOL    HW137851   5.020   0.850   6.329 -0.1834  0.2112  0.7370
12346SOL    HW237852   4.890   0.812   6.260  0.1007  0.5678  0.0046
12347SOL     OW37853   4.960   2.961   7.256  0.4380  0.3893  0.5086
12347SOL    HW137854   4.995   2.962   7.167  0.6159  0.8462  0.5863
12347SOL    HW237855   4.978   3.048   7.290 -1.6824  0.9817  0.1968
12348SOL     OW37856   1.881   7.747   0.980  0.4061  0.3056 -0.4276
12348SOL    HW137857   1.890   7.799   0.901  0.3844  3.0823  1.3568
12348SOL    HW237858   1.803   7.693   0.965 -0.4001  1.8173 -1.7191
12349SOL     OW37859   3.761   3.651   7.291  0.2297 -0.1816  0.1434
12349SOL    HW137860   3.824   3.707   7.338  1.0359 -1.3648  0.5019
12349SOL    HW237861   3.689   3.640   7.353  1.1967 -1.5662  1.0575
12350SOL     OW37862   3.307   6.965   0.543  0.8880 -0.0171 -0.4228
12350SOL    HW137863   3.298   7.041   0.485  0.8756 -0.9249 -1.6267
12350SOL    HW237864   3.216   6.937   0.559  0.8460  0.7155  0.7096
12351SOL     OW37865   7.082   3.723   2.496 -0.1797 -1.1535 -0.0043
12351SOL    HW137866   7.161   3.689   2.455  0.3450  0.0111  0.0165
12351SOL    HW237867   7.015   3.657   2.479  0.2439 -1.1010 -1.9874
12352SOL     OW37868   5.260   5.369   4.850  0.2312 -0.3517  0.3035
12352SOL    HW137869   5.276   5.310   4.777  1.5990  1.2973 -0.7729
12352SOL    HW237870   5.317   5.445   4.833 -1.0981  1.0557  1.8874
12353SOL     OW37871   6.780   6.699   7.169  0.1816  0.5555  0.1733
12353SOL    HW137872   6.769   6.794   7.167  1.8205  0.7377 -0.9907
12353SOL    HW237873   6.874   6.685   7.175 -0.1392 -1.0003  1.9712
12354SOL     OW37874   1.905   0.134   3.531  0.3358 -0.5498 -0.5564
12354SOL    HW137875   1.865   0.207   3.579 -0.2748 -0.4841 -1.1679
12354SOL    HW237876   1.992   0.125   3.570 -0.7402 -1.5787  1.7207
12355SOL     OW37877   2.334   7.173   6.089  0.5853 -0.1949 -0.2551
12355SOL    HW137878   2.404   7.180   6.154  0.5246  1.1661 -0.3245
12355SOL    HW237879   2.292   7.259   6.090 -0.3518 -0.6366 -1.0457
12356SOL     OW37880   0.588   0.360   3.857 -0.4150 -0.3756 -0.7484
12356SOL    HW137881   0.540   0.278   3.872  1.3105 -1.2528  0.0576
12356SOL    HW237882   0.526   0.416   3.810 -3.1380 -0.5789  2.4053
12357SOL     OW37883   6.753   1.526   0.868  0.4898  0.5068 -0.0144
12357SOL    HW137884   6.658   1.529   0.878  0.5895  0.3101  1.1157
12357SOL    HW237885   6.767   1.500   0.777 -0.5424 -0.5142  0.1128
12358SOL     OW37886   2.492   5.303   6.056 -0.2385 -0.5028 -0.3795
12358SOL    HW137887   2.490   5.324   5.963  0.1936  0.1864 -0.2378
12358SOL    HW237888   2.575   5.339   6.087 -0.6849 -0.1502  0.4104
12359SOL     OW37889   0.032   0.940   0.135 -0.1263  0.5143 -0.1544
12359SOL    HW137890   0.058   0.945   0.043  1.0291 -1.8006  0.0204
12359SOL    HW237891  -0.062   0.923   0.133  0.3043 -1.8767 -0.9498
12360SOL     OW37892   2.527   5.910   6.426 -0.2316 -0.1159  0.1977
12360SOL    HW137893   2.477   5.870   6.355 -1.3586  0.9943  0.3676
12360SOL    HW237894   2.618   5.903   6.397 -0.5090 -1.6293 -0.3604
12361SOL     OW37895   6.139   7.781   7.377 -0.5823  0.1948 -0.0942
12361SOL    HW137896   6.070   7.726   7.340 -1.4626  0.5467  0.9762
12361SOL    HW237897   6.159   7.844   7.308  0.0606 -1.1101 -1.1332
12362SOL     OW37898   0.084   5.611   7.832  0.4516  0.6953 -0.2953
12362SOL    HW137899  -0.006   5.587   7.856  0.3779  1.0544 -0.1979
12362SOL    HW237900   0.089   5.704   7.854  1.5057  0.1956  1.6996
12363SOL     OW37901   6.380   5.830   0.025  0.0888 -0.2338  0.3821
12363SOL    HW137902   6.348   5.860  -0.059  1.6798  0.1703 -0.0991
12363SOL    HW237903   6.309   5.776   0.060 -0.6683 -0.2219 -1.1028
12364SOL     OW37904   5.701   3.999   5.081 -0.3264 -0.7195  0.2031
12364SOL    HW137905   5.672   4.071   5.025 -0.7024 -1.9301 -1.2025
12364SOL    HW237906   5.619   3.959   5.112 -0.1198 -0.0837  1.5914
12365SOL     OW37907   0.486   4.227   5.995 -0.2061  0.1246 -0.1768
12365SOL    HW137908   0.480   4.289   6.068 -1.7514  0.1904 -0.3412
12365SOL    HW237909   0.528   4.277   5.925 -0.1525  0.5480  0.1528
12366SOL     OW37910   0.193   7.482   4.538  0.1934  0.0689  0.3233
12366SOL    HW137911   0.197   7.433   4.456 -0.5138  2.0866 -0.9718
12366SOL    HW237912   0.184   7.416   4.606  1.9577 -1.7084 -1.1194
12367SOL     OW37913   3.334   7.652   2.996 -0.1389  0.0785  0.4941
12367SOL    HW137914   3.397   7.585   3.021 -1.0068 -0.2199  1.9592
12367SOL    HW237915   3.249   7.615   3.019 -0.7060  1.2446  0.3220
12368SOL     OW37916   7.808   6.584   0.563 -0.0597  0.1004 -0.3714
12368SOL    HW137917   7.771   6.656   0.512 -1.4617  0.4408  1.0585
12368SOL    HW237918   7.875   6.624   0.618  0.2162  0.0537 -0.6772
12369SOL     OW37919   5.658   5.938   4.646 -0.1130  0.1656 -0.6570
12369SOL    HW137920   5.625   5.892   4.569  1.8975 -0.6895 -1.0385
12369SOL    HW237921   5.693   5.869   4.702 -1.0290  0.8412  0.7902
12370SOL     OW37922   6.330   6.277   1.795  0.1902 -0.0760 -0.5177
12370SOL    HW137923   6.408   6.225   1.813 -0.9620 -0.8317  2.7247
12370SOL    HW237924   6.285   6.230   1.725  0.1939 -2.3598  0.9634
12371SOL     OW37925   6.010   4.547   2.944  0.4154 -0.3465  0.0725
12371SOL    HW137926   5.961   4.628   2.956  1.0516 -0.0993  1.0645
12371SOL    HW237927   5.986   4.492   3.018  1.4807 -0.2988  0.4710
12372SOL     OW37928   4.154   7.163   2.101  0.0365  0.4296  0.2814
12372SOL    HW137929   4.158   7.084   2.155 -1.1556  1.0838  1.3601
12372SOL    HW237930   4.117   7.133   2.018  2.4893 -0.7046 -0.4308
12373SOL     OW37931   6.754   2.542   1.741 -0.0966  0.9544 -0.0286
12373SOL    HW137932   6.842   2.581   1.740  0.5668 -0.4846  0.8842
12373SOL    HW237933   6.729   2.538   1.649  2.0048 -1.2670 -0.5487
12374SOL     OW37934   3.504   3.413   4.892 -0.2076 -0.0705  0.0561
12374SOL    HW137935   3.594   3.445   4.890 -0.6260  1.1445  0.1536
12374SOL    HW237936   3.467   3.443   4.809 -0.0353 -2.0361 -0.7424
12375SOL     OW37937   6.532   2.040   0.601 -0.3509  0.2640 -0.1904
12375SOL    HW137938   6.585   2.049   0.522  1.8914 -0.2912  1.1971
12375SOL    HW237939   6.510   1.947   0.604 -0.7306  0.3495 -0.3513
12376SOL     OW37940   2.154   5.008   5.144 -0.4270 -0.0775  0.0540
12376SOL    HW137941   2.240   4.966   5.149 -0.1538  0.5017  0.3270
12376SOL    HW237942   2.164   5.073   5.074 -0.9452 -0.6863 -0.5940
12377SOL     OW37943   4.240   7.600   6.887 -0.4204 -0.7106 -0.3472
12377SOL    HW137944   4.308   7.534   6.879 -0.1328 -0.2912 -1.5027
12377SOL    HW237945   4.270   7.673   6.831 -0.6975  0.4194  0.9499
12378SOL     OW37946   0.898   0.660   3.098  0.2379 -0.3727  0.1365
12378SOL    HW137947   0.868   0.592   3.038  2.8173 -0.5886 -0.9700
12378SOL    HW237948   0.931   0.612   3.174 -0.6113 -0.2055  0.6219
12379SOL     OW37949   2.478   6.092   5.276 -0.6004  0.2396 -0.0732
12379SOL    HW137950   2.558   6.122   5.317  1.5105 -0.7504 -3.2899
12379SOL    HW237951   2.462   6.005   5.313  0.7777 -0.2825 -0.7097
12380SOL     OW37952   3.599   0.066   7.120 -0.3321  0.2917  0.4640
12380SOL    HW137953   3.574   0.054   7.211 -0.9975 -0.5419  0.1886
12380SOL    HW237954   3.622  -0.022   7.090 -0.2360  0.5407 -0.2038
12381SOL     OW37955   0.242   6.424   3.791 -0.2053 -0.1845  0.1777
12381SOL    HW137956   0.203   6.430   3.704 -0.9183 -0.0564  0.5051
12381SOL    HW237957   0.245   6.514   3.823 -0.2220 -0.2642  0.4093
12382SOL     OW37958   3.282   3.534   0.554  0.4180 -0.2324  0.4682
12382SOL    HW137959   3.193   3.565   0.570  0.5234  0.1216  0.3885
12382SOL    HW237960   3.284   3.446   0.590  0.0664 -0.1998  0.5705
12383SOL     OW37961   5.758   4.155   2.110 -0.2704 -0.3345 -0.1967
12383SOL    HW137962   5.698   4.220   2.145  1.3705  0.9883  0.2318
12383SOL    HW237963   5.704   4.101   2.052 -1.8905  0.7000  0.3186
12384SOL     OW37964   4.220   3.670   5.942 -0.4757 -0.0498  0.0118
12384SOL    HW137965   4.194   3.699   5.855 -1.8105  0.2248  0.4901
12384SOL    HW237966   4.209   3.575   5.940  0.4289 -0.1509 -0.4169
12385SOL     OW37967   2.580   3.443   2.200 -0.0502 -0.0385  0.4163
12385SOL    HW137968   2.531   3.483   2.272  0.5329 -0.4631  1.0559
12385SOL    HW237969   2.604   3.517   2.143 -0.5920  0.2883  0.6124
12386SOL     OW37970   2.082   0.253   4.430 -0.4354 -0.2183 -0.3037
12386SOL    HW137971   2.100   0.339   4.393 -0.2440  0.7328  1.9980
12386SOL    HW237972   1.989   0.255   4.451 -0.6330 -0.9132 -1.0474
12387SOL     OW37973   4.815   1.325   5.842 -0.1804 -0.6037 -0.3481
12387SOL    HW137974   4.744   1.367   5.794  0.3260  0.3831 -0.2404
12387SOL    HW237975   4.819   1.236   5.805 -0.5129 -0.2061 -1.3629
12388SOL     OW37976   4.748   5.156   1.189 -0.1413 -0.0545  0.1712
12388SOL    HW137977   4.758   5.110   1.106  0.2500 -0.7365  0.5948
12388SOL    HW237978   4.825   5.130   1.241 -0.5730  0.0726  0.8862
12389SOL     OW37979   6.315   7.262   3.167  0.2646  0.6151 -0.0973
12389SOL    HW137980   6.334   7.268   3.073 -0.5119  1.2289 -0.2250
12389SOL    HW237981   6.259   7.185   3.176 -1.7783  2.0227 -0.5076
12390SOL     OW37982   5.943   4.228   1.649  0.2172 -0.0705  0.4877
12390SOL    HW137983   5.940   4.245   1.743 -0.8879 -0.4384  0.5299
12390SOL    HW237984   5.851   4.216   1.624  0.3084  2.1418 -1.0214
12391SOL     OW37985   4.378   2.561   6.108  0.2656  0.3626 -0.0073
12391SOL    HW137986   4.469   2.561   6.137 -0.2594 -1.1047  1.7206
12391SOL    HW237987   4.384   2.564   6.012  2.1589 -0.5683  0.0519
12392SOL     OW37988   1.010   6.717   6.813 -0.0753  0.2963 -0.3454
12392SOL    HW137989   1.019   6.655   6.885  1.0977  0.3591 -0.4200
12392SOL    HW237990   1.089   6.772   6.819 -0.8374  1.4379 -0.5951
12393SOL     OW37991   0.278   1.045   6.918 -0.5517  0.8717 -0.0849
12393SOL    HW137992   0.212   1.101   6.960  0.3663  2.6020 -0.8748
12393SOL    HW237993   0.230   0.997   6.851 -1.2127  1.2894  0.0866
12394SOL     OW37994   6.451   1.351   5.202 -0.0646 -0.2283 -0.0778
12394SOL    HW137995   6.509   1.325   5.130  1.6066 -0.1915  1.2190
12394SOL    HW237996   6.413   1.269   5.232  0.0055 -0.3659 -0.3606
12395SOL     OW37997   6.989   4.413   0.849 -0.8163  0.5214 -0.2728
12395SOL    HW137998   6.909   4.425   0.798 -1.4985  1.6466  1.0373
12395SOL    HW237999   6.996   4.493   0.902 -0.6333 -1.0199  2.0860
12396SOL     OW38000   7.784   2.404   0.365 -0.3088  0.0102 -0.0838
12396SOL    HW138001   7.822   2.363   0.443  1.2102  0.1865 -0.7011
12396SOL    HW238002   7.730   2.336   0.325  0.2183 -0.6028  0.2441
12397SOL     OW38003   1.632   0.065   3.956  0.0828 -0.8235 -0.6782
12397SOL    HW138004   1.628  -0.024   3.920 -1.7808 -1.6134  1.3658
12397SOL    HW238005   1.709   0.064   4.013  2.7060  0.2645 -4.0110
12398SOL     OW38006   3.538   7.620   1.646 -0.3831 -0.3571  0.4640
12398SOL    HW138007   3.502   7.668   1.720  0.2857  0.5759  0.1877
12398SOL    HW238008   3.633   7.619   1.661 -0.3293 -0.9603  0.1024
12399SOL     OW38009   3.082   0.394   4.680 -0.2597  0.2721 -0.0166
12399SOL    HW138010   3.100   0.338   4.756 -1.5763 -0.9160 -0.5685
12399SOL    HW238011   3.092   0.336   4.605  1.1699  1.4809 -0.7841
12400SOL     OW38012   1.724   0.747   4.546 -0.7536  1.1980  0.3076
12400SOL    HW138013   1.771   0.708   4.472 -0.2553  2.8256 -0.2601
12400SOL    HW238014   1.791   0.795   4.595 -1.0310 -0.0873  1.9907
12401SOL     OW38015   5.890   2.709   0.250 -0.1202 -0.3157 -0.3939
12401SOL    HW138016   5.954   2.641   0.229 -0.6528 -0.4453 -1.6304
12401SOL    HW238017   5.909   2.733   0.341 -0.2074 -2.4163  0.1865
12402SOL     OW38018   2.025   2.947   5.379  0.6477 -0.2277 -0.0023
12402SOL    HW138019   2.105   2.994   5.399  0.2370  1.1142 -1.3655
12402SOL    HW238020   2.013   2.960   5.284 -0.0756 -2.1337 -0.1890
12403SOL     OW38021   1.583   7.522   0.549  0.7785  0.3825  0.0116
12403SOL    HW138022   1.671   7.498   0.520  1.0263 -0.2878  1.2971
12403SOL    HW238023   1.537   7.439   0.560 -0.0862  0.7348 -0.8378
12404SOL     OW38024   1.719   2.604   5.990 -0.0863 -0.0218  0.0625
12404SOL    HW138025   1.707   2.661   6.066  0.0943 -1.3561  1.0951
12404SOL    HW238026   1.636   2.557   5.981 -0.0408 -0.0144 -0.4672
12405SOL     OW38027   3.235   0.446   1.194  0.3228  0.1652 -0.4787
12405SOL    HW138028   3.289   0.373   1.225  0.5549  0.4981 -0.0857
12405SOL    HW238029   3.298   0.518   1.181  0.1595  0.1703 -1.2705
12406SOL     OW38030   6.299   4.826   2.692 -0.7792  0.8185 -0.2447
12406SOL    HW138031   6.296   4.758   2.624 -1.3103  0.2281  0.3622
12406SOL    HW238032   6.225   4.806   2.749 -0.8774  1.8575 -0.0055
12407SOL     OW38033   2.623   4.585   1.407 -0.7670 -0.1483  0.2598
12407SOL    HW138034   2.614   4.678   1.428  1.2840 -0.3181  2.1300
12407SOL    HW238035   2.623   4.541   1.492  2.4130 -1.4134 -0.3053
12408SOL     OW38036   1.411   2.172   3.677 -0.0950  0.6675 -0.1562
12408SOL    HW138037   1.479   2.232   3.709  1.3180 -0.6509 -0.5883
12408SOL    HW238038   1.373   2.134   3.756 -0.3460  1.4243  0.0917
12409SOL     OW38039   6.720   2.186   3.292  0.3131 -0.3356 -0.5322
12409SOL    HW138040   6.733   2.184   3.197  1.1084  1.8670 -0.5111
12409SOL    HW238041   6.787   2.128   3.327  1.3726  0.4764 -1.2019
12410SOL     OW38042   5.754   3.225   6.388 -0.1240  0.2611 -0.0097
12410SOL    HW138043   5.817   3.240   6.458 -0.2635  2.1833 -0.2717
12410SOL    HW238044   5.761   3.302   6.332 -1.3238 -0.3979 -1.1052
12411SOL     OW38045   5.218   6.770   6.597 -0.0847  0.3581  0.3938
12411SOL    HW138046   5.235   6.790   6.505 -1.3317  0.4295  0.1697
12411SOL    HW238047   5.219   6.675   6.601 -2.7892  0.2635 -0.2632
12412SOL     OW38048   5.355   4.637   5.378 -0.1606  0.0682  0.3383
12412SOL    HW138049   5.325   4.582   5.450 -1.9136  1.4292  0.6634
12412SOL    HW238050   5.277   4.652   5.325  0.6169  1.0591 -0.5376
12413SOL     OW38051   5.496   7.088   5.084  0.5588  0.3515  0.4874
12413SOL    HW138052   5.517   7.171   5.040  1.6150 -1.4872 -2.6232
12413SOL    HW238053   5.565   7.079   5.150  0.9332  1.5425  0.2814
12414SOL     OW38054   6.318   3.874   7.358  0.1284 -0.3356 -0.1792
12414SOL    HW138055   6.399   3.898   7.314  1.1835  0.0806  1.9270
12414SOL    HW238056   6.250   3.922   7.311  1.4015  1.3019 -0.3881
12415SOL     OW38057   6.259   1.409   1.980 -0.2930  0.2270 -0.1423
12415SOL    HW138058   6.250   1.332   1.924 -0.1301  0.4227 -0.4391
12415SOL    HW238059   6.298   1.375   2.061 -1.5526 -0.2402  0.2758
12416SOL     OW38060   4.711   0.771   1.150 -0.7098 -0.1726 -0.1582
12416SOL    HW138061   4.772   0.790   1.079 -0.5316 -0.0125  0.0350
12416SOL    HW238062   4.626   0.761   1.108 -0.8731  1.3736 -0.2230
12417SOL     OW38063   7.240   7.506   6.147  0.5145 -0.5222  0.8077
12417SOL    HW138064   7.307   7.490   6.214  4.5510  1.3993 -2.5439
12417SOL    HW238065   7.194   7.422   6.139  2.7483 -2.0426  2.9947
12418SOL     OW38066   6.298   3.051   7.283 -0.0094 -0.3525 -0.5298
12418SOL    HW138067   6.297   3.052   7.187  3.9597  0.6430 -0.6393
12418SOL    HW238068   6.302   3.143   7.308 -0.0971 -0.6490  0.5841
12419SOL     OW38069   0.074   3.318   1.280  0.4504  0.2072 -0.2158
12419SOL    HW138070   0.018   3.261   1.333 -0.6508  0.7067 -0.8323
12419SOL    HW238071   0.083   3.272   1.197 -1.1205  1.2895 -1.0127
12420SOL     OW38072   7.736   7.684   2.378  0.0775  0.4705 -0.5966
12420SOL    HW138073   7.742   7.777   2.400 -1.2226  0.5570 -0.5715
12420SOL    HW238074   7.666   7.680   2.313 -1.1259 -0.7044  0.7321
12421SOL     OW38075   2.966   7.994   3.570 -0.0463  0.2185 -0.1654
12421SOL    HW138076   2.952   8.009   3.663 -0.0402 -1.5230  0.1290
12421SOL    HW238077   2.930   7.907   3.554 -1.1487  0.9731 -2.0385
12422SOL     OW38078   0.660   5.256   7.845 -0.4105 -0.5300 -0.8474
12422SOL    HW138079   0.643   5.162   7.844  1.0352 -0.8346  0.9309
12422SOL    HW238080   0.718   5.271   7.770  0.9260 -1.3879 -0.0120
12423SOL     OW38081   6.767   5.232   0.151 -0.0890  0.3951  0.1299
12423SOL    HW138082   6.752   5.315   0.105 -0.4858  1.3281  1.8661
12423SOL    HW238083   6.680   5.195   0.162  0.0004  0.1870  0.1326
12424SOL     OW38084   3.536   5.847   6.010 -0.2758 -0.0407  0.2827
12424SOL    HW138085   3.489   5.772   6.046  0.5161 -0.7342 -0.1193
12424SOL    HW238086   3.592   5.810   5.941  0.2295  0.8928  0.1812
12425SOL     OW38087   0.306   6.743   2.390  0.3330 -0.4064 -0.0644
12425SOL    HW138088   0.221   6.743   2.434 -0.2053  1.6278 -1.0807
12425SOL    HW238089   0.368   6.777   2.455  0.0914 -0.3734  0.1461
12426SOL     OW38090   7.797   2.360   2.328  0.5237  0.1799 -0.0422
12426SOL    HW138091   7.746   2.436   2.300  0.3946 -0.2411 -0.9930
12426SOL    HW238092   7.732   2.296   2.356  0.6148  0.3042  0.4482
12427SOL     OW38093   2.565   2.722   0.760 -1.2500  0.1486  0.4006
12427SOL    HW138094   2.618   2.739   0.837 -0.3377  0.5002 -0.2957
12427SOL    HW238095   2.487   2.677   0.794  0.8526 -3.1133  1.0850
12428SOL     OW38096   0.710   2.173   2.539  0.2582 -0.6681 -0.4445
12428SOL    HW138097   0.679   2.087   2.511  1.8163 -0.8370 -1.7319
12428SOL    HW238098   0.805   2.168   2.529  0.4946  0.6669  1.0192
12429SOL     OW38099   1.265   6.094   3.589 -0.1026 -0.4016  0.1647
12429SOL    HW138100   1.343   6.137   3.553 -0.5084  0.4884  0.3161
12429SOL    HW238101   1.237   6.152   3.660 -1.7349  0.0685 -0.8194
12430SOL     OW38102   4.334   5.966   2.308 -0.0079  0.0374 -0.7832
12430SOL    HW138103   4.395   6.011   2.366 -0.9777 -0.0360  0.3029
12430SOL    HW238104   4.248   5.986   2.344 -0.4893 -2.1849 -0.6545
12431SOL     OW38105   6.721   5.880   1.024  0.1136 -0.0171 -1.1762
12431SOL    HW138106   6.746   5.972   1.028  1.3858 -0.4100  0.1095
12431SOL    HW238107   6.646   5.873   1.083 -0.7789  0.4266 -2.2328
12432SOL     OW38108   4.405   6.876   1.908 -0.9937 -1.2057  0.7018
12432SOL    HW138109   4.464   6.924   1.965 -0.8492 -4.0576  3.0531
12432SOL    HW238110   4.331   6.853   1.964 -2.9938 -0.2564 -1.4405
12433SOL     OW38111   0.235   5.472   6.549  0.2767  0.2247  0.8322
12433SOL    HW138112   0.300   5.541   6.561 -1.0201  1.3977  1.2487
12433SOL    HW238113   0.277   5.394   6.584  1.5166  0.9304  0.9593
12434SOL     OW38114   3.270   7.734   6.583 -0.0386  0.0463 -0.1281
12434SOL    HW138115   3.286   7.641   6.595 -1.2457 -0.1693 -0.0526
12434SOL    HW238116   3.263   7.770   6.671  1.1064  0.3453 -0.1492
12435SOL     OW38117   7.562   6.834   1.975  0.1442  0.5572 -0.5827
12435SOL    HW138118   7.653   6.830   2.006  0.6317  1.1035 -1.9099
12435SOL    HW238119   7.570   6.855   1.882 -1.3707  1.2183 -0.5673
12436SOL     OW38120   6.203   3.132   7.629 -0.5794 -0.3284 -0.2481
12436SOL    HW138121   6.288   3.174   7.630 -0.4050 -0.6890  0.4167
12436SOL    HW238122   6.220   3.043   7.661 -0.9965 -0.7884 -1.2972
12437SOL     OW38123   1.452   1.927   3.483  0.3971 -0.0633 -0.3152
12437SOL    HW138124   1.408   1.959   3.561 -0.1639  0.1662 -0.7234
12437SOL    HW238125   1.382   1.915   3.419  1.0359  1.2307 -1.2831
12438SOL     OW38126   0.582   5.270   3.096 -0.0610  0.7765  0.1491
12438SOL    HW138127   0.627   5.206   3.152 -0.5888 -0.2518 -0.5803
12438SOL    HW238128   0.522   5.315   3.155  0.4562  0.7361  0.7130
12439SOL     OW38129   5.016   7.336   5.759  0.2062  0.1799 -0.1811
12439SOL    HW138130   5.061   7.257   5.729  0.1208 -0.2901  0.9063
12439SOL    HW238131   4.964   7.365   5.683  0.6153 -0.5246 -0.7314
12440SOL     OW38132   1.991   6.069   4.607 -0.0205  0.4987  0.1771
12440SOL    HW138133   1.907   6.035   4.635 -0.5238  2.4033  1.0224
12440SOL    HW238134   1.998   6.155   4.648  2.7933 -0.0460  0.9816
12441SOL     OW38135   7.390   1.716   4.393 -0.3560  0.0401  0.4271
12441SOL    HW138136   7.453   1.655   4.432  1.0283 -0.1507 -1.9609
12441SOL    HW238137   7.375   1.681   4.305  0.9867  3.4200 -1.2734
12442SOL     OW38138   4.349   5.500   4.324 -0.3123  0.4907  0.4431
12442SOL    HW138139   4.313   5.588   4.327  0.3416  0.7679  0.0807
12442SOL    HW238140   4.392   5.489   4.409 -0.4860  0.4761  0.5306
12443SOL     OW38141   1.790   2.460   6.736 -0.1053  0.1475  0.1598
12443SOL    HW138142   1.835   2.377   6.752  0.3502  0.4442  0.4299
12443SOL    HW238143   1.809   2.480   6.644  1.1910  0.7914  0.5517
12444SOL     OW38144   4.239   2.002   6.321 -0.5453  0.2372 -0.5288
12444SOL    HW138145   4.248   2.046   6.406  1.2796  1.7119 -1.4645
12444SOL    HW238146   4.235   1.909   6.344 -1.4559  0.6822  1.2606
12445SOL     OW38147   7.726   0.589   2.135  0.0127  0.1503  0.3495
12445SOL    HW138148   7.733   0.521   2.068 -0.4492  0.3533  0.0917
12445SOL    HW238149   7.783   0.559   2.205 -0.1861 -0.5101  0.2362
12446SOL     OW38150   3.339   2.656   6.806  1.0038  0.1638 -0.2178
12446SOL    HW138151   3.382   2.576   6.776  3.0777  1.0041  0.4576
12446SOL    HW238152   3.323   2.642   6.899  1.4433  0.5642 -0.0798
12447SOL     OW38153   6.531   0.146   0.094  0.1094  0.2761 -0.0425
12447SOL    HW138154   6.573   0.168   0.177 -0.8147  1.4853  0.1267
12447SOL    HW238155   6.601   0.108   0.040  0.5533 -1.1749  1.5301
12448SOL     OW38156   6.117   5.116   3.476  0.6471  0.7218 -0.1390
12448SOL    HW138157   6.182   5.070   3.422  0.4036  0.4987 -0.2413
12448SOL    HW238158   6.043   5.056   3.480  0.5640  0.8514  0.2299
12449SOL     OW38159   7.982   2.345   2.150 -0.5216 -0.4650  0.3020
12449SOL    HW138160   7.922   2.359   2.223 -0.3421 -2.4435  0.8638
12449SOL    HW238161   7.926   2.316   2.078 -0.6468  1.0741 -0.2401
12450SOL     OW38162   5.473   1.753   3.623  0.2848  0.0100 -0.0537
12450SOL    HW138163   5.545   1.758   3.686  1.3291 -2.4573 -0.9961
12450SOL    HW238164   5.489   1.672   3.575 -2.4928  0.0182 -1.0699
12451SOL     OW38165   0.218   3.772   1.723  0.0361  0.4679 -0.2690
12451SOL    HW138166   0.283   3.816   1.668 -1.5596  1.7519 -1.2053
12451SOL    HW238167   0.257   3.771   1.810  1.1910  1.4810 -0.7546
12452SOL     OW38168   3.569   0.118   2.292  0.2932 -0.1930 -0.3281
12452SOL    HW138169   3.647   0.141   2.241  0.1385  0.2159 -0.3858
12452SOL    HW238170   3.512   0.195   2.284  0.5799  0.1723  1.0772
12453SOL     OW38171   4.069   2.819   4.602 -0.2234  0.1003 -0.6320
12453SOL    HW138172   4.062   2.728   4.572  0.1738  0.4484 -1.8016
12453SOL    HW238173   4.159   2.843   4.582 -0.0077  0.4188  0.6659
12454SOL     OW38174   0.065   3.629   0.481 -0.7083  0.1997  0.1241
12454SOL    HW138175   0.034   3.701   0.426  0.5712  1.1660  0.6577
12454SOL    HW238176   0.141   3.664   0.526  0.5587 -1.8027 -0.3777
12455SOL     OW38177   1.243   4.812   2.577  0.2031 -0.6387 -0.7272
12455SOL    HW138178   1.191   4.748   2.625 -0.0799  0.9059  1.0689
12455SOL    HW238179   1.318   4.830   2.634  0.6468  0.1029 -1.5342
12456SOL     OW38180   4.455   3.401   4.303 -0.1220 -0.2334  0.2856
12456SOL    HW138181   4.514   3.373   4.233  0.1962 -0.5308  0.6716
12456SOL    HW238182   4.501   3.378   4.384 -0.8235 -0.5802  0.5886
12457SOL     OW38183   1.061   6.405   1.124  0.1300 -0.1640 -0.4701
12457SOL    HW138184   1.056   6.317   1.162 -1.7292 -0.6622 -1.8109
12457SOL    HW238185   1.070   6.463   1.200 -0.7612 -1.3551  0.5784
12458SOL     OW38186   4.715   2.619   3.530  0.5299  0.2465 -0.0221
12458SOL    HW138187   4.695   2.628   3.437  0.1100  0.4029  0.0823
12458SOL    HW238188   4.643   2.566   3.565  1.5076 -1.1681 -0.0838
12459SOL     OW38189   6.615   3.605   0.381 -0.1132 -0.1307  0.3135
12459SOL    HW138190   6.643   3.645   0.299  0.2916 -0.8287  0.1046
12459SOL    HW238191   6.692   3.609   0.437 -0.1142 -0.4693  0.3435
12460SOL     OW38192   6.257   4.756   2.250  0.1222  0.5505  0.2282
12460SOL    HW138193   6.227   4.701   2.322  0.3380  0.0247 -0.0799
12460SOL    HW238194   6.186   4.820   2.238 -0.5075 -0.1675  0.0547
12461SOL     OW38195   4.280   6.519   0.721 -0.3106  0.0616 -0.0630
12461SOL    HW138196   4.350   6.469   0.763  1.3648  1.4871 -1.1004
12461SOL    HW238197   4.247   6.576   0.790  0.7997  0.6861 -0.0366
12462SOL     OW38198   0.458   0.759   4.582 -0.1001  0.0316 -0.1874
12462SOL    HW138199   0.366   0.737   4.566  0.2501 -0.8597 -1.0397
12462SOL    HW238200   0.507   0.705   4.519  1.0855 -0.4402  1.1013
12463SOL     OW38201   1.940   5.622   4.634 -0.0549 -0.1011  0.2524
12463SOL    HW138202   2.012   5.674   4.598  1.2118 -1.7906  0.2510
12463SOL    HW238203   1.884   5.603   4.559  0.5854 -0.4484 -0.1507
12464SOL     OW38204   2.905   7.624   4.915  0.1673  0.3255  0.4428
12464SOL    HW138205   2.902   7.672   4.998 -1.2028  2.4421 -0.7950
12464SOL    HW238206   2.995   7.636   4.883  0.1377  1.2017  0.6682
12465SOL     OW38207   1.686   3.609   5.248 -0.1819 -0.2665 -0.8556
12465SOL    HW138208   1.701   3.667   5.173  1.7216  0.9575  0.4667
12465SOL    HW238209   1.724   3.654   5.323 -0.7416 -2.1591  0.6204
12466SOL     OW38210   7.973   3.869   1.777 -0.1939  0.4020 -0.5853
12466SOL    HW138211   7.984   3.963   1.787  0.4792  0.4748 -1.9100
12466SOL    HW238212   8.062   3.836   1.763 -0.6062 -0.2193 -1.7856
12467SOL     OW38213   6.924   7.518   6.888  0.3266  0.3287 -0.3215
12467SOL    HW138214   6.982   7.532   6.813  1.3374  1.1216  0.5946
12467SOL    HW238215   6.895   7.427   6.880  1.6278 -0.0427 -0.8394
12468SOL     OW38216   7.475   0.151   3.615 -0.0254  0.8907  0.4424
12468SOL    HW138217   7.554   0.119   3.658  1.3070  0.1205 -2.4622
12468SOL    HW238218   7.406   0.091   3.643  1.5226 -1.7568 -1.2614
12469SOL     OW38219   3.581   5.181   4.455 -0.0226 -0.1106 -0.1050
12469SOL    HW138220   3.538   5.251   4.504 -0.8937 -1.1833  0.7050
12469SOL    HW238221   3.674   5.193   4.472 -0.2553  0.0717  1.0902
12470SOL     OW38222   0.633   2.550   2.137  0.3272  0.2110 -0.4456
12470SOL    HW138223   0.545   2.531   2.105  0.8722 -0.0513 -1.8059
12470SOL    HW238224   0.650   2.481   2.201 -1.1689  1.3385  1.2351
12471SOL     OW38225   3.570   4.911   5.267  0.9163 -0.2055  0.0216
12471SOL    HW138226   3.507   4.982   5.252 -0.0879 -0.6432  1.9937
12471SOL    HW238227   3.656   4.951   5.251  0.1756  0.5502 -2.1053
12472SOL     OW38228   5.540   6.389   6.596 -0.0597 -0.0340  0.2382
12472SOL    HW138229   5.549   6.409   6.502  1.7888  1.0240  0.6290
12472SOL    HW238230   5.532   6.294   6.598  0.5900 -0.1359 -0.9627
12473SOL     OW38231   4.525   4.682   4.804 -0.2323  0.2527  0.2090
12473SOL    HW138232   4.526   4.588   4.783 -0.7402 -0.1026  1.7359
12473SOL    HW238233   4.509   4.685   4.898 -2.7581  1.9588 -0.2500
12474SOL     OW38234   0.255   4.880   5.567  0.0016 -0.3805  0.5743
12474SOL    HW138235   0.265   4.962   5.519  0.8551 -0.5781  0.4082
12474SOL    HW238236   0.301   4.896   5.650  1.9961 -1.3912 -0.3049
12475SOL     OW38237   4.800   2.401   1.077  0.5214  0.4602 -0.0987
12475SOL    HW138238   4.732   2.360   1.130 -0.4196  1.8055 -0.2258
12475SOL    HW238239   4.801   2.492   1.106 -0.8239  1.5121 -3.1469
12476SOL     OW38240   3.490   1.629   7.670 -0.0495 -0.2576  0.4187
12476SOL    HW138241   3.503   1.721   7.645  0.7390 -0.5154 -0.1376
12476SOL    HW238242   3.482   1.583   7.586 -0.3271 -0.7131  0.6978
12477SOL     OW38243   6.286   4.050   0.614 -0.1844  0.7455  0.2939
12477SOL    HW138244   6.311   4.136   0.580  1.3781  0.0541 -0.3670
12477SOL    HW238245   6.227   4.014   0.547  0.1280  0.8058 -0.0141
12478SOL     OW38246   5.204   7.089   0.956  0.3698  0.2373 -0.7266
12478SOL    HW138247   5.207   7.002   0.916  1.2568 -0.4980  0.8985
12478SOL    HW238248   5.288   7.130   0.932  1.0802 -0.3597  0.6834
12479SOL     OW38249   6.009   2.034   7.711 -0.0388 -0.2241  0.3892
12479SOL    HW138250   6.078   1.972   7.688 -2.0414 -1.6051 -2.1690
12479SOL    HW238251   6.012   2.100   7.642 -0.8505  0.0792  0.6372
12480SOL     OW38252   7.835   2.954   4.496 -0.2300 -0.6851 -0.2512
12480SOL    HW138253   7.766   2.939   4.561 -1.5091  0.9596 -1.1886
12480SOL    HW238254   7.790   2.942   4.412  0.7596 -0.0573 -0.8704
12481SOL     OW38255   2.055   0.538   2.598  0.3196  0.3204  0.5627
12481SOL    HW138256   2.099   0.455   2.580  0.8264  0.3369  1.7262
12481SOL    HW238257   2.124   0.595   2.633 -0.4649  0.5860  1.6809
12482SOL     OW38258   7.460   0.645   1.732  0.5339  0.6835 -0.1339
12482SOL    HW138259   7.490   0.670   1.820  0.6298 -0.8822  0.2867
12482SOL    HW238260   7.539   0.615   1.687  0.0225 -1.1824  0.1853
12483SOL     OW38261   4.787   7.693   0.590 -0.4015  0.3224  0.5297
12483SOL    HW138262   4.745   7.743   0.521 -2.4988  0.1928  1.6679
12483SOL    HW238263   4.815   7.612   0.547  1.3659  1.6787 -0.9007
12484SOL     OW38264   4.270   3.420   6.871 -0.5242  0.3022 -0.3054
12484SOL    HW138265   4.203   3.467   6.821  0.4868  1.7116 -0.3830
12484SOL    HW238266   4.308   3.487   6.929  0.2424 -0.6632  0.3212
12485SOL     OW38267   0.840   2.718   7.235  0.0465 -0.0318 -0.7739
12485SOL    HW138268   0.896   2.651   7.194  1.6869  0.4302  0.6421
12485SOL    HW238269   0.896   2.758   7.301 -1.3160  1.9132 -0.7614
12486SOL     OW38270   2.316   0.040   5.913 -0.0637 -0.4296  0.4406
12486SOL    HW138271   2.280  -0.044   5.941 -0.5133 -0.3377  0.1451
12486SOL    HW238272   2.272   0.058   5.830 -0.9411  0.7421  1.1547
12487SOL     OW38273   3.331   3.934   0.619  0.5616  0.0399 -0.1487
12487SOL    HW138274   3.347   3.879   0.542  0.0129 -0.2300 -0.0721
12487SOL    HW238275   3.281   4.008   0.586 -0.3479 -0.4624  0.0743
12488SOL     OW38276   6.894   1.667   2.475  0.3927  0.2008  0.3954
12488SOL    HW138277   6.988   1.658   2.489  0.2690 -0.3623  0.8613
12488SOL    HW238278   6.876   1.617   2.396  0.4583  0.1903  0.3871
12489SOL     OW38279   2.248   2.230   7.514  0.1137  0.1168  0.3647
12489SOL    HW138280   2.226   2.227   7.607 -0.5019 -1.6001  0.1825
12489SOL    HW238281   2.197   2.159   7.475 -1.4826  2.3436 -1.6927
12490SOL     OW38282   5.070   7.191   1.304 -0.0033  0.5514 -0.0178
12490SOL    HW138283   5.156   7.220   1.274  1.1322  0.8850  3.2848
12490SOL    HW238284   5.018   7.180   1.224  3.3249 -0.4130 -2.1430
12491SOL     OW38285   0.020   2.937   5.795 -0.3674  0.3054 -0.1891
12491SOL    HW138286   0.114   2.945   5.779 -0.2859 -0.2138  0.0268
12491SOL    HW238287  -0.019   2.941   5.708 -0.0855 -0.3116 -0.3458
12492SOL     OW38288   3.393   5.288   0.105 -0.2245  0.0234 -0.2250
12492SOL    HW138289   3.415   5.284   0.198 -0.0046  2.3788 -0.1377
12492SOL    HW238290   3.478   5.290   0.060 -0.2244  3.3396 -0.1976
12493SOL     OW38291   1.746   7.946   2.728  0.5650 -0.1730  0.0213
12493SOL    HW138292   1.679   7.889   2.691  0.0656 -0.2332  1.0037
12493SOL    HW238293   1.697   8.012   2.778  1.2002  0.2427  0.1056
12494SOL     OW38294   3.255   4.119   5.273  0.3180 -0.0168 -0.6517
12494SOL    HW138295   3.259   4.203   5.226 -1.1545 -0.8603 -2.3507
12494SOL    HW238296   3.332   4.120   5.330  0.2729  2.5210 -0.5741
12495SOL     OW38297   6.108   3.778   4.235  0.2000 -0.3033  0.5150
12495SOL    HW138298   6.091   3.850   4.296  0.1307  0.3847 -0.3062
12495SOL    HW238299   6.155   3.818   4.162 -0.7888 -0.8759 -0.4589
12496SOL     OW38300   3.909   3.149   3.791  0.6307 -0.4768  0.2114
12496SOL    HW138301   3.906   3.160   3.697 -0.0658  0.9067  0.3926
12496SOL    HW238302   3.951   3.228   3.824 -2.0405  0.5485  1.3019
12497SOL     OW38303   3.809   5.892   5.248  0.6686 -0.0873 -0.6539
12497SOL    HW138304   3.877   5.824   5.247 -0.0433 -0.8092 -0.9168
12497SOL    HW238305   3.757   5.874   5.169 -0.9199 -0.6816  0.5015
12498SOL     OW38306   2.868   7.705   2.526  0.1392 -0.2346 -0.5377
12498SOL    HW138307   2.813   7.640   2.568 -2.0412  0.3126 -2.4414
12498SOL    HW238308   2.927   7.735   2.595 -1.3424 -1.4850  1.3245
12499SOL     OW38309   5.976   5.462   7.510  0.1974 -0.3831 -0.3435
12499SOL    HW138310   5.966   5.476   7.605  0.9459 -0.6079 -0.2245
12499SOL    HW238311   5.894   5.494   7.472  0.4372  1.0109  0.2562
12500SOL     OW38312   6.329   4.378   7.843  0.2335 -0.6120  0.5014
12500SOL    HW138313   6.331   4.331   7.759  0.9589  1.0773 -0.4413
12500SOL    HW238314   6.419   4.371   7.876  1.1854  2.7598 -1.1673
12501SOL     OW38315   5.105   7.742   7.444 -0.0971  0.6949  0.2195
12501SOL    HW138316   5.185   7.745   7.392 -0.1725 -1.3476 -0.0677
12501SOL    HW238317   5.050   7.811   7.408 -0.2163 -0.7764 -2.6015
12502SOL     OW38318   1.127   2.787   1.193  0.3562  0.0229 -0.2590
12502SOL    HW138319   1.111   2.848   1.265 -0.5427  2.1818 -2.2201
12502SOL    HW238320   1.212   2.747   1.213 -0.2573 -0.0496  2.3845
12503SOL     OW38321   5.352   6.248   1.813 -0.6268  0.4884  0.7153
12503SOL    HW138322   5.424   6.310   1.801 -1.7711  1.7861  0.4282
12503SOL    HW238323   5.276   6.303   1.833 -2.4380 -0.5468 -2.9191
12504SOL     OW38324   2.681   7.755   7.134 -0.1918  0.5475 -0.1470
12504SOL    HW138325   2.616   7.714   7.190 -0.3188  0.3828 -0.4138
12504SOL    HW238326   2.762   7.754   7.186  0.0492 -0.9332 -0.5324
12505SOL     OW38327   5.554   1.757   5.473 -0.0407 -0.2107  0.0455
12505SOL    HW138328   5.534   1.666   5.452  0.8542 -0.5319  0.5958
12505SOL    HW238329   5.649   1.761   5.479 -0.0024  0.9937 -1.0275
12506SOL     OW38330   7.665   5.880   4.879 -0.2766  0.0521  0.1811
12506SOL    HW138331   7.715   5.923   4.810 -1.6332  1.4262  0.0104
12506SOL    HW238332   7.595   5.942   4.900 -1.9300 -1.8150  0.3737
12507SOL     OW38333   6.898   0.523   4.859  0.2616  0.1817 -0.0307
12507SOL    HW138334   6.821   0.480   4.895  0.4259  0.3597  0.5499
12507SOL    HW238335   6.902   0.607   4.906  2.5698 -1.1285  2.2174
12508SOL     OW38336   3.368   1.304   7.785 -0.2260  0.2692 -0.4574
12508SOL    HW138337   3.408   1.379   7.827 -0.2981 -0.4324  0.9079
12508SOL    HW238338   3.398   1.307   7.695  0.3404  1.5221 -0.2296
12509SOL     OW38339   1.728   1.624   7.189  0.3794  0.4358 -0.5843
12509SOL    HW138340   1.669   1.575   7.132 -1.8692 -0.7568  2.6504
12509SOL    HW238341   1.702   1.715   7.179 -2.2976 -0.1049  1.0152
12510SOL     OW38342   3.224   1.164   2.237  0.6730  0.4044 -0.3143
12510SOL    HW138343   3.180   1.129   2.315 -0.4176  1.7129 -0.3112
12510SOL    HW238344   3.278   1.092   2.205 -1.1519 -1.1122 -0.0577
12511SOL     OW38345   2.694   3.806   6.951  0.6823  0.0228 -0.2874
12511SOL    HW138346   2.729   3.745   7.016 -0.3714  0.2470  0.5040
12511SOL    HW238347   2.661   3.880   7.003 -1.8165 -0.5920 -0.9073
12512SOL     OW38348   3.376   3.011   0.063  0.0374 -0.0411  0.0177
12512SOL    HW138349   3.292   3.041   0.027 -1.5155 -0.7100  2.9291
12512SOL    HW238350   3.377   3.044   0.153  2.1277 -1.5090  0.5655
12513SOL     OW38351   2.567   3.251   7.177  0.1426  0.3864 -0.4241
12513SOL    HW138352   2.476   3.240   7.146 -0.0020 -0.0692  0.1518
12513SOL    HW238353   2.577   3.345   7.190 -0.9202  0.2461  1.5282
12514SOL     OW38354   4.700   2.960   3.141  0.1612  0.2939  0.5496
12514SOL    HW138355   4.655   3.044   3.132 -1.1616 -0.4800 -0.1511
12514SOL    HW238356   4.673   2.910   3.064  0.0623 -1.1805  1.5332
12515SOL     OW38357   4.142   0.046   4.726 -0.5750 -0.0297  0.0880
12515SOL    HW138358   4.147   0.083   4.637  0.0425 -0.9551 -0.2688
12515SOL    HW238359   4.054   0.008   4.731 -1.0236  1.0146  0.2751
12516SOL     OW38360   1.302   0.828   2.419  0.0062  0.4391  0.0450
12516SOL    HW138361   1.270   0.897   2.477 -2.6494  0.7913 -1.7482
12516SOL    HW238362   1.287   0.747   2.468 -0.2454  0.8807  0.7007
12517SOL     OW38363   4.001   1.566   4.612  0.5922  0.1526 -0.1142
12517SOL    HW138364   4.084   1.596   4.649  1.1996 -1.1289 -0.4029
12517SOL    HW238365   4.026   1.517   4.533 -0.5789  1.4456 -1.3057
12518SOL     OW38366   2.112   1.924   6.466  0.4143  0.4000  0.3691
12518SOL    HW138367   2.182   1.885   6.413 -1.6996 -2.8807 -0.1112
12518SOL    HW238368   2.050   1.853   6.480 -2.4005  3.0023  1.5749
12519SOL     OW38369   3.919   6.458   7.366  0.2596 -0.0318  0.0869
12519SOL    HW138370   3.975   6.535   7.377  1.8280 -0.9058 -1.4944
12519SOL    HW238371   3.866   6.478   7.289  0.0866 -0.2042  0.1617
12520SOL     OW38372   0.240   0.814   0.570 -0.4744  0.5050 -0.0475
12520SOL    HW138373   0.247   0.800   0.476  0.2642  0.6374 -0.0115
12520SOL    HW238374   0.207   0.731   0.604  0.1906  0.1340 -0.3032
12521SOL     OW38375   5.417   5.715   7.558 -0.7496 -0.3786  0.1063
12521SOL    HW138376   5.392   5.685   7.470 -0.7262 -0.1013  0.0031
12521SOL    HW238377   5.355   5.786   7.577  1.5592  2.1524 -1.2631
12522SOL     OW38378   1.050   3.476   2.688  0.3963  0.0762  0.6266
12522SOL    HW138379   1.008   3.392   2.703  0.6457 -0.1258  0.1898
12522SOL    HW238380   0.985   3.528   2.642  0.1936  0.1678  1.0178
12523SOL     OW38381   3.543   3.439   3.025  0.2204  0.8066 -0.1627
12523SOL    HW138382   3.622   3.399   2.989  0.4777  0.8221  0.3768
12523SOL    HW238383   3.562   3.449   3.118 -0.6016  0.3770  0.0522
12524SOL     OW38384   2.138   1.660   7.464  0.6283 -0.0387 -0.2284
12524SOL    HW138385   2.157   1.587   7.404  0.4478 -0.3169  0.0511
12524SOL    HW238386   2.224   1.692   7.490  0.7127 -0.2966 -0.1801
12525SOL     OW38387   6.528   4.951   3.560  0.0678  0.6023  0.4289
12525SOL    HW138388   6.447   4.984   3.598 -1.3278 -0.2454 -1.7167
12525SOL    HW238389   6.596   4.976   3.623 -1.6145  2.8610  1.4186
12526SOL     OW38390   0.692   2.463   2.909  0.0549 -0.0235  0.6104
12526SOL    HW138391   0.611   2.511   2.930  1.2395  1.8703  0.9359
12526SOL    HW238392   0.747   2.476   2.986  1.6964  0.9534 -0.7141
12527SOL     OW38393   7.983   3.840   7.716 -0.1003  0.9571 -0.3809
12527SOL    HW138394   8.025   3.925   7.701 -0.0385  0.5345 -2.7317
12527SOL    HW238395   8.035   3.778   7.665 -1.5896 -0.1180 -0.6320
12528SOL     OW38396   4.576   3.038   7.630 -0.0315 -0.2985  0.4413
12528SOL    HW138397   4.661   3.079   7.642 -0.5194  0.2318  2.2647
12528SOL    HW238398   4.543   3.024   7.719 -1.1215 -2.0287 -0.2043
12529SOL     OW38399   3.492   2.554   1.595  0.2222  0.1013  0.4642
12529SOL    HW138400   3.430   2.605   1.647 -1.4561  0.0195 -1.3686
12529SOL    HW238401   3.545   2.620   1.550 -1.3657  0.2845 -1.2211
12530SOL     OW38402   7.654   4.410   7.020 -0.2121  0.3887 -1.1590
12530SOL    HW138403   7.630   4.352   7.092  0.0194  0.5817 -0.9276
12530SOL    HW238404   7.576   4.411   6.964 -1.1357  1.7638  0.0851
12531SOL     OW38405   3.888   0.789   4.850  0.0109  0.3401  0.1082
12531SOL    HW138406   3.961   0.728   4.853 -0.0995  0.2369  0.8563
12531SOL    HW238407   3.813   0.736   4.822  0.2089  0.4295 -0.5803
12532SOL     OW38408   2.691   5.650   0.331 -0.2448 -0.3748  0.1946
12532SOL    HW138409   2.778   5.613   0.316  1.1696  2.4905  1.0547
12532SOL    HW238410   2.648   5.586   0.388  0.9845 -2.2130 -0.8747
12533SOL     OW38411   5.475   2.386   0.110  0.2670  0.0058  0.3720
12533SOL    HW138412   5.526   2.306   0.098 -0.4326 -0.8579  2.8387
12533SOL    HW238413   5.494   2.439   0.032  3.3241 -1.1439  0.2770
12534SOL     OW38414   1.084   3.392   3.608 -0.0560 -0.0344 -0.2448
12534SOL    HW138415   1.081   3.364   3.516 -0.2932 -0.3470 -0.1438
12534SOL    HW238416   1.072   3.487   3.604  1.1027  0.1062 -0.6094
12535SOL     OW38417   1.037   7.670   1.141 -0.1408  0.2045  0.6099
12535SOL    HW138418   1.089   7.682   1.221  0.5287  0.5732  0.1236
12535SOL    HW238419   1.076   7.594   1.098 -1.2888 -0.7611  1.2476
12536SOL     OW38420   4.881   3.648   4.339  0.2210  0.1364 -0.7186
12536SOL    HW138421   4.834   3.635   4.421 -0.3013 -0.2876 -1.0716
12536SOL    HW238422   4.824   3.607   4.273  0.2250  1.2016 -1.3991
12537SOL     OW38423   7.112   7.800   6.687  0.0723  0.1796  0.1219
12537SOL    HW138424   7.192   7.748   6.691 -0.3636 -0.6787 -1.5104
12537SOL    HW238425   7.132   7.869   6.624 -0.2650  0.2975  0.1458
12538SOL     OW38426   4.078   0.054   0.656  0.1470  0.5121 -0.1104
12538SOL    HW138427   3.984   0.062   0.642 -0.5897 -0.1738  3.9088
12538SOL    HW238428   4.099  -0.036   0.632 -0.3224  0.4934 -0.4460
12539SOL     OW38429   0.763   1.299   2.026  0.0357  0.0640 -0.6173
12539SOL    HW138430   0.819   1.222   2.031  0.2450  0.3611  2.2851
12539SOL    HW238431   0.812   1.361   1.972  1.7566 -0.3215  0.4465
12540SOL     OW38432   6.949   7.041   5.198  0.2095  0.0579  0.1297
12540SOL    HW138433   6.933   6.960   5.246 -1.1573 -0.2174 -0.7422
12540SOL    HW238434   6.995   7.014   5.119 -0.5156  0.0800 -0.3082
12541SOL     OW38435   2.666   1.698   7.595 -0.3056  0.0324  0.3630
12541SOL    HW138436   2.721   1.636   7.547 -0.1278  1.7068 -1.6278
12541SOL    HW238437   2.710   1.708   7.680  0.3421 -1.6054  0.2362
12542SOL     OW38438   6.479   5.310   2.008 -0.3293  0.1148 -0.1009
12542SOL    HW138439   6.388   5.336   2.020  0.4400  2.2280  1.4808
12542SOL    HW238440   6.494   5.319   1.914 -1.5630  0.3889 -0.2828
12543SOL     OW38441   7.196   1.650   6.327  1.2579  0.3162  0.0186
12543SOL    HW138442   7.152   1.650   6.412 -0.1290  1.4545 -0.6727
12543SOL    HW238443   7.125   1.656   6.264  2.1912 -1.9697 -1.3024
12544SOL     OW38444   6.885   3.087   0.333 -0.0556  0.6474 -0.5694
12544SOL    HW138445   6.936   3.139   0.272  0.2097 -0.3057 -1.1752
12544SOL    HW238446   6.797   3.124   0.329  0.3920  1.7928 -0.1004
12545SOL     OW38447   7.814   2.698   2.205 -0.1593  0.2984 -0.3071
12545SOL    HW138448   7.819   2.792   2.185 -2.4126  0.4780 -0.0944
12545SOL    HW238449   7.740   2.691   2.266  0.8875 -1.4392  0.7940
12546SOL     OW38450   3.501   4.131   3.372  0.1384  0.0497 -0.3208
12546SOL    HW138451   3.533   4.189   3.442 -1.5340 -0.2266  0.7074
12546SOL    HW238452   3.411   4.159   3.357 -0.0768 -1.0458 -1.1385
12547SOL     OW38453   3.608   1.159   6.704 -0.2953 -0.3477 -0.2432
12547SOL    HW138454   3.604   1.251   6.677 -1.2016 -0.6107 -0.9848
12547SOL    HW238455   3.518   1.136   6.725 -0.1165 -1.1704 -0.3747
12548SOL     OW38456   4.572   1.591   5.441  0.0403  0.7023 -0.1519
12548SOL    HW138457   4.591   1.685   5.436  0.7781  0.6873  1.9277
12548SOL    HW238458   4.487   1.581   5.398  0.1799  2.2394 -0.8250
12549SOL     OW38459   0.781   6.454   3.418  0.0351  0.0331  0.4657
12549SOL    HW138460   0.811   6.506   3.492  1.6729  0.6442 -0.5870
12549SOL    HW238461   0.841   6.380   3.414  0.3377  0.3218 -0.6064
12550SOL     OW38462   7.144   4.901   7.822  0.0446 -0.2588  0.4661
12550SOL    HW138463   7.086   4.890   7.746  0.1938  0.0793  0.3002
12550SOL    HW238464   7.092   4.951   7.885  0.4493  0.8118 -0.0299
12551SOL     OW38465   5.002   7.539   5.998 -0.3565 -0.1661  0.0629
12551SOL    HW138466   4.990   7.593   5.920 -0.3393 -0.2462  0.0057
12551SOL    HW238467   4.932   7.474   5.995  0.7843 -1.3855 -0.9020
12552SOL     OW38468   7.601   2.579   5.315 -0.3189 -0.7201 -0.0846
12552SOL    HW138469   7.651   2.537   5.245 -1.6869 -0.7721 -1.0439
12552SOL    HW238470   7.632   2.669   5.316 -2.3690  0.0768 -2.7748
12553SOL     OW38471   7.017   6.594   7.250  0.4762 -0.1067 -0.6194
12553SOL    HW138472   7.034   6.552   7.165  1.0414 -0.9003 -0.1213
12553SOL    HW238473   7.055   6.534   7.314 -0.9342 -0.0577  0.2749
12554SOL     OW38474   5.889   4.346   4.123 -0.1024 -0.2520  0.4531
12554SOL    HW138475   5.893   4.258   4.160  0.7851  0.3936  1.9419
12554SOL    HW238476   5.803   4.350   4.080 -0.2980 -1.7104  0.6895
12555SOL     OW38477   3.137   6.167   3.149  0.0654 -0.4394  0.1255
12555SOL    HW138478   3.143   6.176   3.245  1.9977 -1.4012  0.1283
12555SOL    HW238479   3.077   6.094   3.136  0.4378 -0.8485  0.6454
12556SOL     OW38480   6.324   2.003   1.913 -0.4111 -0.0495  0.4643
12556SOL    HW138481   6.414   2.032   1.925 -0.8604  0.8980  1.6502
12556SOL    HW238482   6.305   1.952   1.992 -0.6544 -0.9392 -0.1582
12557SOL     OW38483   7.813   5.336   3.348 -0.4292  0.1872  0.0260
12557SOL    HW138484   7.792   5.427   3.325 -0.9677 -0.0788 -0.5627
12557SOL    HW238485   7.908   5.330   3.340 -0.6367 -0.0232 -2.6300
12558SOL     OW38486   2.000   3.795   5.204 -0.0124  0.2178 -0.0595
12558SOL    HW138487   1.929   3.828   5.150 -0.0109 -0.2980 -0.3743
12558SOL    HW238488   1.958   3.736   5.267  0.1859 -0.3916 -0.4966
12559SOL     OW38489   4.388   1.701   1.432 -0.1965  0.5715 -0.4301
12559SOL    HW138490   4.459   1.640   1.454 -0.7556 -0.6110 -1.8288
12559SOL    HW238491   4.373   1.750   1.513  0.2446 -1.1779  0.7393
12560SOL     OW38492   0.576   7.096   5.273  0.0828 -0.2932  0.2334
12560SOL    HW138493   0.627   7.083   5.192 -0.9361  1.7500 -0.7810
12560SOL    HW238494   0.536   7.011   5.290  0.8656 -0.9348 -1.0272
12561SOL     OW38495   6.491   1.781   5.447 -0.3746 -0.2509 -0.4697
12561SOL    HW138496   6.475   1.783   5.541  0.2295 -1.0366 -0.3409
12561SOL    HW238497   6.486   1.689   5.424  1.6521 -0.3140 -0.7972
12562SOL     OW38498   3.962   4.842   3.694  0.2727 -0.5742 -0.5524
12562SOL    HW138499   3.880   4.853   3.743  0.5872 -1.1592  0.1224
12562SOL    HW238500   4.027   4.891   3.745  0.2897  0.0978 -1.2220
12563SOL     OW38501   5.592   2.320   7.840  0.5662 -0.7410 -0.0279
12563SOL    HW138502   5.566   2.408   7.812  0.9797 -1.1889 -1.9457
12563SOL    HW238503   5.673   2.333   7.888  0.8614 -0.1107 -0.6879
12564SOL     OW38504   5.800   5.007   7.018  0.4671  0.0102  0.6115
12564SOL    HW138505   5.757   4.926   7.045  1.2690 -0.2896  0.9787
12564SOL    HW238506   5.823   5.050   7.100  1.2879 -0.0489  0.4122
12565SOL     OW38507   0.692   4.751   0.957  0.2256 -0.0804 -0.4849
12565SOL    HW138508   0.692   4.662   0.922  0.3474  0.0477 -0.8098
12565SOL    HW238509   0.606   4.786   0.934  0.4677  0.1521 -1.0271
12566SOL     OW38510   0.278   5.653   4.362 -0.2579 -0.4767  0.0917
12566SOL    HW138511   0.312   5.698   4.285 -0.6795 -0.0633  0.1401
12566SOL    HW238512   0.241   5.723   4.416 -1.8852 -0.9885 -0.3209
12567SOL     OW38513   7.480   6.933   7.023  0.1222  0.2058 -0.3751
12567SOL    HW138514   7.391   6.904   7.044 -0.2172  1.0127 -0.7064
12567SOL    HW238515   7.524   6.854   6.991  0.1990 -0.7118  1.9068
12568SOL     OW38516   2.413   2.845   5.939  0.2124 -0.3296 -0.3817
12568SOL    HW138517   2.409   2.918   6.000 -0.7091 -0.2109 -0.5760
12568SOL    HW238518   2.421   2.886   5.852  0.4453 -0.4754 -0.4300
12569SOL     OW38519   6.247   5.730   5.748 -0.2108  0.1001  0.0322
12569SOL    HW138520   6.341   5.741   5.735 -0.5492  1.3563 -1.5336
12569SOL    HW238521   6.222   5.661   5.686 -0.5415  0.6701 -0.4693
12570SOL     OW38522   0.408   0.522   3.745 -0.2699 -0.0437  0.1383
12570SOL    HW138523   0.408   0.612   3.775  0.0704 -0.7334  2.3353
12570SOL    HW238524   0.318   0.491   3.760 -0.0612 -0.4362  0.6038
12571SOL     OW38525   2.186   1.837   4.677  0.1956  0.5669 -0.4425
12571SOL    HW138526   2.235   1.914   4.705 -0.4874  0.8841 -0.1185
12571SOL    HW238527   2.254   1.774   4.650  0.8530  0.3940  1.5474
12572SOL     OW38528   7.547   2.830   0.138 -0.1536  0.4027  0.2108
12572SOL    HW138529   7.610   2.870   0.198  2.2837  1.0718 -2.6514
12572SOL    HW238530   7.584   2.745   0.116 -0.7297  0.3754 -0.7076
12573SOL     OW38531   0.315   4.754   0.233 -0.1896  0.3286  0.3367
12573SOL    HW138532   0.327   4.747   0.138 -0.6709  0.4760  0.2607
12573SOL    HW238533   0.302   4.848   0.248  0.7407  0.4078  0.6551
12574SOL     OW38534   5.463   3.793   7.607 -0.9465 -0.1248  0.1993
12574SOL    HW138535   5.435   3.752   7.525  1.7309 -0.6714 -0.5031
12574SOL    HW238536   5.474   3.886   7.586  1.0978 -0.4858 -0.5043
12575SOL     OW38537   6.401   5.851   1.095 -0.1158  0.7508 -0.4919
12575SOL    HW138538   6.418   5.877   1.186 -2.3929 -0.6874  0.3956
12575SOL    HW238539   6.316   5.890   1.075 -1.5435 -2.2447 -0.5922
12576SOL     OW38540   6.125   1.948   4.104 -0.7376  0.1094 -0.3546
12576SOL    HW138541   6.194   1.947   4.037 -0.6613 -0.3009 -0.2711
12576SOL    HW238542   6.051   1.905   4.063 -0.4970 -0.6758  0.0300
12577SOL     OW38543   0.326   1.390   7.719  0.4092 -0.4618 -0.1495
12577SOL    HW138544   0.265   1.387   7.793 -1.7022  0.3038 -1.8297
12577SOL    HW238545   0.411   1.368   7.758 -0.8578 -1.2388  2.2819
12578SOL     OW38546   1.853   2.545   6.456 -0.9602  0.3408  0.4784
12578SOL    HW138547   1.917   2.605   6.493 -0.4632 -0.1923  0.4912
12578SOL    HW238548   1.904   2.490   6.396 -1.6413  0.7822 -0.5200
12579SOL     OW38549   5.455   0.838   3.875  0.9333  0.3757  0.0614
12579SOL    HW138550   5.404   0.897   3.819 -0.4906  0.3682  1.3209
12579SOL    HW238551   5.428   0.861   3.964  2.0696 -0.6251  0.6705
12580SOL     OW38552   3.910   4.760   3.185 -0.1774 -0.8862  0.1627
12580SOL    HW138553   3.990   4.809   3.206 -0.5699  0.4499 -1.3566
12580SOL    HW238554   3.920   4.738   3.092 -3.1633  2.4338 -1.0423
12581SOL     OW38555   0.635   4.218   5.578  0.0374  0.3485 -0.1860
12581SOL    HW138556   0.698   4.283   5.548 -0.9269  0.9492 -0.9344
12581SOL    HW238557   0.615   4.166   5.500 -1.0221  0.6905 -0.1501
12582SOL     OW38558   5.823   5.000   5.667 -0.1196 -0.4338  0.2091
12582SOL    HW138559   5.790   4.954   5.590  0.2957 -1.0756  0.4138
12582SOL    HW238560   5.817   4.937   5.738 -0.4839  0.1519  0.7073
12583SOL     OW38561   7.342   0.124   1.636 -0.2418 -0.0908 -0.2091
12583SOL    HW138562   7.338   0.035   1.671  0.5475 -0.9645 -2.2764
12583SOL    HW238563   7.436   0.142   1.627 -0.4288 -0.1929 -2.5729
12584SOL     OW38564   6.649   3.361   1.041  0.0553 -0.3254 -0.1122
12584SOL    HW138565   6.561   3.369   1.003  0.0937 -0.0035 -0.1325
12584SOL    HW238566   6.668   3.448   1.075  0.6155 -0.2376 -0.6445
12585SOL     OW38567   5.221   5.633   1.414  0.0488 -0.2944 -0.3005
12585SOL    HW138568   5.158   5.596   1.352 -0.7489  1.1543 -0.3819
12585SOL    HW238569   5.183   5.613   1.500 -0.6172  0.6774 -0.3499
12586SOL     OW38570   6.302   1.398   2.317 -0.1572  0.5022  0.1024
12586SOL    HW138571   6.238   1.417   2.386 -0.8316  3.0162 -1.1528
12586SOL    HW238572   6.364   1.471   2.322  1.0913 -0.5023 -0.4697
12587SOL     OW38573   0.025   5.834   5.569 -0.0933 -0.0962 -0.3371
12587SOL    HW138574  -0.063   5.797   5.572  0.2321 -0.7534  1.3479
12587SOL    HW238575   0.012   5.926   5.592 -0.4576  0.0596 -1.1263
12588SOL     OW38576   5.059   5.589   1.672  0.2883  0.0337 -0.1779
12588SOL    HW138577   5.053   5.660   1.736  1.8537  0.6112 -0.6655
12588SOL    HW238578   4.987   5.605   1.611 -1.4065 -0.6835  1.5775
12589SOL     OW38579   7.840   1.417   2.676  0.3459  0.4474 -0.4032
12589SOL    HW138580   7.890   1.439   2.597 -2.0407 -1.4146 -2.5334
12589SOL    HW238581   7.883   1.466   2.746  2.0999  2.7598 -2.9682
12590SOL     OW38582   5.530   6.528   1.274 -0.6198  0.4043  0.2088
12590SOL    HW138583   5.624   6.515   1.282 -0.7414 -1.2606 -0.8072
12590SOL    HW238584   5.503   6.562   1.359  0.7153 -0.2102  0.8874
12591SOL     OW38585   6.133   5.900   6.984  0.4685 -0.3059 -0.3833
12591SOL    HW138586   6.164   5.819   6.945  1.3429 -1.2177  2.1117
12591SOL    HW238587   6.194   5.967   6.952 -0.0906 -0.6686 -2.2251
12592SOL     OW38588   6.340   4.412   5.128 -0.3977  0.0428 -0.3913
12592SOL    HW138589   6.285   4.369   5.193 -1.5302  0.1632 -1.2612
12592SOL    HW238590   6.345   4.350   5.056  1.2513 -0.2885 -0.0141
12593SOL     OW38591   0.032   5.314   0.094 -0.2640  0.2720 -0.5124
12593SOL    HW138592   0.124   5.294   0.112 -1.0136 -3.3777 -0.3771
12593SOL    HW238593   0.022   5.299   0.000 -1.5683 -3.3916  0.1260
12594SOL     OW38594   5.493   6.851   7.640  0.0279  0.1907 -0.3467
12594SOL    HW138595   5.402   6.826   7.655  0.3321 -0.4467  0.5306
12594SOL    HW238596   5.496   6.882   7.550 -1.3845  1.7377  0.1202
12595SOL     OW38597   4.881   1.134   1.636 -0.2831 -0.1138 -0.2524
12595SOL    HW138598   4.935   1.082   1.576 -1.8821 -0.8029 -1.1155
12595SOL    HW238599   4.821   1.071   1.675 -1.9019  0.9849 -0.9255
12596SOL     OW38600   0.493   3.549   6.648 -0.2379 -0.4614  0.3249
12596SOL    HW138601   0.582   3.572   6.676  0.8621 -2.0340 -1.7642
12596SOL    HW238602   0.455   3.505   6.724  0.5901  0.6829  1.4180
12597SOL     OW38603   4.853   0.133   7.176 -0.2555 -0.0133  0.5965
12597SOL    HW138604   4.941   0.168   7.164 -0.0895 -0.5539  0.2756
12597SOL    HW238605   4.830   0.095   7.092 -1.4366  1.5845  0.1676
12598SOL     OW38606   6.079   6.364   3.957  0.3569  1.0007 -0.0603
12598SOL    HW138607   6.023   6.322   4.022 -1.4842 -0.0203 -2.2538
12598SOL    HW238608   6.069   6.458   3.974 -3.1256  0.9088 -1.2352
12599SOL     OW38609   6.496   4.180   4.401 -0.2571 -0.0045 -0.2920
12599SOL    HW138610   6.462   4.254   4.351  0.0366  1.9347  2.2585
12599SOL    HW238611   6.573   4.215   4.446  1.5099 -2.6389 -1.1534
12600SOL     OW38612   3.051   6.238   0.645 -0.0372 -0.6610 -0.2663
12600SOL    HW138613   3.107   6.235   0.568  1.9558 -0.4625  1.1217
12600SOL    HW238614   2.998   6.317   0.634  1.0308 -0.0337 -0.8998
12601SOL     OW38615   7.920   7.463   0.496  0.4366  0.1105  0.5215
12601SOL    HW138616   7.885   7.462   0.407  0.2885  0.9008  0.5699
12601SOL    HW238617   7.843   7.461   0.553  0.5455 -1.6648  0.6583
12602SOL     OW38618   7.081   3.571   4.698  0.4998  0.0481 -0.3369
12602SOL    HW138619   7.112   3.549   4.610  0.8106  0.0068 -0.2181
12602SOL    HW238620   7.028   3.649   4.686  1.8908  1.0076 -0.3289
12603SOL     OW38621   1.508   6.240   5.148  0.4906  0.7859  0.1193
12603SOL    HW138622   1.535   6.328   5.121 -0.3314  1.3610  1.1378
12603SOL    HW238623   1.454   6.208   5.075  0.9413  1.0597 -0.3304
12604SOL     OW38624   5.134   5.451   7.143 -0.1052  0.1331 -0.4076
12604SOL    HW138625   5.086   5.370   7.160 -0.1217 -0.1605 -1.7796
12604SOL    HW238626   5.067   5.519   7.144  0.1992  0.4471  2.8544
12605SOL     OW38627   7.859   1.876   7.144  0.1116  0.2621 -0.2348
12605SOL    HW138628   7.877   1.962   7.104  2.0538 -0.4425 -0.9620
12605SOL    HW238629   7.780   1.845   7.101  1.2634  0.2543 -2.4105
12606SOL     OW38630   2.819   3.939   1.556  0.0552  0.1534  0.4042
12606SOL    HW138631   2.909   3.956   1.583  0.2641 -1.3879  0.7100
12606SOL    HW238632   2.827   3.889   1.474 -0.5238  0.3115  0.2458
12607SOL     OW38633   7.081   2.124   7.533  0.0694  0.1233 -0.1413
12607SOL    HW138634   7.105   2.036   7.564  1.5338 -0.0618 -1.7028
12607SOL    HW238635   7.050   2.169   7.611 -1.6051 -2.0803  0.5242
12608SOL     OW38636   1.418   5.676   3.203 -0.2280  0.3784  0.6044
12608SOL    HW138637   1.448   5.593   3.239 -0.5059 -1.2669 -2.7393
12608SOL    HW238638   1.479   5.695   3.132  0.5577  3.7227  2.0830
12609SOL     OW38639   6.512   1.380   5.941  0.7736 -0.4680  0.0464
12609SOL    HW138640   6.482   1.306   5.994  1.8605  0.6568  2.2897
12609SOL    HW238641   6.458   1.454   5.971  0.9972  0.0620 -0.8488
12610SOL     OW38642   3.484   4.334   3.013 -0.3980  0.4557 -0.2831
12610SOL    HW138643   3.482   4.427   2.990 -1.8767  0.8675  1.4054
12610SOL    HW238644   3.576   4.316   3.029  0.0222  1.3950 -1.4991
12611SOL     OW38645   5.758   5.717   1.165 -0.2295  0.6691 -0.9507
12611SOL    HW138646   5.734   5.770   1.241  0.5139 -0.6200  0.2014
12611SOL    HW238647   5.828   5.659   1.196  0.3570  0.3910 -2.7218
12612SOL     OW38648   0.435   4.049   0.742 -0.1004  0.2458 -0.5387
12612SOL    HW138649   0.413   4.064   0.651  0.1002 -1.6493 -0.9084
12612SOL    HW238650   0.516   3.997   0.739 -1.7846 -2.5534  0.6459
12613SOL     OW38651   3.557   1.784   2.808  0.6742  0.0415  0.1701
12613SOL    HW138652   3.494   1.850   2.837  0.3997  0.1622 -0.7064
12613SOL    HW238653   3.624   1.833   2.760  0.9988 -0.1931  0.3747
12614SOL     OW38654   0.913   0.479   5.874 -0.1827  0.3086 -0.0376
12614SOL    HW138655   0.954   0.411   5.927 -1.1098 -0.2572 -0.0321
12614SOL    HW238656   0.985   0.517   5.824  0.0677 -1.9925 -1.4854
12615SOL     OW38657   0.701   3.085   2.912 -0.0110  0.0613 -0.4074
12615SOL    HW138658   0.673   3.115   2.999  1.1256  1.2576 -0.4441
12615SOL    HW238659   0.716   2.991   2.923  0.5237  0.2763  0.7975
12616SOL     OW38660   7.560   1.632   6.989  0.2084  0.1909 -0.5865
12616SOL    HW138661   7.609   1.553   6.967  1.1776  0.8440 -0.8157
12616SOL    HW238662   7.480   1.600   7.030  0.1160 -0.9331 -1.6301
12617SOL     OW38663   3.065   6.395   3.021 -0.0999 -0.5796  0.2716
12617SOL    HW138664   3.101   6.327   3.077  0.7444 -0.7255 -0.4321
12617SOL    HW238665   3.088   6.367   2.932 -1.0996 -0.1673 -0.1250
12618SOL     OW38666   1.584   2.676   1.631 -0.4188  0.0217 -0.0816
12618SOL    HW138667   1.605   2.659   1.723  0.5807  0.6198 -0.1906
12618SOL    HW238668   1.490   2.659   1.624 -0.1464 -1.8394  0.6191
12619SOL     OW38669   1.652   6.396   7.372  0.7423 -0.2274 -0.0640
12619SOL    HW138670   1.618   6.374   7.460  0.3835  1.7858  0.3208
12619SOL    HW238671   1.592   6.352   7.312 -0.1904 -0.0020  0.6871
12620SOL     OW38672   1.960   1.446   5.554 -0.2860  0.5539  0.1755
12620SOL    HW138673   1.931   1.399   5.476  2.0380  1.2967 -1.1855
12620SOL    HW238674   1.909   1.527   5.554 -0.7145  0.2827 -0.2455
12621SOL     OW38675   4.500   5.232   5.132  0.5443  0.1181  0.2987
12621SOL    HW138676   4.513   5.241   5.038  0.0505 -1.0375  0.1128
12621SOL    HW238677   4.583   5.198   5.166  0.0765 -1.3518 -0.0060
12622SOL     OW38678   6.044   2.570   3.611  0.7503  0.4041 -0.7907
12622SOL    HW138679   6.035   2.655   3.568  1.2915  1.9811  2.0676
12622SOL    HW238680   6.113   2.583   3.676 -0.7326 -1.5620  1.2745
12623SOL     OW38681   4.508   4.816   2.241  0.5371 -0.1570 -0.8494
12623SOL    HW138682   4.413   4.810   2.251  0.4969  0.9634 -0.4439
12623SOL    HW238683   4.521   4.853   2.154  0.5588  0.7623 -0.4640
12624SOL     OW38684   5.465   2.039   4.202 -0.3462  0.3547 -0.0589
12624SOL    HW138685   5.456   1.982   4.125 -0.6604 -2.5182  2.0243
12624SOL    HW238686   5.559   2.047   4.215 -0.3014  0.4565 -0.4279
12625SOL     OW38687   3.435   5.475   4.718  0.0938 -1.1449 -0.5143
12625SOL    HW138688   3.346   5.441   4.715 -0.3996  0.1546 -1.0821
12625SOL    HW238689   3.469   5.463   4.629 -1.3759  3.1065 -1.7737
12626SOL     OW38690   0.375   1.714   3.531 -0.3439  0.1216  0.3210
12626SOL    HW138691   0.455   1.727   3.480 -0.8737  1.0385 -0.2995
12626SOL    HW238692   0.382   1.625   3.565 -0.7142 -1.1197 -2.6535
12627SOL     OW38693   1.531   2.568   1.892 -0.2608 -0.1215 -0.2072
12627SOL    HW138694   1.576   2.523   1.963 -0.5540 -0.9780 -0.5641
12627SOL    HW238695   1.439   2.567   1.918 -0.2443  0.4429 -0.1222
12628SOL     OW38696   7.472   4.475   2.595  0.1905 -0.2393  0.4463
12628SOL    HW138697   7.559   4.434   2.590  0.5272  0.4216  0.7973
12628SOL    HW238698   7.451   4.498   2.505  0.2850 -0.6034  0.3309
12629SOL     OW38699   7.679   1.997   2.817  0.1000  0.2058  0.1125
12629SOL    HW138700   7.658   1.955   2.901 -0.2401 -1.2903 -0.7010
12629SOL    HW238701   7.668   1.927   2.753 -1.0341  1.6880 -1.3474
12630SOL     OW38702   1.690   0.502   1.700 -0.1790 -0.4338  0.1331
12630SOL    HW138703   1.669   0.413   1.727 -0.8860 -0.6427 -1.0708
12630SOL    HW238704   1.623   0.557   1.740  1.0290 -0.2665  1.9782
12631SOL     OW38705   2.764   4.252   0.570  0.2346  0.0829  0.2779
12631SOL    HW138706   2.723   4.194   0.505 -0.9299 -0.6796  1.6681
12631SOL    HW238707   2.699   4.322   0.583  1.4717  1.5425 -1.1126
12632SOL     OW38708   7.077   0.027   7.480  0.4987  0.6965 -0.7088
12632SOL    HW138709   7.039   0.087   7.416 -2.0231  0.0779  0.1244
12632SOL    HW238710   7.076   0.076   7.562 -2.0378 -0.5617  0.0813
12633SOL     OW38711   0.817   4.697   3.179 -0.2715 -0.0914 -0.3945
12633SOL    HW138712   0.799   4.752   3.103  2.0243 -0.1694 -1.0571
12633SOL    HW238713   0.761   4.620   3.168 -2.6728  1.5631 -0.0445
12634SOL     OW38714   5.742   5.871   2.657  0.3898  0.2369  0.5320
12634SOL    HW138715   5.806   5.869   2.729 -0.6280  0.1799  1.4543
12634SOL    HW238716   5.719   5.779   2.643 -0.6389  0.3685  1.2668
12635SOL     OW38717   1.940   6.580   4.369  0.5455  0.3690 -0.1794
12635SOL    HW138718   1.901   6.497   4.398 -0.0016  0.7743  0.2471
12635SOL    HW238719   1.869   6.644   4.376  0.6742  0.6717 -1.5090
12636SOL     OW38720   1.963   4.192   1.459  0.1520 -0.0483  0.0993
12636SOL    HW138721   2.042   4.223   1.503  0.8005 -1.6612  0.1128
12636SOL    HW238722   1.996   4.145   1.382 -0.7273 -2.1182  0.9735
12637SOL     OW38723   0.432   6.809   1.136 -0.0698  0.1825 -0.2946
12637SOL    HW138724   0.422   6.869   1.210  0.2189  0.1529 -0.2293
12637SOL    HW238725   0.464   6.865   1.065  0.7227  0.0102 -0.0800
12638SOL     OW38726   4.982   0.480   3.617 -0.1198 -0.1709  0.6529
12638SOL    HW138727   4.961   0.566   3.654 -0.0403  0.6270 -1.0885
12638SOL    HW238728   5.055   0.497   3.558 -1.7415 -0.9610 -1.6269
12639SOL     OW38729   5.911   5.294   2.889  0.1931  0.3542  0.8421
12639SOL    HW138730   5.844   5.330   2.947 -0.5222  0.3226  0.0566
12639SOL    HW238731   5.924   5.362   2.822 -0.9958 -0.7287 -0.5187
12640SOL     OW38732   5.928   0.776   1.860 -0.3296  0.0455  0.2772
12640SOL    HW138733   5.943   0.682   1.867  0.5055  0.1270 -0.3639
12640SOL    HW238734   5.900   0.790   1.770  1.4023  0.6482 -0.1843
12641SOL     OW38735   3.262   6.046   1.116  0.0520 -0.4359  0.2696
12641SOL    HW138736   3.332   6.111   1.117 -0.0492 -0.3345  1.2838
12641SOL    HW238737   3.186   6.091   1.153 -0.8709 -0.1980 -1.8832
12642SOL     OW38738   0.558   7.528   5.912 -0.4125  0.1780 -0.5940
12642SOL    HW138739   0.615   7.594   5.872 -0.9970  1.2795  0.3422
12642SOL    HW238740   0.564   7.546   6.006 -1.1938 -0.6008 -0.3963
12643SOL     OW38741   1.729   2.942   4.584 -0.6228 -0.3231  0.0855
12643SOL    HW138742   1.643   2.915   4.617 -0.0073 -1.8252  0.5024
12643SOL    HW238743   1.738   2.898   4.500 -0.7777  0.8324 -0.5408
12644SOL     OW38744   1.710   4.621   7.937  0.3409 -0.3265 -0.7031
12644SOL    HW138745   1.668   4.673   7.869  1.1950  0.3879 -0.6965
12644SOL    HW238746   1.638   4.572   7.978 -1.0330  3.2222  1.3968
12645SOL     OW38747   1.541   0.550   6.900 -0.2213  0.1554 -0.2409
12645SOL    HW138748   1.541   0.572   6.807  0.4272  0.9582 -0.0569
12645SOL    HW238749   1.606   0.481   6.908  0.0348  0.3845 -0.3218
12646SOL     OW38750   5.895   6.995   5.276  0.5559  0.0534 -0.3675
12646SOL    HW138751   5.911   7.088   5.286  1.4902 -0.0617 -0.6918
12646SOL    HW238752   5.967   6.953   5.325 -1.2445 -0.5130  1.9156
12647SOL     OW38753   5.996   1.411   2.436 -0.0983 -0.2225  0.3025
12647SOL    HW138754   6.012   1.417   2.530 -3.5204 -1.3196  1.0137
12647SOL    HW238755   5.966   1.321   2.423 -2.0625  0.6470 -1.4089
12648SOL     OW38756   3.345   0.609   4.116  0.5662  0.2204 -0.1093
12648SOL    HW138757   3.430   0.566   4.117  0.4818 -0.0554 -2.1416
12648SOL    HW238758   3.364   0.702   4.116  0.8221  0.1698  1.2329
12649SOL     OW38759   6.320   0.040   1.868  0.1960  0.0565  0.1464
12649SOL    HW138760   6.317  -0.027   1.937  2.4939  0.0795  0.3097
12649SOL    HW238761   6.408   0.032   1.831  0.3569  2.6897 -0.1366
12650SOL     OW38762   2.304   1.448   2.455 -0.6647  0.1190  0.0741
12650SOL    HW138763   2.339   1.367   2.491  0.0635  0.4366  0.0832
12650SOL    HW238764   2.343   1.517   2.508  1.1851  0.6608 -1.8943
12651SOL     OW38765   3.608   2.260   0.233  0.2312  0.1724  0.1577
12651SOL    HW138766   3.538   2.307   0.188 -1.5764 -2.1854  0.3935
12651SOL    HW238767   3.563   2.215   0.305  2.3282  0.1578  1.4870
12652SOL     OW38768   5.494   1.746   0.424  0.2833  0.0807  0.4170
12652SOL    HW138769   5.463   1.813   0.485  2.2737  0.5730  0.9223
12652SOL    HW238770   5.552   1.690   0.477  0.4008 -0.7060 -0.5325
12653SOL     OW38771   1.645   5.994   7.696 -0.4890  0.7776 -0.8803
12653SOL    HW138772   1.574   6.014   7.758 -0.5444  1.1631 -1.0624
12653SOL    HW238773   1.600   5.971   7.615 -0.4530 -1.4760 -0.2833
12654SOL     OW38774   5.228   0.229   0.081 -0.4279  0.1382  0.4186
12654SOL    HW138775   5.181   0.146   0.068  0.6448 -0.4547  0.3073
12654SOL    HW238776   5.317   0.203   0.103  0.0215  1.2727 -0.0366
12655SOL     OW38777   6.991   0.276   4.176  0.1019 -0.4886  0.0092
12655SOL    HW138778   7.003   0.315   4.090 -0.5698 -1.3693 -0.4823
12655SOL    HW238779   7.066   0.308   4.227  0.9449 -0.6101 -1.1221
12656SOL     OW38780   0.461   3.575   2.703  0.1778  0.1038 -0.1316
12656SOL    HW138781   0.486   3.550   2.615  1.9036  0.9171  0.1120
12656SOL    HW238782   0.486   3.501   2.758 -2.0269 -0.9271 -0.4576
12657SOL     OW38783   6.151   0.143   1.219  0.0494  0.2209 -0.0334
12657SOL    HW138784   6.233   0.185   1.247  0.7779 -1.9312  1.2948
12657SOL    HW238785   6.103   0.128   1.301 -0.3775 -1.0628 -0.4970
12658SOL     OW38786   1.809   5.036   2.559 -0.2242 -0.2204  0.2408
12658SOL    HW138787   1.747   5.016   2.489 -0.0288  0.4169 -0.1213
12658SOL    HW238788   1.893   5.045   2.515  0.2443 -1.7176  0.8217
12659SOL     OW38789   5.163   0.341   2.461 -0.1912 -0.0678 -0.0933
12659SOL    HW138790   5.256   0.348   2.479 -0.1652  0.4310 -0.4114
12659SOL    HW238791   5.158   0.320   2.368 -0.2803 -3.8250  0.6806
12660SOL     OW38792   3.357   5.254   3.054 -0.2466 -0.1166  0.0066
12660SOL    HW138793   3.451   5.262   3.038 -0.3835 -1.1404 -1.4779
12660SOL    HW238794   3.324   5.207   2.977 -2.0986  0.9264  0.1241
12661SOL     OW38795   6.159   5.622   1.875 -0.5024  0.0192  0.2543
12661SOL    HW138796   6.100   5.552   1.847 -1.0375  0.5150  0.1301
12661SOL    HW238797   6.222   5.579   1.932 -1.7319 -0.3067  1.4028
12662SOL     OW38798   4.908   6.607   6.638  0.4648 -0.4443  0.3947
12662SOL    HW138799   4.939   6.668   6.705 -1.1093  1.4905 -0.5583
12662SOL    HW238800   4.813   6.619   6.637  0.2439 -2.2002 -0.5177
12663SOL     OW38801   2.263   1.122   6.233 -0.5176 -0.2813  0.1799
12663SOL    HW138802   2.265   1.186   6.162 -0.6653  1.5610  1.8001
12663SOL    HW238803   2.277   1.173   6.312 -1.1692 -2.1910  1.5718
12664SOL     OW38804   3.299   5.398   2.541  0.8318 -0.5946 -0.1571
12664SOL    HW138805   3.265   5.469   2.487 -0.4955 -1.0828  0.0224
12664SOL    HW238806   3.267   5.416   2.629  0.7468 -1.2474 -0.0512
12665SOL     OW38807   4.303   5.555   4.751 -0.5159 -0.0964 -0.4032
12665SOL    HW138808   4.363   5.551   4.676  0.2425 -1.1470  0.2467
12665SOL    HW238809   4.283   5.463   4.770  0.4616  0.0747  1.5904
12666SOL     OW38810   4.181   4.977   3.791 -0.0938  0.0906  0.1065
12666SOL    HW138811   4.208   5.038   3.859  1.2316 -0.7862  0.4022
12666SOL    HW238812   4.254   4.977   3.728 -0.5548 -0.3650 -0.4407
12667SOL     OW38813   0.225   2.361   2.275  0.4823 -0.4792 -0.3487
12667SOL    HW138814   0.155   2.339   2.213  1.0133 -1.2122 -0.7005
12667SOL    HW238815   0.243   2.279   2.321  0.4067 -0.0409  0.4509
12668SOL     OW38816   5.276   1.600   4.081  0.2727  0.0131  0.9674
12668SOL    HW138817   5.264   1.618   4.174 -1.0695 -0.9201  0.9984
12668SOL    HW238818   5.191   1.565   4.053  0.5861  0.5361 -0.6650
12669SOL     OW38819   1.928   0.746   7.439 -0.2477 -0.0910 -0.9102
12669SOL    HW138820   1.995   0.678   7.433 -1.3865 -1.1353 -2.0461
12669SOL    HW238821   1.869   0.715   7.508 -0.3450  0.1210 -0.8990
12670SOL     OW38822   5.073   3.910   4.695  0.1584  0.2043  0.3923
12670SOL    HW138823   5.149   3.862   4.727  1.0840  1.1183 -0.4058
12670SOL    HW238824   5.097   4.002   4.705 -1.7659  0.5345  2.3420
12671SOL     OW38825   7.768   7.267   1.933  0.3282  0.0948 -0.3275
12671SOL    HW138826   7.800   7.211   2.004  1.3031 -1.2779 -1.8297
12671SOL    HW238827   7.847   7.308   1.898 -0.2155  1.2237 -0.2795
12672SOL     OW38828   5.733   2.016   1.781 -0.0272 -0.1992 -0.3384
12672SOL    HW138829   5.825   2.004   1.807  0.8104  0.2747 -2.8923
12672SOL    HW238830   5.701   2.084   1.840  0.6270 -1.8008  1.9444
12673SOL     OW38831   4.002   5.026   0.814  0.2327  0.2626  0.3071
12673SOL    HW138832   3.914   4.986   0.814  0.8583 -1.1783 -0.6885
12673SOL    HW238833   3.986   5.120   0.809 -1.2519 -0.0539 -1.3383
12674SOL     OW38834   6.400   6.177   7.198 -0.1367  0.2663 -0.2394
12674SOL    HW138835   6.376   6.100   7.251 -1.7676  0.4520 -0.6859
12674SOL    HW238836   6.476   6.214   7.243 -0.4092 -0.6096  0.9750
12675SOL     OW38837   4.521   4.833   4.267  0.6755  0.5410  0.3268
12675SOL    HW138838   4.499   4.746   4.232 -1.4063  1.7663 -1.5696
12675SOL    HW238839   4.542   4.817   4.359 -0.2183 -1.8996  0.1608
12676SOL     OW38840   2.964   3.747   6.815 -0.0477  0.0687 -0.0193
12676SOL    HW138841   3.052   3.720   6.787 -0.2883 -0.2701 -0.4366
12676SOL    HW238842   2.975   3.839   6.840  0.2530  0.2574 -0.8350
12677SOL     OW38843   4.931   2.798   3.922 -0.7070  0.8028  0.1615
12677SOL    HW138844   4.879   2.839   3.991 -2.0288 -0.5301 -0.0057
12677SOL    HW238845   4.971   2.871   3.875 -0.8096  1.7678  1.5548
12678SOL     OW38846   7.400   3.499   0.065  0.5664  0.4183  0.0220
12678SOL    HW138847   7.439   3.412   0.054 -0.4897 -0.0023 -0.4652
12678SOL    HW238848   7.356   3.494   0.150  0.1786  0.3380 -0.1796
12679SOL     OW38849   3.203   2.107   6.012  0.1768 -0.1130 -0.2744
12679SOL    HW138850   3.161   2.028   6.048 -0.6335  0.8200  0.8469
12679SOL    HW238851   3.143   2.136   5.943 -1.5783  1.7868  1.9897
12680SOL     OW38852   6.071   5.864   0.424 -0.3764  0.2532 -0.0569
12680SOL    HW138853   5.981   5.847   0.451 -0.3731 -0.2226 -0.3216
12680SOL    HW238854   6.065   5.940   0.366 -0.8150 -0.6595 -1.2403
12681SOL     OW38855   0.960   5.839   4.065  0.8881  0.2173  0.1746
12681SOL    HW138856   0.928   5.819   3.977  0.3959  0.6762  0.2446
12681SOL    HW238857   0.907   5.914   4.093  0.6760 -0.2665  1.0660
12682SOL     OW38858   0.178   2.176   3.651 -0.1831  0.0149 -0.4872
12682SOL    HW138859   0.185   2.158   3.745 -0.8022  1.3981 -0.1699
12682SOL    HW238860   0.099   2.130   3.623 -0.9212  0.9772  0.0102
12683SOL     OW38861   5.666   7.932   1.236  0.3306  0.4222 -0.6490
12683SOL    HW138862   5.758   7.940   1.261 -0.3156 -0.2680  2.1307
12683SOL    HW238863   5.630   8.019   1.250  0.0270  0.0992  0.6136
12684SOL     OW38864   6.995   4.938   4.343 -0.0886  0.0364 -0.0721
12684SOL    HW138865   7.005   4.846   4.318  0.6580  0.0384  0.2067
12684SOL    HW238866   7.069   4.955   4.401 -1.0492  0.4092  1.0547
12685SOL     OW38867   3.839   5.728   4.866 -0.1222 -0.4067  0.3187
12685SOL    HW138868   3.887   5.653   4.831  1.0797  0.5019 -0.0130
12685SOL    HW238869   3.767   5.740   4.804  0.9209  0.0393 -0.8318
12686SOL     OW38870   7.142   6.439   6.432  0.3016 -0.2778 -0.4252
12686SOL    HW138871   7.222   6.469   6.474  1.2238 -1.1456 -1.5368
12686SOL    HW238872   7.099   6.386   6.499  0.5362  0.3791  0.2517
12687SOL     OW38873   3.549   2.773   3.048 -0.3727 -0.4000  0.1523
12687SOL    HW138874   3.538   2.730   2.964  1.7812 -0.8366  0.0795
12687SOL    HW238875   3.548   2.866   3.027 -1.6983 -0.4474 -0.0935
12688SOL     OW38876   0.895   3.625   2.543 -0.0715  0.5912  0.2996
12688SOL    HW138877   0.884   3.580   2.460 -1.5812  0.3434  0.6133
12688SOL    HW238878   0.830   3.696   2.541  0.9120  1.5179  0.6369
12689SOL     OW38879   3.917   5.244   4.856 -0.1985 -0.4418 -0.5519
12689SOL    HW138880   3.902   5.182   4.784  2.2618  1.1827 -2.5366
12689SOL    HW238881   3.989   5.205   4.906  0.5257  0.1767 -1.0946
12690SOL     OW38882   0.471   7.018   2.288 -0.5367 -0.0240 -0.8127
12690SOL    HW138883   0.505   6.952   2.226 -0.1474 -1.8349  1.2613
12690SOL    HW238884   0.531   7.014   2.362 -1.6546  1.3120  0.1753
12691SOL     OW38885   7.601   2.695   1.069  0.3131 -0.2295  0.0020
12691SOL    HW138886   7.580   2.718   0.979  1.2665 -1.1568 -0.4647
12691SOL    HW238887   7.528   2.731   1.120 -0.6648 -0.4237 -1.2217
12692SOL     OW38888   7.591   3.383   7.824  0.0348 -0.0033  0.6515
12692SOL    HW138889   7.647   3.368   7.748  0.5227 -1.7045  1.3350
12692SOL    HW238890   7.611   3.473   7.851 -0.3581  0.7086 -1.3894
12693SOL     OW38891   5.795   2.304   1.399 -0.2010  0.0197  0.7558
12693SOL    HW138892   5.739   2.237   1.437 -0.0308 -0.0473  0.8938
12693SOL    HW238893   5.879   2.293   1.444 -0.0270  0.0079  0.4307
12694SOL     OW38894   0.356   2.900   4.192 -0.1724 -0.4180 -0.1838
12694SOL    HW138895   0.341   2.891   4.286  1.0397 -0.9284 -0.0208
12694SOL    HW238896   0.451   2.912   4.185 -0.0745 -1.8808 -1.4506
12695SOL     OW38897   3.097   7.063   6.714  0.2153  0.3710 -0.2430
12695SOL    HW138898   3.036   7.109   6.771 -0.1331  1.0079 -1.1273
12695SOL    HW238899   3.171   7.123   6.704 -0.0038  0.5254 -0.9663
12696SOL     OW38900   7.068   5.926   2.975 -0.0645  0.1107 -0.2139
12696SOL    HW138901   7.117   5.925   2.893  0.4393  0.7862  0.0716
12696SOL    HW238902   6.984   5.966   2.953 -1.5926 -3.4996 -1.2960
12697SOL     OW38903   1.753   7.212   6.343 -0.5358 -0.1417  0.1030
12697SOL    HW138904   1.762   7.203   6.438 -1.8979 -1.8255  0.1220
12697SOL    HW238905   1.746   7.306   6.328  0.0810  0.1663  1.6278
12698SOL     OW38906   1.310   7.773   7.827 -0.4014  0.2909 -0.0411
12698SOL    HW138907   1.319   7.777   7.922  0.6168  1.1942 -0.1800
12698SOL    HW238908   1.364   7.698   7.801 -0.1412  0.4608  0.0149
12699SOL     OW38909   4.081   6.549   1.900 -0.4686 -0.4679  0.0313
12699SOL    HW138910   4.123   6.464   1.894 -1.4234 -0.8909 -0.7649
12699SOL    HW238911   4.095   6.589   1.813 -1.1167 -0.3329 -0.0128
12700SOL     OW38912   1.058   6.479   2.600  0.2506  0.0090  0.5171
12700SOL    HW138913   0.985   6.473   2.661  0.5826 -1.6012  0.7831
12700SOL    HW238914   1.134   6.448   2.649  1.1308  1.6614  0.2405
12701SOL     OW38915   0.670   6.801   7.073 -0.2993  0.0949  0.2615
12701SOL    HW138916   0.619   6.850   7.008 -0.9941 -2.6865 -1.3400
12701SOL    HW238917   0.761   6.831   7.059 -0.9012  2.1435  0.4743
12702SOL     OW38918   6.643   5.944   6.070 -0.0355  0.6455 -0.1212
12702SOL    HW138919   6.731   5.975   6.092 -0.5212  1.3380  0.9148
12702SOL    HW238920   6.617   5.998   5.995  0.2091  0.8195 -0.0821
12703SOL     OW38921   2.950   4.406   4.671 -0.0235  0.1393 -0.1185
12703SOL    HW138922   2.945   4.429   4.578 -0.8032  0.6614  0.0452
12703SOL    HW238923   2.866   4.364   4.690 -0.2038  0.7876  0.5498
12704SOL     OW38924   6.782   6.273   6.548  0.3119 -0.2862 -0.1709
12704SOL    HW138925   6.861   6.221   6.558  0.4138  0.0714  0.8780
12704SOL    HW238926   6.810   6.364   6.559 -0.2675 -0.1671  0.3721
12705SOL     OW38927   6.982   3.297   7.536  0.0386 -0.2299 -0.5088
12705SOL    HW138928   7.009   3.338   7.454 -2.4155 -0.4990 -1.5023
12705SOL    HW238929   6.994   3.204   7.521  2.4816 -0.1242  0.5699
12706SOL     OW38930   7.800   4.402   5.578  0.2892 -0.6286 -0.2883
12706SOL    HW138931   7.893   4.402   5.557  0.1622 -0.5529 -0.8530
12706SOL    HW238932   7.757   4.365   5.501 -0.2722  0.7217 -0.6464
12707SOL     OW38933   6.103   1.223   0.614  0.7120  0.1654 -0.0056
12707SOL    HW138934   6.036   1.162   0.584 -0.1926 -0.2156  2.5844
12707SOL    HW238935   6.162   1.234   0.540 -0.4729 -1.9556 -1.2978
12708SOL     OW38936   1.944   0.934   2.952 -0.6991  0.3694  0.4889
12708SOL    HW138937   1.943   0.841   2.972  1.0638  0.7808  2.7334
12708SOL    HW238938   1.879   0.971   3.013 -0.6380  0.7465  0.3239
12709SOL     OW38939   3.835   4.560   4.480  0.1971  0.8757 -0.1812
12709SOL    HW138940   3.743   4.536   4.483  0.5169 -0.2338  1.0174
12709SOL    HW238941   3.838   4.638   4.425 -1.4069  0.7038 -0.5136
12710SOL     OW38942   7.082   6.164   1.281  0.2360  1.2558 -0.2954
12710SOL    HW138943   7.144   6.209   1.338 -0.3395  1.0189  0.5231
12710SOL    HW238944   7.063   6.082   1.326  0.7159  0.5133 -1.4296
12711SOL     OW38945   1.373   0.349   4.360  0.3268  0.3718 -0.1057
12711SOL    HW138946   1.345   0.420   4.418 -1.0764  0.8235 -1.3165
12711SOL    HW238947   1.298   0.290   4.355  0.4211  0.3532 -1.4650
12712SOL     OW38948   4.323   0.965   0.684  0.0135 -0.3476  0.1625
12712SOL    HW138949   4.257   0.996   0.621 -0.1979  1.4296  1.2325
12712SOL    HW238950   4.317   1.026   0.757  0.8823 -1.8811  1.5359
12713SOL     OW38951   0.098   3.582   1.265  0.1778  0.1374 -0.1864
12713SOL    HW138952   0.097   3.621   1.353  1.1796  0.7640 -0.4503
12713SOL    HW238953   0.099   3.487   1.282 -1.9834  0.1937  0.4525
12714SOL     OW38954   4.350   0.425   6.160 -0.1555 -0.2667  0.1776
12714SOL    HW138955   4.385   0.434   6.249 -0.9010 -0.6691  0.5162
12714SOL    HW238956   4.256   0.442   6.169 -0.1734  0.0891 -0.6027
12715SOL     OW38957   2.992   6.218   0.041  0.3016  0.2166 -0.2734
12715SOL    HW138958   2.918   6.174   0.084 -0.0605  2.1890  1.2231
12715SOL    HW238959   3.064   6.155   0.047 -0.4674 -0.5920  0.8887
12716SOL     OW38960   3.261   6.491   1.897 -0.1349  0.5117 -0.2838
12716SOL    HW138961   3.212   6.554   1.949  1.4074  0.8537  0.8085
12716SOL    HW238962   3.332   6.542   1.858  0.7395 -0.3893  0.0755
12717SOL     OW38963   0.428   1.193   0.582  0.9748  0.7661  0.3714
12717SOL    HW138964   0.462   1.158   0.500  0.8880 -0.7541  0.9503
12717SOL    HW238965   0.410   1.285   0.564 -1.6298 -0.1503 -2.1102
12718SOL     OW38966   2.997   7.160   1.820  0.4432 -0.1269  0.1020
12718SOL    HW138967   3.017   7.163   1.914  0.0263  0.8338  0.1670
12718SOL    HW238968   2.986   7.251   1.795 -0.5257 -0.4369 -0.6499
12719SOL     OW38969   7.841   5.473   4.527  0.0680  0.1828  0.1587
12719SOL    HW138970   7.894   5.461   4.449 -1.9011  0.1837 -1.2070
12719SOL    HW238971   7.831   5.568   4.535  1.4106  0.2561  1.2281
12720SOL     OW38972   6.995   4.131   0.867 -0.4055 -0.2357  0.0449
12720SOL    HW138973   7.024   4.209   0.915  1.1139 -0.0419 -1.1533
12720SOL    HW238974   6.956   4.166   0.787  2.0338 -0.7516 -1.4077
12721SOL     OW38975   2.858   6.146   0.345 -0.0113  0.3219 -0.7845
12721SOL    HW138976   2.853   6.096   0.427  1.4512  1.3375 -0.0607
12721SOL    HW238977   2.769   6.177   0.331 -0.2283  0.3802  0.5909
12722SOL     OW38978   1.548   1.920   5.699 -0.2699 -0.2825 -0.1241
12722SOL    HW138979   1.499   1.997   5.668 -1.6987 -1.3675 -0.6106
12722SOL    HW238980   1.509   1.847   5.653  0.9563 -1.3434  0.4938
12723SOL     OW38981   7.626   4.646   2.231  0.2517 -0.5795 -0.1070
12723SOL    HW138982   7.611   4.739   2.214  0.3104 -0.4011  0.7763
12723SOL    HW238983   7.545   4.616   2.271 -0.4602 -1.3553 -2.0630
12724SOL     OW38984   3.698   3.879   7.492  0.1697 -0.5376 -0.4179
12724SOL    HW138985   3.787   3.849   7.508  0.3235 -0.3346 -0.9072
12724SOL    HW238986   3.649   3.851   7.570  0.5703 -0.9941 -0.3301
12725SOL     OW38987   7.731   7.576   3.959 -0.4973 -0.0237 -0.2734
12725SOL    HW138988   7.763   7.651   3.909 -2.9280  2.0251  1.0886
12725SOL    HW238989   7.658   7.542   3.907 -1.0696  0.2205  0.3474
12726SOL     OW38990   1.734   1.904   7.065  0.1626 -0.4216  0.0207
12726SOL    HW138991   1.680   1.974   7.031 -0.9584 -1.3541 -0.1479
12726SOL    HW238992   1.718   1.904   7.159 -0.9421 -1.3515 -0.1511
12727SOL     OW38993   4.040   1.010   6.106 -0.2759 -0.1740 -0.2449
12727SOL    HW138994   4.129   1.037   6.126 -0.1120 -0.9464  0.0902
12727SOL    HW238995   4.014   0.955   6.180 -0.8689 -0.3156 -0.5496
12728SOL     OW38996   0.207   5.220   5.946 -0.1192  0.5317  0.0855
12728SOL    HW138997   0.205   5.186   6.035 -0.3006  0.4331  0.0441
12728SOL    HW238998   0.148   5.295   5.947  1.5630  1.8616  0.5887
12729SOL     OW38999   6.834   4.231   3.278 -0.5850  0.8670 -0.2164
12729SOL    HW139000   6.921   4.205   3.310 -0.4999 -0.5077 -1.5118
12729SOL    HW239001   6.778   4.155   3.297 -0.9202  0.7359 -1.6823
12730SOL     OW39002   5.992   7.207   3.684  0.4931  0.2752  0.2227
12730SOL    HW139003   5.981   7.169   3.598  1.5882  3.1640 -1.2645
12730SOL    HW239004   6.082   7.186   3.708  0.7749  1.0266 -0.1583
12731SOL     OW39005   3.848   4.019   3.311 -0.1661  0.6937  0.0428
12731SOL    HW139006   3.886   4.093   3.357  2.0934 -0.6479  0.4470
12731SOL    HW239007   3.811   3.964   3.380  0.3842  0.2445 -0.0135
12732SOL     OW39008   2.801   7.674   0.264 -0.2729 -0.3447  0.4239
12732SOL    HW139009   2.854   7.727   0.205 -1.0100  0.9178  0.8905
12732SOL    HW239010   2.844   7.588   0.264  0.3580 -0.0419 -1.0921
12733SOL     OW39011   2.130   3.595   5.725 -0.3660  0.5120 -0.3209
12733SOL    HW139012   2.100   3.594   5.634  1.7580  0.0402 -1.0467
12733SOL    HW239013   2.129   3.502   5.751 -1.2676  0.6760  0.2488
12734SOL     OW39014   2.866   1.513   5.060 -0.1919  0.2973 -0.4851
12734SOL    HW139015   2.917   1.520   4.979 -1.7242 -0.8541 -1.5674
12734SOL    HW239016   2.898   1.585   5.115  2.3659 -0.2109 -1.2524
12735SOL     OW39017   4.307   4.907   4.993 -0.2714 -0.4397  0.2219
12735SOL    HW139018   4.350   4.826   5.019  2.2317  0.2723 -1.4829
12735SOL    HW239019   4.286   4.951   5.075  1.6996 -1.1448  1.1365
12736SOL     OW39020   7.719   5.298   3.968 -0.3544  0.0195  0.1907
12736SOL    HW139021   7.789   5.343   3.921  0.2805 -1.1047  0.0602
12736SOL    HW239022   7.648   5.362   3.971 -0.3234  0.2146 -2.1166
12737SOL     OW39023   5.245   4.023   3.725  0.2029 -0.0597 -0.0613
12737SOL    HW139024   5.211   3.944   3.682  1.3319 -1.0716  0.8922
12737SOL    HW239025   5.187   4.036   3.800 -0.2539  0.2798 -0.4697
12738SOL     OW39026   3.209   4.992   4.684 -1.0859  0.3690  1.3740
12738SOL    HW139027   3.209   4.907   4.728 -0.0218  0.1996  1.0574
12738SOL    HW239028   3.175   5.053   4.749 -0.2036 -0.0029  2.1866
12739SOL     OW39029   0.148   6.010   1.029 -0.1058 -0.3145  0.2290
12739SOL    HW139030   0.210   5.944   1.057 -0.5744 -0.5049  0.8284
12739SOL    HW239031   0.065   5.963   1.018 -0.1901 -0.0348 -0.4040
12740SOL     OW39032   4.394   2.827   5.066 -0.1826  0.4091  0.3016
12740SOL    HW139033   4.438   2.883   5.002  1.0190 -1.3374 -0.4510
12740SOL    HW239034   4.455   2.821   5.139 -0.6820  0.7635  0.7513
12741SOL     OW39035   0.316   6.345   6.542 -0.2307  0.1415 -0.7869
12741SOL    HW139036   0.353   6.258   6.560 -0.6465 -0.5699 -3.1983
12741SOL    HW239037   0.230   6.326   6.504  0.0677  1.5803 -2.2087
12742SOL     OW39038   0.997   0.023   7.350  0.1125  0.7858  0.4300
12742SOL    HW139039   1.033   0.061   7.269 -0.9902  0.4787 -0.2158
12742SOL    HW239040   0.944   0.094   7.388 -0.0939  0.6406  0.4148
12743SOL     OW39041   0.040   6.664   6.350  0.6728  0.0464  0.5845
12743SOL    HW139042   0.124   6.631   6.381  0.0301 -1.5678  0.6165
12743SOL    HW239043  -0.025   6.628   6.411 -0.0889  0.9858  0.3512
12744SOL     OW39044   6.203   2.807   7.140 -0.3796  0.1597 -0.5471
12744SOL    HW139045   6.116   2.768   7.147  0.2992 -0.9991  2.3543
12744SOL    HW239046   6.234   2.812   7.231  1.5501  2.9333 -1.2762
12745SOL     OW39047   0.869   0.924   1.392 -0.4871 -0.2392  0.2583
12745SOL    HW139048   0.964   0.938   1.401 -0.0193 -2.5981 -0.6482
12745SOL    HW239049   0.862   0.843   1.342 -3.0054 -0.0852  0.3312
12746SOL     OW39050   4.185   4.118   6.916  0.1867 -0.1734 -0.1806
12746SOL    HW139051   4.266   4.083   6.955 -0.5057 -1.4954  0.0949
12746SOL    HW239052   4.155   4.183   6.979  1.2729  0.6718 -0.5048
12747SOL     OW39053   3.403   3.085   0.353 -0.2363 -0.7564 -0.5328
12747SOL    HW139054   3.319   3.103   0.395  1.5985  1.6485  2.3036
12747SOL    HW239055   3.423   2.994   0.374 -1.0692 -0.6588  0.6900
12748SOL     OW39056   7.335   3.188   2.423 -0.3750 -0.1955  0.5080
12748SOL    HW139057   7.337   3.265   2.366 -0.7388 -0.2068  0.4799
12748SOL    HW239058   7.338   3.224   2.511 -2.7367 -0.0362  0.5636
12749SOL     OW39059   5.165   1.931   5.325 -0.8221  0.0103 -0.5173
12749SOL    HW139060   5.192   1.981   5.402 -1.0929 -0.6705  0.0226
12749SOL    HW239061   5.081   1.892   5.350 -0.6630 -0.6280 -0.9756
12750SOL     OW39062   4.381   1.063   2.992 -0.3934 -0.0843  0.6794
12750SOL    HW139063   4.304   1.007   2.980  1.2694 -3.0061  2.8498
12750SOL    HW239064   4.360   1.118   3.067 -0.0870 -1.5018  1.8329
12751SOL     OW39065   2.336   5.055   7.022  0.3309  0.0004  0.0491
12751SOL    HW139066   2.423   5.016   7.029  0.6648  0.7483  0.0251
12751SOL    HW239067   2.341   5.113   6.946 -0.3305 -0.3274 -0.2511
12752SOL     OW39068   3.226   7.128   4.376 -0.6111  0.1593 -0.2233
12752SOL    HW139069   3.265   7.214   4.384 -0.3390  0.0639 -0.5127
12752SOL    HW239070   3.293   7.067   4.406 -0.6041  0.0112 -0.5265
12753SOL     OW39071   6.409   4.494   0.629 -0.2813  0.1883 -0.0620
12753SOL    HW139072   6.391   4.539   0.711  0.0526 -1.4974  0.9494
12753SOL    HW239073   6.487   4.441   0.646 -0.0152  0.0666 -1.5564
12754SOL     OW39074   2.901   1.197   6.519  0.0828  0.1901 -0.0187
12754SOL    HW139075   2.940   1.203   6.432 -0.6231 -0.4349 -0.3862
12754SOL    HW239076   2.942   1.121   6.559 -0.8107 -0.5365 -0.4476
12755SOL     OW39077   1.163   1.008   5.071  0.3031 -0.4612  0.1845
12755SOL    HW139078   1.156   0.986   4.978 -1.3436 -2.0815  0.6763
12755SOL    HW239079   1.144   0.926   5.117  0.0468  0.5731  1.9724
12756SOL     OW39080   4.325   6.065   1.612  0.1989  0.1097 -0.5044
12756SOL    HW139081   4.248   6.117   1.587  1.2149  2.1431  0.4879
12756SOL    HW239082   4.292   6.002   1.676 -0.8729  0.1079 -1.0446
12757SOL     OW39083   2.764   6.097   5.817  0.5211  0.4740 -0.1063
12757SOL    HW139084   2.824   6.029   5.847  1.0667  0.2575 -1.6325
12757SOL    HW239085   2.728   6.134   5.897  0.6773 -1.1968  0.7587
12758SOL     OW39086   7.213   5.359   7.424  0.1116 -0.1310 -0.1027
12758SOL    HW139087   7.243   5.423   7.489  1.1342  0.4540 -1.1257
12758SOL    HW239088   7.187   5.283   7.475  0.8746  0.3357  1.0015
12759SOL     OW39089   6.437   2.364   1.735  0.2448  0.4116 -0.3284
12759SOL    HW139090   6.492   2.360   1.656  0.6254  1.0798 -0.1037
12759SOL    HW239091   6.382   2.441   1.721 -1.1050 -0.6254 -0.8494
12760SOL     OW39092   6.071   6.330   5.989  0.1115 -0.5387  0.1754
12760SOL    HW139093   6.038   6.384   5.918 -0.0359 -2.5417 -1.3066
12760SOL    HW239094   6.144   6.282   5.951 -0.2326 -1.9543  1.2565
12761SOL     OW39095   3.858   1.338   5.557 -0.2381  0.6537 -0.0457
12761SOL    HW139096   3.853   1.276   5.630  1.0455  0.8212  0.1956
12761SOL    HW239097   3.942   1.383   5.570 -0.7888  1.8697 -0.6728
12762SOL     OW39098   1.544   0.260   7.553  0.0491  0.2413 -0.5460
12762SOL    HW139099   1.546   0.196   7.482 -0.4086  1.0411 -1.2991
12762SOL    HW239100   1.621   0.315   7.538  0.3086  0.0108 -0.0476
12763SOL     OW39101   2.015   4.389   6.280 -0.0359  0.0519  0.2635
12763SOL    HW139102   2.077   4.357   6.215  0.8857 -1.0861  1.6580
12763SOL    HW239103   1.929   4.382   6.237  0.7037  0.9492 -1.4148
12764SOL     OW39104   2.147   6.104   5.984  0.5340 -0.3364 -0.2867
12764SOL    HW139105   2.173   6.160   6.057  0.1994 -1.0946  0.4138
12764SOL    HW239106   2.174   6.153   5.906  3.1179 -0.6177  0.3836
12765SOL     OW39107   2.739   2.342   5.388  0.3878  0.2732  0.0423
12765SOL    HW139108   2.688   2.423   5.384  1.2300  0.8452  0.6474
12765SOL    HW239109   2.764   2.334   5.480 -0.9141 -1.4569  0.2764
12766SOL     OW39110   4.260   2.054   0.967 -0.3513 -0.2373 -0.3070
12766SOL    HW139111   4.178   2.010   0.946  0.3709 -1.6818 -0.1381
12766SOL    HW239112   4.270   2.043   1.061  0.5003 -0.8548 -0.4731
12767SOL     OW39113   6.984   4.445   2.231 -0.0863  0.1090  0.0698
12767SOL    HW139114   7.053   4.484   2.285  1.1984 -3.0996  0.8356
12767SOL    HW239115   6.904   4.457   2.282  0.5472  0.3027  1.0332
12768SOL     OW39116   1.974   0.129   7.991  0.1622 -0.3505  0.2038
12768SOL    HW139117   2.015   0.064   7.934 -1.7601 -2.3462  1.0467
12768SOL    HW239118   2.011   0.111   8.078  0.6509  0.6091  0.2092
12769SOL     OW39119   4.211   0.204   5.411 -0.2215  0.3471  0.8155
12769SOL    HW139120   4.297   0.190   5.452 -0.1668 -1.4813  0.1138
12769SOL    HW239121   4.218   0.290   5.371  1.1769  0.3702  1.0744
12770SOL     OW39122   5.858   0.288   7.499  0.3910 -0.1793  0.0528
12770SOL    HW139123   5.845   0.200   7.534  0.5800 -0.0705  0.4077
12770SOL    HW239124   5.901   0.335   7.571  1.0277 -0.0232 -0.4291
12771SOL     OW39125   0.080   2.666   5.602 -0.3846 -0.1273  0.4518
12771SOL    HW139126   0.052   2.639   5.515 -0.7051 -0.6230  0.7044
12771SOL    HW239127   0.058   2.760   5.606  0.0935  0.0128 -0.1768
12772SOL     OW39128   5.146   2.879   2.702 -0.0166 -0.1828  0.5034
12772SOL    HW139129   5.057   2.869   2.668  0.1690 -0.5007  0.1027
12772SOL    HW239130   5.193   2.802   2.671  0.2698 -0.2667  1.1364
12773SOL     OW39131   2.327   4.201   5.304 -0.0699  0.0929  0.3986
12773SOL    HW139132   2.415   4.198   5.341 -0.4193 -1.0712  1.1938
12773SOL    HW239133   2.292   4.113   5.320 -1.0872  0.3019 -0.6152
12774SOL     OW39134   4.008   1.057   2.413 -0.4930  0.3724 -0.3739
12774SOL    HW139135   4.071   1.075   2.343 -0.4203 -2.6876 -1.1567
12774SOL    HW239136   4.061   1.060   2.493 -0.4396  3.1411 -0.4596
12775SOL     OW39137   4.537   5.753   4.720  0.1358  0.1678  0.8537
12775SOL    HW139138   4.536   5.685   4.788  2.2292  1.2676  2.0388
12775SOL    HW239139   4.457   5.804   4.736 -0.4999 -0.8958  1.1120
12776SOL     OW39140   6.909   4.702   4.883 -0.0019  0.0157 -0.0230
12776SOL    HW139141   6.980   4.748   4.928  0.4458 -1.9114  1.2896
12776SOL    HW239142   6.933   4.706   4.790  0.5760  1.4745  0.1729
12777SOL     OW39143   3.710   7.155   4.853 -0.1671 -0.1104 -0.0584
12777SOL    HW139144   3.681   7.110   4.773  0.7426 -0.7435 -0.0377
12777SOL    HW239145   3.629   7.187   4.893 -0.6527 -0.0246 -1.0901
12778SOL     OW39146   2.971   3.181   1.424 -0.2480 -0.5979  0.3069
12778SOL    HW139147   2.901   3.241   1.449 -0.5888 -0.4388 -0.9926
12778SOL    HW239148   2.927   3.098   1.404  0.1640 -1.1347  1.5884
12779SOL     OW39149   0.850   7.453   5.039  0.7554 -0.5684  0.0350
12779SOL    HW139150   0.884   7.451   5.128 -2.5791  1.5408  1.4248
12779SOL    HW239151   0.762   7.417   5.045  0.1537  0.4050 -2.2684
12780SOL     OW39152   1.827   6.384   4.514  0.3295 -0.4430 -0.1099
12780SOL    HW139153   1.780   6.302   4.499 -0.0283 -0.2835  0.1197
12780SOL    HW239154   1.777   6.428   4.583  0.6264 -0.1184 -0.0981
12781SOL     OW39155   4.855   5.615   4.075  0.4251  0.6266  0.0380
12781SOL    HW139156   4.946   5.645   4.074 -0.1669  2.4728  0.0251
12781SOL    HW239157   4.809   5.678   4.020 -0.8324 -0.4154 -0.1150
12782SOL     OW39158   3.270   1.550   3.254  0.3292 -0.5775  0.1234
12782SOL    HW139159   3.254   1.457   3.241 -0.1255 -0.4683 -0.1098
12782SOL    HW239160   3.279   1.586   3.166 -0.5408 -0.2226  0.1782
12783SOL     OW39161   4.299   7.857   5.781  0.2486  0.4591  0.3648
12783SOL    HW139162   4.272   7.946   5.761  1.3482  0.8991  0.7962
12783SOL    HW239163   4.381   7.867   5.830  0.9734 -0.8276 -0.5682
12784SOL     OW39164   5.103   7.734   6.627  0.2418  0.4832 -0.0385
12784SOL    HW139165   5.018   7.706   6.663  0.1869 -0.4911 -0.8872
12784SOL    HW239166   5.156   7.754   6.704 -0.5099  0.3453  0.5288
12785SOL     OW39167   0.168   2.843   7.599  0.0783  0.0862  0.2053
12785SOL    HW139168   0.203   2.904   7.664  2.0892 -1.0192  0.1942
12785SOL    HW239169   0.171   2.757   7.643 -1.5576 -0.2004 -0.2204
12786SOL     OW39170   0.051   0.008   1.023 -0.2117  0.0605  0.4898
12786SOL    HW139171  -0.044   0.005   1.008  0.1043  1.8988 -2.2317
12786SOL    HW239172   0.064   0.083   1.081 -0.5414 -1.2718  2.3418
12787SOL     OW39173   5.329   2.993   1.517  0.2703 -0.2558 -0.2764
12787SOL    HW139174   5.310   2.994   1.424 -1.0993  1.0479 -0.0100
12787SOL    HW239175   5.395   3.061   1.529  0.0780 -0.0758 -0.2312
12788SOL     OW39176   6.896   5.097   4.555 -0.1255 -0.0196 -0.3022
12788SOL    HW139177   6.955   5.109   4.629 -0.6924 -1.6193  0.4456
12788SOL    HW239178   6.948   5.048   4.491 -0.3836 -0.7968  0.0652
12789SOL     OW39179   6.758   4.021   5.387  0.6485  0.2388  0.4547
12789SOL    HW139180   6.779   4.104   5.430 -0.8252  0.7774  0.1698
12789SOL    HW239181   6.678   3.991   5.429  1.5681 -1.4373  1.0631
12790SOL     OW39182   0.022   7.205   4.988  0.2914  0.0033 -0.1834
12790SOL    HW139183   0.024   7.236   4.898 -0.8942 -0.1572 -0.2661
12790SOL    HW239184   0.053   7.280   5.039 -1.8936  1.1293 -0.4487
12791SOL     OW39185   0.578   0.639   4.369  0.2954  0.2758 -0.0748
12791SOL    HW139186   0.543   0.612   4.284  0.5092  3.7783 -1.3563
12791SOL    HW239187   0.652   0.696   4.347 -0.5324  2.3870  2.4045
12792SOL     OW39188   7.709   0.141   6.841 -0.4233  0.0893 -0.1718
12792SOL    HW139189   7.698   0.119   6.934 -1.3595 -0.0023 -0.3020
12792SOL    HW239190   7.780   0.205   6.840  2.4889 -2.9833  0.1994
12793SOL     OW39191   6.798   6.053   3.212 -0.0471  0.2315 -0.3245
12793SOL    HW139192   6.786   6.037   3.118 -1.4083  0.2736 -0.1663
12793SOL    HW239193   6.754   5.979   3.255  0.2942  0.3786  0.2863
12794SOL     OW39194   0.891   6.202   3.510  0.4700  0.8008 -0.0033
12794SOL    HW139195   0.848   6.123   3.542  0.9772  1.0316  1.2563
12794SOL    HW239196   0.940   6.173   3.433  2.0878 -0.4866  1.4709
12795SOL     OW39197   2.570   1.516   5.320 -0.0147  0.0878  0.0069
12795SOL    HW139198   2.569   1.612   5.323 -0.9566  0.1387 -1.3814
12795SOL    HW239199   2.580   1.490   5.411  2.0188  1.5121  0.2327
12796SOL     OW39200   0.836   4.056   2.315 -0.1816  0.3274 -0.0076
12796SOL    HW139201   0.780   3.988   2.352  0.5436 -0.2000  0.1111
12796SOL    HW239202   0.851   4.028   2.225  1.0637 -0.2585  0.3786
12797SOL     OW39203   4.751   2.622   5.682 -0.4922 -0.2523  0.4115
12797SOL    HW139204   4.754   2.564   5.606  0.8769  0.6206 -0.2138
12797SOL    HW239205   4.841   2.652   5.693 -0.4547 -1.1423  2.9993
12798SOL     OW39206   1.798   3.765   3.760  0.1911  0.4904 -0.0593
12798SOL    HW139207   1.889   3.758   3.788 -0.2193 -0.1339  1.1791
12798SOL    HW239208   1.798   3.734   3.670  1.1679  0.2655  0.0071
12799SOL     OW39209   4.145   4.898   6.885 -0.2823 -0.5952  0.1441
12799SOL    HW139210   4.056   4.898   6.919 -1.1501 -1.5257 -2.0152
12799SOL    HW239211   4.182   4.982   6.913 -2.3179  0.4243 -0.1559
12800SOL     OW39212   3.821   4.800   1.214  0.4369  0.0146  0.2334
12800SOL    HW139213   3.916   4.797   1.204  0.3917  1.1113 -0.5873
12800SOL    HW239214   3.808   4.813   1.308  1.0774 -0.5025  0.4040
12801SOL     OW39215   2.479   2.582   6.889 -0.4023  0.1352  0.1659
12801SOL    HW139216   2.457   2.576   6.982 -1.8532  0.8278 -0.1175
12801SOL    HW239217   2.428   2.514   6.847  1.0171 -0.8407 -0.0149
12802SOL     OW39218   2.548   0.972   3.414  0.1882 -0.4769  0.5051
12802SOL    HW139219   2.498   0.989   3.335  2.2233  0.1853 -0.6726
12802SOL    HW239220   2.491   0.917   3.467 -2.0508  0.8518 -0.4794
12803SOL     OW39221   4.658   0.345   7.216  0.5912 -0.3069 -0.3507
12803SOL    HW139222   4.650   0.372   7.125  2.2658 -1.1354 -0.7666
12803SOL    HW239223   4.731   0.283   7.216  0.7174 -0.1785  1.5860
12804SOL     OW39224   4.037   5.870   4.255  0.2295  0.1561 -0.6200
12804SOL    HW139225   4.109   5.819   4.291  0.6266  0.1494 -1.4065
12804SOL    HW239226   4.055   5.960   4.283 -0.8149 -0.2069  1.3059
12805SOL     OW39227   1.277   5.121   4.362 -0.0978 -0.1381  0.5108
12805SOL    HW139228   1.222   5.193   4.392 -0.3275  0.8447 -2.2001
12805SOL    HW239229   1.367   5.152   4.377 -0.2109  0.2530  0.3902
12806SOL     OW39230   1.271   3.090   7.830 -0.0104 -0.1402  0.3899
12806SOL    HW139231   1.336   3.129   7.773 -1.6390  0.1786 -1.2686
12806SOL    HW239232   1.274   3.143   7.910  1.0588  0.4671 -0.0443
12807SOL     OW39233   7.331   7.655   0.242 -0.6643 -0.1789  0.0087
12807SOL    HW139234   7.279   7.575   0.247 -2.0750  0.7543  0.9231
12807SOL    HW239235   7.358   7.661   0.151  0.6143 -2.3892  0.2058
12808SOL     OW39236   0.139   7.010   0.517 -0.0148  0.4698  0.2633
12808SOL    HW139237   0.047   7.023   0.541  0.3279  3.0905  0.3293
12808SOL    HW239238   0.142   7.028   0.423 -0.2860 -3.8856 -0.6871
12809SOL     OW39239   7.003   1.613   6.120 -0.4504 -0.2881 -0.0224
12809SOL    HW139240   6.918   1.573   6.103 -0.8647  0.2351  0.8285
12809SOL    HW239241   7.059   1.540   6.147 -0.1192 -0.9417 -2.3161
12810SOL     OW39242   0.500   6.085   5.518 -0.4610  0.3845 -0.2015
12810SOL    HW139243   0.558   6.071   5.443  0.0913 -1.0408  0.4664
12810SOL    HW239244   0.428   6.023   5.504  0.5135 -1.1213  1.3110
12811SOL     OW39245   4.387   2.004   1.223  0.4299 -0.2375  0.2284
12811SOL    HW139246   4.468   1.992   1.273  2.2349 -0.2482 -2.5874
12811SOL    HW239247   4.360   1.916   1.199  0.9672 -0.0977 -0.9237
12812SOL     OW39248   3.596   5.479   3.454  0.3579 -0.6849  0.2192
12812SOL    HW139249   3.523   5.447   3.401  0.8025  0.0162 -0.8333
12812SOL    HW239250   3.559   5.489   3.542 -1.2783  1.1974 -0.6190
12813SOL     OW39251   7.409   0.752   6.365 -0.3830  0.5438 -0.0503
12813SOL    HW139252   7.437   0.691   6.296  1.3991  1.8659 -0.5485
12813SOL    HW239253   7.314   0.747   6.365 -0.3665 -0.2092 -1.9692
12814SOL     OW39254   4.463   3.958   1.911 -0.4111 -0.0186 -0.1803
12814SOL    HW139255   4.440   4.003   1.992  0.8697 -0.3286  0.3781
12814SOL    HW239256   4.430   4.014   1.841 -0.5548  0.7955  0.5357
12815SOL     OW39257   1.536   7.740   2.827  0.3230  0.0629 -0.0406
12815SOL    HW139258   1.501   7.821   2.864 -1.7202 -1.0463  0.5143
12815SOL    HW239259   1.459   7.689   2.803  1.5951 -1.4707 -0.9457
12816SOL     OW39260   2.567   0.837   7.090 -0.3236 -0.0992 -0.3523
12816SOL    HW139261   2.624   0.810   7.162 -0.4620  0.8607  0.1226
12816SOL    HW239262   2.490   0.873   7.133 -0.3543  0.5871 -0.9817
12817SOL     OW39263   0.613   0.935   6.451  0.3116  0.5786 -0.0515
12817SOL    HW139264   0.610   0.870   6.382 -1.8587 -1.5408  1.9534
12817SOL    HW239265   0.658   0.892   6.524 -1.9181  0.9271  1.6101
12818SOL     OW39266   6.321   5.426   0.170 -0.3019 -0.1136  0.4953
12818SOL    HW139267   6.275   5.502   0.134 -1.2624 -0.3978  1.1002
12818SOL    HW239268   6.342   5.452   0.260  0.1728 -0.2186  0.4147
12819SOL     OW39269   4.279   4.575   7.243  0.5898 -0.1423 -0.1699
12819SOL    HW139270   4.241   4.496   7.280 -0.4310  0.4067 -0.0055
12819SOL    HW239271   4.311   4.549   7.157 -0.7993 -0.4806 -0.6059
12820SOL     OW39272   4.768   7.851   6.792  0.0649  0.0077 -0.0741
12820SOL    HW139273   4.838   7.806   6.839  0.5864 -0.9996 -1.7731
12820SOL    HW239274   4.689   7.800   6.811  0.1708 -0.0754  0.1440
12821SOL     OW39275   4.619   6.066   7.055 -0.1461 -0.3340  0.1992
12821SOL    HW139276   4.700   6.098   7.096  1.6443 -1.8479 -2.0022
12821SOL    HW239277   4.610   6.119   6.976 -1.0335 -0.5201  0.1758
12822SOL     OW39278   0.317   3.508   0.378  0.3800  0.3069  0.3039
12822SOL    HW139279   0.370   3.484   0.454  1.4532  0.6893 -0.3143
12822SOL    HW239280   0.289   3.598   0.395 -0.6608 -0.1178  0.9432
12823SOL     OW39281   2.751   0.949   2.685 -0.3824 -0.2644 -0.0759
12823SOL    HW139282   2.787   0.876   2.736  0.3584  1.2925  1.6777
12823SOL    HW239283   2.665   0.964   2.723 -0.5348 -0.2274 -0.4393
12824SOL     OW39284   2.106   3.197   2.785 -0.4232 -0.4128  0.2787
12824SOL    HW139285   2.170   3.267   2.773 -0.8417 -0.2970 -1.5350
12824SOL    HW239286   2.022   3.242   2.798 -0.6627 -0.5605 -0.7019
12825SOL     OW39287   7.256   7.338   1.964 -0.3175 -0.2256  0.7278
12825SOL    HW139288   7.285   7.416   1.917  1.1061 -0.4496  1.2310
12825SOL    HW239289   7.333   7.281   1.966 -1.5603 -2.0030 -0.3745
12826SOL     OW39290   5.780   0.365   3.762  0.0527 -0.4636  0.0091
12826SOL    HW139291   5.732   0.360   3.679  0.8489 -1.9807 -0.3901
12826SOL    HW239292   5.777   0.275   3.796  0.2390  0.0244  1.3434
12827SOL     OW39293   3.108   0.803   2.984 -0.2308  0.0912  0.0124
12827SOL    HW139294   3.115   0.899   2.985  0.6417  0.0344  1.2402
12827SOL    HW239295   3.182   0.775   2.930  0.6483  0.0473  1.2191
12828SOL     OW39296   5.468   2.735   5.162  0.0079 -0.0197  0.5222
12828SOL    HW139297   5.448   2.740   5.068  1.8278 -0.7326  0.0850
12828SOL    HW239298   5.406   2.671   5.196 -0.0634 -0.4302 -0.3564
12829SOL     OW39299   0.038   3.346   0.472  0.6509  0.0362 -0.2840
12829SOL    HW139300   0.034   3.438   0.445 -0.3921 -0.3237 -1.3992
12829SOL    HW239301   0.087   3.303   0.401 -2.3141 -0.9644 -1.7818
12830SOL     OW39302   7.912   0.496   7.346  0.3092 -0.1048 -0.1868
12830SOL    HW139303   8.002   0.529   7.338 -0.7214  2.3439 -2.4091
12830SOL    HW239304   7.911   0.418   7.290  1.2998 -0.7654  0.6863
12831SOL     OW39305   1.285   7.496   4.779  0.1215  0.3567 -0.5060
12831SOL    HW139306   1.238   7.415   4.757 -0.3031  0.2442  0.7462
12831SOL    HW239307   1.374   7.481   4.749  0.6831 -1.5963  1.9951
12832SOL     OW39308   1.812   2.143   5.567  0.1568  0.0763  0.0484
12832SOL    HW139309   1.828   2.183   5.652 -0.4279  0.8592 -0.2108
12832SOL    HW239310   1.867   2.193   5.506 -0.5257  0.4493 -0.2642
12833SOL     OW39311   4.057   2.336   3.407 -0.3378 -0.1708  0.1638
12833SOL    HW139312   4.004   2.282   3.347  1.0013 -0.8113 -0.4703
12833SOL    HW239313   4.088   2.408   3.353 -0.4889  0.1633  0.5192
12834SOL     OW39314   6.245   4.456   6.242 -0.5513  0.0002 -0.0883
12834SOL    HW139315   6.199   4.531   6.206  1.3784  0.8007 -0.9590
12834SOL    HW239316   6.229   4.385   6.180 -2.4610 -0.3726  0.7918
12835SOL     OW39317   6.689   4.696   2.062  0.3993 -0.1833 -0.1330
12835SOL    HW139318   6.722   4.779   2.028  2.1025 -1.0368 -0.6519
12835SOL    HW239319   6.754   4.631   2.033 -0.0606 -1.4611  1.6152
12836SOL     OW39320   0.694   0.493   6.392 -0.4352 -0.4655  0.7133
12836SOL    HW139321   0.783   0.459   6.382 -0.5111 -0.6842  0.8018
12836SOL    HW239322   0.657   0.490   6.303 -0.4857 -0.7259  0.7451
12837SOL     OW39323   6.840   6.194   7.534  0.5680 -0.2864  0.0432
12837SOL    HW139324   6.824   6.107   7.498  0.7844  0.0250 -0.8297
12837SOL    HW239325   6.920   6.224   7.491 -0.2281  0.8630 -0.6655
12838SOL     OW39326   1.728   2.823   3.641 -0.1890 -0.4289 -0.1691
12838SOL    HW139327   1.772   2.742   3.666  0.1625  0.4959  2.4094
12838SOL    HW239328   1.635   2.801   3.645 -0.2243  0.0073  3.5199
12839SOL     OW39329   3.110   5.738   5.358 -0.1129  0.0628  0.2273
12839SOL    HW139330   3.201   5.758   5.378 -0.0237 -0.3835  0.2815
12839SOL    HW239331   3.060   5.778   5.429 -0.1198  2.0270 -0.8536
12840SOL     OW39332   0.889   3.797   5.404 -0.1671  0.0029 -0.5530
12840SOL    HW139333   0.983   3.799   5.383  0.0137 -0.7899  0.1615
12840SOL    HW239334   0.873   3.706   5.430 -0.5757  0.7381  1.8786
12841SOL     OW39335   1.816   4.205   3.874  0.4806  0.7056  0.5586
12841SOL    HW139336   1.906   4.181   3.851  0.3529  0.2094  0.5566
12841SOL    HW239337   1.776   4.235   3.793 -0.3385 -2.1926 -0.1791
12842SOL     OW39338   5.019   4.511   5.468  0.2090  0.3068  0.5328
12842SOL    HW139339   4.948   4.488   5.408  1.7917  1.4705 -1.8810
12842SOL    HW239340   4.988   4.589   5.513 -0.2096  0.6220 -0.2833
12843SOL     OW39341   7.744   0.968   0.138  0.3532  0.4152  0.2661
12843SOL    HW139342   7.688   0.995   0.210 -0.3013  0.0026 -0.0882
12843SOL    HW239343   7.702   1.004   0.060 -0.2195 -1.1315 -0.1552
12844SOL     OW39344   6.717   0.347   3.415 -0.3540  0.7598  0.5080
12844SOL    HW139345   6.770   0.385   3.485 -0.7547 -1.2617  1.9499
12844SOL    HW239346   6.689   0.262   3.449  0.7819 -1.0122 -2.7338
12845SOL     OW39347   6.873   1.445   2.314 -0.0559 -0.1569 -0.2404
12845SOL    HW139348   6.819   1.397   2.252 -0.8294  0.1771  0.1676
12845SOL    HW239349   6.876   1.390   2.392  1.0406 -0.6486 -0.6224
12846SOL     OW39350   4.036   7.730   6.666  0.4091 -0.5401 -0.5096
12846SOL    HW139351   4.122   7.721   6.624 -0.4395 -0.7293 -2.2256
12846SOL    HW239352   3.978   7.761   6.597 -0.5204  1.4178  1.0859
12847SOL     OW39353   1.083   5.728   4.490 -0.0102  0.1977 -0.0010
12847SOL    HW139354   1.094   5.767   4.404 -0.5891  1.4088  0.4667
12847SOL    HW239355   1.009   5.668   4.479 -0.2736  0.5705 -0.2721
12848SOL     OW39356   1.072   6.405   0.073  0.1749  0.0328  0.3121
12848SOL    HW139357   1.066   6.498   0.093  0.4769  0.2407 -0.5654
12848SOL    HW239358   1.062   6.362   0.158 -0.2549  0.8491  0.6857
12849SOL     OW39359   2.647   3.259   2.381  0.1853  0.3124  0.3652
12849SOL    HW139360   2.739   3.275   2.402 -0.1504  1.8481  0.6830
12849SOL    HW239361   2.630   3.314   2.305 -0.1015 -1.0364 -0.5645
12850SOL     OW39362   4.742   3.745   3.204  0.1208 -0.1974 -0.3550
12850SOL    HW139363   4.820   3.689   3.212 -1.4887 -2.5497 -0.6729
12850SOL    HW239364   4.739   3.793   3.286  2.8635  1.2358 -1.0246
12851SOL     OW39365   2.030   3.937   6.077 -0.8165 -0.2184 -0.0288
12851SOL    HW139366   2.008   3.844   6.072  0.7598 -0.6206  0.2340
12851SOL    HW239367   2.125   3.939   6.067 -0.5312  1.1451  2.6077
12852SOL     OW39368   5.617   6.032   6.244  0.3216  0.5147  0.2538
12852SOL    HW139369   5.663   5.979   6.309  1.0198  0.2626 -0.4432
12852SOL    HW239370   5.640   6.122   6.266  1.6755  0.3511 -0.4975
12853SOL     OW39371   3.283   5.756   1.657  0.1061  0.3401 -0.1785
12853SOL    HW139372   3.304   5.849   1.668  2.6018 -0.2594  0.3862
12853SOL    HW239373   3.231   5.734   1.734  0.7403  0.9187  0.4174
12854SOL     OW39374   6.780   2.672   7.824 -0.2621  0.1382 -0.0445
12854SOL    HW139375   6.795   2.639   7.913 -1.5727  1.4979  0.7026
12854SOL    HW239376   6.732   2.601   7.781 -1.6944  0.3998  1.0660
12855SOL     OW39377   4.054   3.929   2.373  0.2838  0.3824  0.0099
12855SOL    HW139378   3.990   3.866   2.407  0.6722 -0.1947 -0.3306
12855SOL    HW239379   4.050   4.002   2.434  1.9768 -1.2248  2.1161
12856SOL     OW39380   7.212   0.189   4.318  0.0807 -0.1551  1.0001
12856SOL    HW139381   7.254   0.168   4.402  0.9162  0.5485  0.7740
12856SOL    HW239382   7.235   0.116   4.261 -0.9999 -0.9338  1.5543
12857SOL     OW39383   4.533   6.066   1.392 -0.1287  0.2988 -0.2036
12857SOL    HW139384   4.557   5.974   1.382  1.4266  0.5408  1.1327
12857SOL    HW239385   4.466   6.066   1.461  0.7364  0.2853  0.6415
12858SOL     OW39386   1.886   1.823   3.375  0.3014  0.5388  0.0960
12858SOL    HW139387   1.889   1.918   3.375  1.9592  0.5117  0.2296
12858SOL    HW239388   1.795   1.801   3.355 -0.7383  2.1396  2.8356
12859SOL     OW39389   7.159   4.701   5.465 -1.1202  0.1654 -0.1089
12859SOL    HW139390   7.170   4.795   5.453  0.3457  0.0918  0.6305
12859SOL    HW239391   7.212   4.679   5.541  0.2902 -1.6107 -1.5492
12860SOL     OW39392   4.040   0.256   0.170  0.2242 -0.1438  0.0421
12860SOL    HW139393   4.084   0.251   0.255 -0.9820 -1.2293  0.6253
12860SOL    HW239394   4.110   0.243   0.106  1.3541  1.8772  0.7906
12861SOL     OW39395   1.685   1.231   0.316 -0.5635 -0.0165  0.2175
12861SOL    HW139396   1.605   1.257   0.360  0.2008  2.2272  0.3406
12861SOL    HW239397   1.731   1.313   0.297  1.1165 -1.1699 -0.9704
12862SOL     OW39398   7.189   1.615   1.705 -0.5894  0.3697 -0.0106
12862SOL    HW139399   7.183   1.666   1.625 -3.3364 -0.3178 -0.3055
12862SOL    HW239400   7.103   1.625   1.746  0.3770 -0.2366  2.2681
12863SOL     OW39401   0.140   5.284   4.074  0.4659  1.0589  0.3653
12863SOL    HW139402   0.140   5.370   4.033  0.3914  0.9391  0.1090
12863SOL    HW239403   0.212   5.287   4.137  0.3686  1.3586  0.4631
12864SOL     OW39404   4.561   4.984   6.592  0.1831 -0.0141  0.4338
12864SOL    HW139405   4.489   4.936   6.633 -0.5649  0.7555  0.0439
12864SOL    HW239406   4.569   5.064   6.645  0.7845 -0.1140  0.5013
12865SOL     OW39407   3.059   4.413   6.373 -0.1096 -0.3155  0.2527
12865SOL    HW139408   2.980   4.461   6.399  2.5361  2.9268  2.7365
12865SOL    HW239409   3.063   4.339   6.434  0.3529  1.2421  2.1603
12866SOL     OW39410   6.299   3.088   2.973  0.0854 -0.0145  0.5202
12866SOL    HW139411   6.351   3.013   3.000 -0.4301 -0.0783  1.3668
12866SOL    HW239412   6.288   3.078   2.879 -1.0945 -1.6987  0.8289
12867SOL     OW39413   5.183   2.430   1.954  0.4953 -0.5568 -0.0658
12867SOL    HW139414   5.127   2.352   1.952 -0.0931 -0.0991 -2.2176
12867SOL    HW239415   5.266   2.401   1.917 -0.0373  0.0514 -1.7843
12868SOL     OW39416   0.937   1.232   7.091  0.4208 -0.1160  0.0161
12868SOL    HW139417   0.998   1.260   7.023 -1.5958 -1.1681 -2.3336
12868SOL    HW239418   0.978   1.155   7.131  1.4590  0.2731 -0.2996
12869SOL     OW39419   4.293   2.123   1.628  0.5186 -0.5618 -0.4597
12869SOL    HW139420   4.305   2.030   1.608  3.1991 -0.2511 -0.5714
12869SOL    HW239421   4.362   2.143   1.692 -0.5925  1.1450  0.2458
12870SOL     OW39422   5.102   0.106   5.399 -0.2594  0.7964  0.2915
12870SOL    HW139423   5.072   0.139   5.315 -1.2895 -0.4333  0.1526
12870SOL    HW239424   5.119   0.013   5.383  0.6597  0.8068  1.1538
12871SOL     OW39425   4.359   1.634   4.312  0.1864  0.2283  0.4673
12871SOL    HW139426   4.391   1.544   4.323  0.6934  0.2744 -0.5980
12871SOL    HW239427   4.417   1.687   4.366  1.4201  0.2152 -0.8257
12872SOL     OW39428   2.414   4.161   0.737 -0.3489  0.1837  0.2111
12872SOL    HW139429   2.371   4.147   0.821 -0.5290  0.7249  0.2092
12872SOL    HW239430   2.498   4.116   0.746 -0.3341  0.3064  0.7098
12873SOL     OW39431   6.873   4.885   7.312  0.0767  0.4986 -0.2846
12873SOL    HW139432   6.876   4.974   7.278 -1.1827 -0.1920 -2.2646
12873SOL    HW239433   6.797   4.884   7.371  0.1905  0.7768 -0.1342
12874SOL     OW39434   1.666   7.048   3.399  0.4760 -0.3021 -0.8320
12874SOL    HW139435   1.590   6.991   3.416 -0.2742  0.9062 -0.0555
12874SOL    HW239436   1.676   7.098   3.480  0.3073  1.6037 -1.9804
12875SOL     OW39437   4.866   4.157   7.265 -0.0231  0.3794  0.5341
12875SOL    HW139438   4.842   4.192   7.179  1.6104  2.7134  0.9865
12875SOL    HW239439   4.784   4.159   7.315 -1.1484 -1.6689 -1.1362
12876SOL     OW39440   1.916   7.351   0.109  0.7175 -0.4949 -0.1424
12876SOL    HW139441   1.880   7.398   0.184  1.0654 -0.8621  0.2585
12876SOL    HW239442   1.998   7.313   0.142  1.6356  0.6075 -1.1441
12877SOL     OW39443   1.586   5.246   7.552  0.3970 -0.0734 -0.6358
12877SOL    HW139444   1.491   5.233   7.547  0.1648  0.3922  1.8065
12877SOL    HW239445   1.599   5.336   7.524  0.1249 -0.1785 -1.1020
12878SOL     OW39446   7.047   5.796   0.262 -0.3520 -0.0372  0.1131
12878SOL    HW139447   7.009   5.880   0.236 -1.3581 -0.1003  1.3460
12878SOL    HW239448   6.973   5.735   0.264  0.3812 -0.9776 -0.8407
12879SOL     OW39449   1.355   3.917   1.027  0.3260  0.0453 -0.1236
12879SOL    HW139450   1.260   3.932   1.032 -0.0507 -1.3922 -2.3947
12879SOL    HW239451   1.366   3.825   1.051  1.3923  0.6797  1.9844
12880SOL     OW39452   6.524   2.905   4.662 -0.8757 -0.2964  0.3359
12880SOL    HW139453   6.440   2.933   4.626 -0.9574  1.8321  2.0284
12880SOL    HW239454   6.580   2.982   4.654  0.6655 -1.4457 -0.0514
12881SOL     OW39455   7.312   0.235   3.131 -0.3118 -0.0714  0.4213
12881SOL    HW139456   7.336   0.321   3.096  0.0631 -0.0978  0.6130
12881SOL    HW239457   7.372   0.222   3.204 -0.0221 -0.7368  0.0610
12882SOL     OW39458   1.179   5.941   2.190  0.3566  0.1422  0.0959
12882SOL    HW139459   1.206   5.912   2.277 -0.0114 -0.3447  0.0527
12882SOL    HW239460   1.191   6.036   2.191  1.3188  0.0161  0.3331
12883SOL     OW39461   4.265   2.711   3.557  0.4315 -0.0852  0.3174
12883SOL    HW139462   4.318   2.790   3.564 -0.7274  0.6767  0.5657
12883SOL    HW239463   4.221   2.703   3.642 -0.1127 -0.5223  0.0023
12884SOL     OW39464   1.867   2.669   6.952 -0.3948 -0.1905  0.0438
12884SOL    HW139465   1.947   2.625   6.980 -0.9385 -0.6100  0.9468
12884SOL    HW239466   1.861   2.649   6.858 -0.7416 -2.2504  0.4741
12885SOL     OW39467   5.327   0.466   0.521 -0.6511  0.6913 -0.2860
12885SOL    HW139468   5.401   0.462   0.581 -0.7930 -0.2516 -0.1599
12885SOL    HW239469   5.366   0.476   0.435 -0.4691  2.9063  0.0309
12886SOL     OW39470   5.190   4.667   4.691  0.1422 -0.2972  0.3332
12886SOL    HW139471   5.242   4.600   4.647 -0.4134 -0.4555 -0.0770
12886SOL    HW239472   5.220   4.664   4.782  0.7049 -0.5302  0.1437
12887SOL     OW39473   4.333   7.134   2.677  0.0305  0.1510  0.2720
12887SOL    HW139474   4.339   7.218   2.722  1.1403  0.5718 -0.6253
12887SOL    HW239475   4.348   7.068   2.745  3.7196  0.8333  0.2099
12888SOL     OW39476   2.741   5.617   7.654  0.0687 -0.3983  0.8924
12888SOL    HW139477   2.768   5.708   7.662 -0.1896 -0.1537 -0.8615
12888SOL    HW239478   2.645   5.621   7.645  0.1285 -0.7632 -0.0047
12889SOL     OW39479   2.632   3.511   1.795 -0.3841  0.1579 -0.4119
12889SOL    HW139480   2.620   3.600   1.760  0.8561 -0.8061 -3.4706
12889SOL    HW239481   2.702   3.521   1.861 -1.3735  1.6916  0.4448
12890SOL     OW39482   3.724   7.836   7.712  0.4946 -0.2552  0.3297
12890SOL    HW139483   3.706   7.780   7.637  0.2745 -0.1705  0.3167
12890SOL    HW239484   3.810   7.874   7.694 -1.1738  2.7447 -1.7724
12891SOL     OW39485   1.537   0.728   6.685  0.1355 -0.5244  0.6804
12891SOL    HW139486   1.528   0.767   6.772  0.6051 -0.6420  0.7832
12891SOL    HW239487   1.564   0.801   6.629  2.0792 -0.9171  1.0854
12892SOL     OW39488   0.822   7.867   0.767 -0.1652  0.1514 -0.0575
12892SOL    HW139489   0.846   7.807   0.838  1.5314  1.5633  0.6026
12892SOL    HW239490   0.726   7.868   0.768 -0.1957 -1.7104  0.6277
12893SOL     OW39491   6.244   0.793   7.216 -0.2938 -0.4537 -0.1190
12893SOL    HW139492   6.166   0.753   7.177 -0.1853  0.8909 -1.7517
12893SOL    HW239493   6.303   0.807   7.142  0.8343  0.0655  0.8653
12894SOL     OW39494   2.453   7.434   7.760  0.3314 -0.0936 -0.4990
12894SOL    HW139495   2.391   7.457   7.829 -0.6568 -0.7634 -1.1532
12894SOL    HW239496   2.403   7.443   7.679  0.8785 -1.3406 -0.9876
12895SOL     OW39497   7.499   1.044   5.378  0.2399 -0.1718 -0.4882
12895SOL    HW139498   7.428   1.061   5.316 -1.6388  0.0859  1.6359
12895SOL    HW239499   7.532   0.958   5.353 -1.5609 -0.7802 -0.8793
12896SOL     OW39500   2.254   6.798   7.205 -0.1585  0.0039  0.3795
12896SOL    HW139501   2.164   6.820   7.183  0.5127  2.2040 -0.2837
12896SOL    HW239502   2.262   6.819   7.298 -0.2512  0.0426  0.3789
12897SOL     OW39503   7.820   4.958   1.360 -0.0031  0.5197 -0.2594
12897SOL    HW139504   7.840   4.958   1.267 -0.7723 -0.0618 -0.4238
12897SOL    HW239505   7.825   4.866   1.386 -0.9380  0.5420  0.0259
12898SOL     OW39506   6.889   2.355   0.700 -0.1784  0.5829  0.3073
12898SOL    HW139507   6.886   2.451   0.694  0.0921  0.5749 -0.0134
12898SOL    HW239508   6.798   2.328   0.705 -0.2689  0.8405  0.0703
12899SOL     OW39509   1.069   4.114   1.504  0.5395  0.0223  0.1936
12899SOL    HW139510   1.125   4.067   1.442 -1.7019 -0.5130 -1.4859
12899SOL    HW239511   1.054   4.199   1.463  1.1493  0.6395  1.2402
12900SOL     OW39512   7.635   5.508   2.279 -0.1924  0.1732  0.1106
12900SOL    HW139513   7.706   5.562   2.245 -0.5173 -0.6186 -1.9474
12900SOL    HW239514   7.615   5.448   2.207 -2.0904 -0.4391  1.1173
12901SOL     OW39515   4.956   5.088   2.110 -0.0891 -0.1037  0.6825
12901SOL    HW139516   4.996   5.136   2.037 -0.9683  0.7235  0.7293
12901SOL    HW239517   4.922   5.008   2.070  0.0371  0.0237  0.3118
12902SOL     OW39518   5.249   1.740   0.790  0.3390  0.8488  0.2365
12902SOL    HW139519   5.319   1.806   0.785  0.2712  0.8522 -0.9841
12902SOL    HW239520   5.287   1.663   0.748  0.4981  0.0253  1.8759
12903SOL     OW39521   7.433   5.734   4.118  0.2395 -0.1112  0.1996
12903SOL    HW139522   7.448   5.674   4.045  0.6816 -1.9348  1.7535
12903SOL    HW239523   7.505   5.797   4.113 -0.8316  0.9956 -2.0807
12904SOL     OW39524   7.026   2.360   2.611  0.4523 -0.2517  0.3176
12904SOL    HW139525   7.090   2.389   2.546  1.2753 -0.9148  0.8119
12904SOL    HW239526   6.949   2.336   2.560  0.2361  1.5029 -0.2018
12905SOL     OW39527   1.418   7.138   0.949 -0.5169  0.2110 -0.3774
12905SOL    HW139528   1.429   7.232   0.942  0.4396  0.0835 -0.6808
12905SOL    HW239529   1.325   7.122   0.931 -0.8228  1.1579  0.3536
12906SOL     OW39530   7.166   2.053   7.765 -0.1252  0.1231  0.2766
12906SOL    HW139531   7.261   2.043   7.755 -0.5421 -1.5552 -2.4030
12906SOL    HW239532   7.139   1.974   7.813 -0.2564  0.2779  0.4579
12907SOL     OW39533   1.280   6.688   3.339  0.1331  0.2124 -0.1517
12907SOL    HW139534   1.220   6.759   3.362 -1.8815 -1.6345  0.4567
12907SOL    HW239535   1.258   6.666   3.249 -0.2664 -0.6134  0.1410
12908SOL     OW39536   1.632   1.719   3.800 -0.3536 -0.0716  0.6829
12908SOL    HW139537   1.576   1.670   3.740 -0.5576  0.1385  0.6978
12908SOL    HW239538   1.695   1.655   3.832 -0.6577 -0.3358  0.7520
12909SOL     OW39539   5.559   4.498   0.020 -0.3541 -0.0853 -0.2060
12909SOL    HW139540   5.625   4.568   0.021 -0.1323 -0.2913  1.5621
12909SOL    HW239541   5.476   4.545   0.023 -0.2459  0.1258 -0.3968
12910SOL     OW39542   6.067   3.076   2.088  0.3420  0.7027 -0.3081
12910SOL    HW139543   6.014   3.000   2.065 -0.1021  0.9390 -0.0764
12910SOL    HW239544   6.137   3.041   2.143 -0.2492  0.5554  0.3646
12911SOL     OW39545   3.376   5.758   3.991  0.7157  0.1990  0.0377
12911SOL    HW139546   3.460   5.801   4.006  0.8070 -0.2364  0.8014
12911SOL    HW239547   3.363   5.703   4.068  0.3955 -0.8041 -0.7255
12912SOL     OW39548   0.057   4.709   5.637  0.5102  0.6349 -0.0083
12912SOL    HW139549   0.105   4.777   5.590  1.3128  0.9071  1.1699
12912SOL    HW239550   0.057   4.634   5.578 -0.1423  1.5587 -1.2070
12913SOL     OW39551   1.784   7.236   3.565 -0.0124 -0.1985 -0.3403
12913SOL    HW139552   1.722   7.186   3.619 -1.4054  1.2521 -0.5858
12913SOL    HW239553   1.853   7.262   3.626  0.7883 -2.4914 -0.2236
12914SOL     OW39554   3.000   2.932   4.493  0.6624  0.4776 -0.3547
12914SOL    HW139555   2.913   2.909   4.462  0.0332  1.4414  0.6418
12914SOL    HW239556   3.042   2.848   4.513 -0.6737  0.0851  0.8460
12915SOL     OW39557   4.526   0.827   3.659  0.7128  0.0660  0.2526
12915SOL    HW139558   4.542   0.789   3.573  0.2141  0.9564 -0.2538
12915SOL    HW239559   4.434   0.807   3.678  0.2048  1.6840 -0.3900
12916SOL     OW39560   5.802   6.840   2.946 -0.6223 -0.2360 -0.2029
12916SOL    HW139561   5.799   6.769   2.881 -1.4417  1.9672 -2.6379
12916SOL    HW239562   5.712   6.871   2.951 -0.0828  1.3249  0.0398
12917SOL     OW39563   7.153   5.130   6.445  0.3236 -0.2796  0.0320
12917SOL    HW139564   7.073   5.136   6.497 -0.7048  2.8090 -1.7967
12917SOL    HW239565   7.126   5.088   6.363  1.3383 -2.4101  0.7362
12918SOL     OW39566   1.729   2.337   4.796  0.1755  0.5711 -0.2757
12918SOL    HW139567   1.794   2.272   4.769 -1.3933 -0.8243 -0.7475
12918SOL    HW239568   1.652   2.286   4.818 -0.0474  2.0333  2.5519
12919SOL     OW39569   0.645   1.500   6.232  0.0228  0.3756 -0.1492
12919SOL    HW139570   0.562   1.542   6.212 -0.6339  0.0459  1.7572
12919SOL    HW239571   0.711   1.565   6.208 -0.8645  1.4151  0.2035
12920SOL     OW39572   3.976   7.164   3.796 -0.1935  0.0474  0.0375
12920SOL    HW139573   3.898   7.201   3.837  0.5930  1.2439  0.4893
12920SOL    HW239574   4.048   7.217   3.830  0.9668 -1.9315  0.6749
12921SOL     OW39575   1.551   4.343   3.987 -0.1612 -0.5656 -0.3195
12921SOL    HW139576   1.469   4.392   3.989  1.0696  1.5433  0.4951
12921SOL    HW239577   1.585   4.356   3.898 -0.2743 -0.6806 -0.3787
12922SOL     OW39578   1.903   7.431   6.091  0.2317 -0.1522 -0.0125
12922SOL    HW139579   1.929   7.517   6.059  2.2287 -0.0132  1.8345
12922SOL    HW239580   1.807   7.432   6.091  0.2454  1.9382 -0.3011
12923SOL     OW39581   3.562   5.118   1.592 -0.4301 -0.3040  0.7238
12923SOL    HW139582   3.580   5.167   1.512 -2.1822  0.4550  0.7778
12923SOL    HW239583   3.540   5.030   1.562  0.1603 -0.3694  0.4676
12924SOL     OW39584   4.441   7.862   7.782 -0.3751 -0.3689 -0.3478
12924SOL    HW139585   4.501   7.813   7.838 -1.3861  0.2517  1.2752
12924SOL    HW239586   4.432   7.807   7.704  1.6129 -0.8805 -0.2455
12925SOL     OW39587   6.095   1.343   4.027  0.3662  0.7903  0.3795
12925SOL    HW139588   6.001   1.350   4.047  0.0234  0.7249 -1.1072
12925SOL    HW239589   6.112   1.249   4.024  0.7702  0.8137  1.9195
12926SOL     OW39590   5.127   0.379   7.893  0.4909 -0.1546 -0.0171
12926SOL    HW139591   5.155   0.300   7.939 -0.0992  0.9395  2.2899
12926SOL    HW239592   5.036   0.391   7.919  0.4094  1.0028 -0.7941
12927SOL     OW39593   0.346   0.746   0.288  0.4923 -0.0494  0.1655
12927SOL    HW139594   0.437   0.757   0.262  0.4527  0.4370  0.2262
12927SOL    HW239595   0.312   0.679   0.229  0.5033  0.7831 -0.8044
12928SOL     OW39596   2.729   4.172   5.129 -0.2346  0.3504 -0.0160
12928SOL    HW139597   2.791   4.218   5.072 -1.1079 -1.4496 -2.5335
12928SOL    HW239598   2.678   4.241   5.171  1.6359  1.7698 -0.0161
12929SOL     OW39599   5.636   1.267   0.551 -0.4489  0.1774 -0.0627
12929SOL    HW139600   5.660   1.323   0.626  1.6066 -1.5682  0.6434
12929SOL    HW239601   5.644   1.325   0.475  3.9878  0.3275  0.3926
12930SOL     OW39602   6.662   1.606   2.085  0.3026  0.5222  0.0455
12930SOL    HW139603   6.621   1.685   2.120 -0.9786  0.1644 -0.6244
12930SOL    HW239604   6.634   1.602   1.994 -1.4897 -1.9121  0.6535
12931SOL     OW39605   5.116   3.101   6.270  0.0806  0.3036  0.1551
12931SOL    HW139606   5.041   3.042   6.268  0.2307  0.1417 -0.7210
12931SOL    HW239607   5.159   3.082   6.354  0.2290 -0.9470 -0.2000
12932SOL     OW39608   3.636   3.235   2.653  0.0686  0.6962 -0.0487
12932SOL    HW139609   3.541   3.250   2.650 -0.2074 -1.0725 -0.6211
12932SOL    HW239610   3.671   3.298   2.590 -0.7848  0.9211 -0.3113
12933SOL     OW39611   0.676   2.821   1.066  0.0308  0.4644 -0.1703
12933SOL    HW139612   0.715   2.902   1.101 -2.1652  1.1342  0.8023
12933SOL    HW239613   0.611   2.852   1.002  0.5657 -0.6128 -1.2482
12934SOL     OW39614   6.915   6.512   7.600  0.2460 -0.2001  0.0064
12934SOL    HW139615   6.859   6.588   7.617 -0.7892 -0.9385 -0.0917
12934SOL    HW239616   6.918   6.465   7.683  2.6048  1.0565  0.6673
12935SOL     OW39617   6.966   7.092   5.755 -0.5027  0.2757  0.1169
12935SOL    HW139618   6.938   7.034   5.684 -2.6570  1.9605 -0.4625
12935SOL    HW239619   6.980   7.177   5.713  0.6206  0.6870  1.2934
12936SOL     OW39620   2.158   5.618   6.964 -0.0177  0.2153 -0.0091
12936SOL    HW139621   2.199   5.534   6.983  0.2927 -0.0866 -1.9150
12936SOL    HW239622   2.162   5.666   7.046 -0.2055 -1.6353  1.1002
12937SOL     OW39623   0.561   6.921   3.748  0.0654 -0.3126  0.3110
12937SOL    HW139624   0.592   6.832   3.759  0.1957 -0.5228 -1.5430
12937SOL    HW239625   0.474   6.912   3.708 -0.3522  0.3685  1.0394
12938SOL     OW39626   1.878   5.308   6.027  0.0268  0.4003  0.0907
12938SOL    HW139627   1.837   5.232   5.985 -2.0454  1.9118 -0.7214
12938SOL    HW239628   1.967   5.309   5.992 -0.2751 -1.0095 -0.7688
12939SOL     OW39629   1.440   5.504   6.420 -0.4823  0.0431  0.4689
12939SOL    HW139630   1.404   5.454   6.347 -0.4650  0.9247 -0.1544
12939SOL    HW239631   1.441   5.443   6.493 -0.9419 -0.7097 -0.1493
12940SOL     OW39632   4.014   7.061   4.655  0.4536  0.2459  0.0425
12940SOL    HW139633   4.055   7.146   4.635  0.7659  0.1205  0.1565
12940SOL    HW239634   4.019   7.054   4.750  0.0740  0.2756  0.0661
12941SOL     OW39635   4.693   2.154   0.609 -0.5152  0.0862  0.0641
12941SOL    HW139636   4.687   2.172   0.703 -0.2500  1.6397 -0.1925
12941SOL    HW239637   4.784   2.177   0.586 -0.5682 -0.3180 -0.5589
12942SOL     OW39638   3.856   0.822   7.524  0.6272  0.1643 -0.1626
12942SOL    HW139639   3.845   0.836   7.430  1.4234 -1.9883 -0.6074
12942SOL    HW239640   3.768   0.798   7.554  0.1816  1.7465 -0.1829
12943SOL     OW39641   1.090   3.001   2.170 -0.5656 -0.2502  0.2629
12943SOL    HW139642   1.149   3.073   2.149 -0.1046 -0.7570 -0.1984
12943SOL    HW239643   1.005   3.027   2.133 -0.6933  0.5681  1.1009
12944SOL     OW39644   3.065   4.625   7.965 -0.0462  0.5066  0.4349
12944SOL    HW139645   3.074   4.639   8.059 -0.1567 -0.7736  0.6416
12944SOL    HW239646   3.009   4.697   7.935  0.1380  1.0212  1.3020
12945SOL     OW39647   4.714   2.171   0.293 -0.4719 -0.6526 -0.1075
12945SOL    HW139648   4.772   2.118   0.240  0.7694 -0.6231  1.1850
12945SOL    HW239649   4.768   2.199   0.368 -2.5928 -2.0152  2.0060
12946SOL     OW39650   7.153   5.243   4.144  0.3849 -0.5547  0.2462
12946SOL    HW139651   7.100   5.315   4.176 -0.5280 -0.5767 -1.1700
12946SOL    HW239652   7.181   5.196   4.223  2.9301  2.6387  1.3396
12947SOL     OW39653   6.538   0.351   6.364 -0.7010 -0.1695 -0.1400
12947SOL    HW139654   6.506   0.351   6.274  0.1810 -1.0659 -0.4674
12947SOL    HW239655   6.572   0.440   6.376 -1.0104  0.0203 -0.6238
12948SOL     OW39656   6.658   5.954   0.329 -0.1552  0.1842 -0.2008
12948SOL    HW139657   6.724   5.969   0.397 -0.2960 -0.2494  0.0354
12948SOL    HW239658   6.646   6.039   0.288 -0.6450  0.6256  0.8400
12949SOL     OW39659   7.445   5.094   7.064 -0.2358 -0.5958 -0.0341
12949SOL    HW139660   7.424   5.166   7.004 -1.2317 -0.3935  0.5444
12949SOL    HW239661   7.370   5.034   7.057  0.1163 -1.0749  0.2432
12950SOL     OW39662   7.509   4.161   2.295 -0.7315 -0.3640  0.6994
12950SOL    HW139663   7.605   4.156   2.287 -0.7915 -0.6854  0.1399
12950SOL    HW239664   7.478   4.153   2.205 -1.3554 -1.9482  1.0542
12951SOL     OW39665   4.241   0.317   7.675 -0.4503  0.2856  0.6502
12951SOL    HW139666   4.216   0.409   7.677 -0.6872  0.2127  1.5622
12951SOL    HW239667   4.241   0.291   7.767  0.8335 -0.3002  0.4933
12952SOL     OW39668   6.561   0.415   4.401 -0.0318  0.5538  0.4762
12952SOL    HW139669   6.623   0.408   4.329  0.2401  0.6183  0.7012
12952SOL    HW239670   6.609   0.383   4.477 -0.0512  1.2311  0.7800
12953SOL     OW39671   7.351   7.032   5.101  0.8409 -0.3977  0.0053
12953SOL    HW139672   7.326   7.059   5.190  0.6942  2.2007 -0.7718
12953SOL    HW239673   7.268   7.013   5.058  0.5809  2.1949 -0.7191
12954SOL     OW39674   5.608   7.872   1.524  0.2097  0.3752  0.0757
12954SOL    HW139675   5.655   7.799   1.563  0.5550  0.5446 -0.0257
12954SOL    HW239676   5.617   7.859   1.430  0.0635  0.4141  0.0562
12955SOL     OW39677   2.084   0.608   3.888 -0.2392  0.4111 -0.4570
12955SOL    HW139678   2.167   0.644   3.919  0.2514 -0.0211 -1.2424
12955SOL    HW239679   2.026   0.684   3.885 -0.2862  0.4780  1.4138
12956SOL     OW39680   5.001   5.022   2.653  0.0564 -0.2041 -0.4985
12956SOL    HW139681   4.918   5.062   2.678  0.8729  0.7276  0.8264
12956SOL    HW239682   5.021   5.060   2.567 -0.1976  0.6797 -0.1776
12957SOL     OW39683   5.221   7.626   6.865 -0.3502  0.4581  0.3327
12957SOL    HW139684   5.299   7.663   6.905 -0.4480  0.4514  0.5338
12957SOL    HW239685   5.253   7.562   6.802 -0.1923  0.4601  0.4119
12958SOL     OW39686   0.072   1.095   0.852 -0.0678 -0.7426 -0.3865
12958SOL    HW139687   0.020   1.065   0.778  0.6509 -1.5966 -0.5499
12958SOL    HW239688   0.071   1.022   0.914 -0.7023 -0.0175  0.4664
12959SOL     OW39689   2.311   7.447   6.277  0.1446  0.6799 -0.3530
12959SOL    HW139690   2.231   7.492   6.303 -2.8193 -2.7947 -2.8813
12959SOL    HW239691   2.323   7.380   6.345 -0.4141 -0.2604 -1.1731
12960SOL     OW39692   2.641   3.365   2.786  0.3770 -0.7997  0.3149
12960SOL    HW139693   2.589   3.308   2.843 -0.8337  0.1380  0.1783
12960SOL    HW239694   2.725   3.374   2.831 -0.4251 -0.3812  1.7803
12961SOL     OW39695   3.331   3.590   5.775  0.5259  0.0188  0.0981
12961SOL    HW139696   3.350   3.564   5.866  1.8621  1.1305  0.1501
12961SOL    HW239697   3.289   3.675   5.783  1.8525  0.7306 -0.3844
12962SOL     OW39698   5.372   6.902   1.556  0.3509  0.6069 -0.0936
12962SOL    HW139699   5.388   6.817   1.515  0.6943  0.4977  0.2645
12962SOL    HW239700   5.403   6.892   1.646 -1.9299  0.3441  0.6788
12963SOL     OW39701   0.381   5.653   6.878  0.2468  0.1409  0.1519
12963SOL    HW139702   0.444   5.725   6.886 -0.5588  0.7783  0.7862
12963SOL    HW239703   0.435   5.575   6.872  1.1495  0.8196 -0.9066
12964SOL     OW39704   1.265   3.954   4.118 -0.7962 -0.1381  0.3870
12964SOL    HW139705   1.349   3.913   4.097 -0.9348  0.9086 -2.3154
12964SOL    HW239706   1.220   3.889   4.171  0.7705 -1.6745 -0.1192
12965SOL     OW39707   6.455   5.896   5.469 -0.0855 -0.0705  0.4020
12965SOL    HW139708   6.365   5.910   5.438  0.4234 -1.8234 -2.0137
12965SOL    HW239709   6.447   5.825   5.532 -0.5416  0.6097  1.1258
12966SOL     OW39710   5.646   6.637   7.106 -0.5095 -1.0405  0.3093
12966SOL    HW139711   5.620   6.583   7.031  1.3387 -0.0965 -1.0593
12966SOL    HW239712   5.586   6.611   7.176 -2.3751 -1.8560 -1.5210
12967SOL     OW39713   0.224   0.431   4.646  0.0472  0.4721  0.5065
12967SOL    HW139714   0.313   0.417   4.612 -0.2955 -1.5303  0.3892
12967SOL    HW239715   0.229   0.403   4.737 -0.0668  1.9771  1.0011
12968SOL     OW39716   3.825   1.688   5.254 -0.2067  0.1634  0.3038
12968SOL    HW139717   3.850   1.777   5.281 -2.4343  0.9035  0.0013
12968SOL    HW239718   3.763   1.702   5.182 -2.1104 -1.5908  1.5649
12969SOL     OW39719   7.255   0.730   7.086  0.1724  0.2849  0.2380
12969SOL    HW139720   7.196   0.764   7.018 -1.1489 -1.0641  0.6877
12969SOL    HW239721   7.297   0.808   7.122 -0.7420  1.1990 -0.6392
12970SOL     OW39722   5.905   6.648   4.413 -0.6657  0.4602  0.0704
12970SOL    HW139723   5.906   6.554   4.433 -0.3397  1.0164  2.8640
12970SOL    HW239724   5.991   6.665   4.376 -0.0638  0.0057  1.2558
12971SOL     OW39725   6.285   4.130   3.662  0.0328 -0.2329 -0.0373
12971SOL    HW139726   6.231   4.158   3.736  0.4639 -0.3016  0.3059
12971SOL    HW239727   6.222   4.115   3.591 -0.2265  1.5751 -0.2283
12972SOL     OW39728   6.903   3.656   3.300  0.7806 -0.4265 -0.3429
12972SOL    HW139729   6.841   3.613   3.241  0.7996 -1.3521  0.3148
12972SOL    HW239730   6.878   3.627   3.388 -0.1091  2.0031  0.2547
12973SOL     OW39731   7.709   7.811   7.048  0.4780  0.2933  0.0472
12973SOL    HW139732   7.688   7.799   7.141 -0.5154  0.3425 -0.1647
12973SOL    HW239733   7.801   7.835   7.048  0.2237  1.3856  1.1083
12974SOL     OW39734   3.635   5.168   0.738  0.0200 -0.1425 -0.0516
12974SOL    HW139735   3.586   5.091   0.766 -0.1197 -0.6004 -1.4816
12974SOL    HW239736   3.569   5.229   0.708  0.2366 -0.2612 -0.7908
12975SOL     OW39737   7.515   5.732   4.407 -0.4953  0.8481 -0.2166
12975SOL    HW139738   7.548   5.812   4.366  0.4250  0.7469  0.2979
12975SOL    HW239739   7.510   5.669   4.336  3.8315 -0.1840  0.2460
12976SOL     OW39740   0.405   4.624   3.312  0.5552 -0.2267 -0.1541
12976SOL    HW139741   0.377   4.618   3.403 -0.1611 -1.2781 -0.4469
12976SOL    HW239742   0.354   4.696   3.276  0.7402  0.1015  0.2316
12977SOL     OW39743   6.155   6.721   4.991 -0.0725 -0.3717  0.9040
12977SOL    HW139744   6.086   6.787   5.005 -0.3577 -0.1028 -1.6326
12977SOL    HW239745   6.114   6.638   5.016 -0.5904  0.0695  1.5421
12978SOL     OW39746   7.973   7.618   5.625 -0.0764  0.6096 -0.1963
12978SOL    HW139747   8.026   7.679   5.676  0.8372  0.4529 -0.9417
12978SOL    HW239748   7.884   7.654   5.629 -0.0856  0.3933  1.7933
12979SOL     OW39749   6.018   1.844   1.125 -0.4829 -0.3539 -0.1706
12979SOL    HW139750   6.109   1.874   1.120 -0.4425 -0.2722  0.8553
12979SOL    HW239751   5.967   1.924   1.131 -0.6154 -0.4020 -0.6836
12980SOL     OW39752   6.352   7.939   6.661 -0.1359  0.5960  0.3484
12980SOL    HW139753   6.380   8.022   6.623  0.7995 -0.2037 -0.7553
12980SOL    HW239754   6.376   7.873   6.595  1.1212 -0.7739  2.1180
12981SOL     OW39755   1.657   3.150   0.574  0.0755 -0.3910  0.1877
12981SOL    HW139756   1.696   3.237   0.585 -0.6214  0.3341 -2.8303
12981SOL    HW239757   1.698   3.114   0.496 -0.4138 -2.3892  0.8065
12982SOL     OW39758   4.842   4.472   1.118  0.0555  0.0141  0.6953
12982SOL    HW139759   4.828   4.489   1.025 -1.6008 -1.4270  0.6457
12982SOL    HW239760   4.935   4.490   1.132  0.4774 -0.3612 -1.3754
12983SOL     OW39761   2.853   4.639   4.784  0.8423  0.7150  0.3587
12983SOL    HW139762   2.898   4.559   4.759 -0.0197  0.4566 -0.3768
12983SOL    HW239763   2.896   4.667   4.865  0.9767 -0.6112  0.7478
12984SOL     OW39764   1.863   7.684   4.896 -0.2627  0.0167 -0.2743
12984SOL    HW139765   1.924   7.636   4.839  1.3422  1.8928 -0.2193
12984SOL    HW239766   1.833   7.619   4.960  1.6636 -0.9950 -0.3464
12985SOL     OW39767   4.511   1.446   0.497  0.3389 -0.1019 -0.1181
12985SOL    HW139768   4.550   1.493   0.570 -0.2307  1.2356 -0.6581
12985SOL    HW239769   4.478   1.365   0.535  0.4014  0.4063  1.0356
12986SOL     OW39770   7.311   2.772   6.685 -0.3886 -0.0397 -0.2233
12986SOL    HW139771   7.269   2.811   6.762  0.3813  0.6198 -0.1226
12986SOL    HW239772   7.300   2.838   6.616  0.2192  0.0113 -0.2738
12987SOL     OW39773   0.729   7.982   0.303  0.5039  0.4000 -0.5095
12987SOL    HW139774   0.684   7.955   0.383  0.2911  1.4478 -0.2773
12987SOL    HW239775   0.818   8.005   0.332  0.1988  1.5146 -0.4527
12988SOL     OW39776   4.959   7.196   3.191  0.0656  0.4903  0.0390
12988SOL    HW139777   4.905   7.117   3.194  0.7089  0.0300 -0.3849
12988SOL    HW239778   4.912   7.259   3.246  0.8305 -1.0090  2.5210
12989SOL     OW39779   7.875   6.740   5.997  0.5477 -0.3306 -0.1007
12989SOL    HW139780   7.780   6.725   5.993  0.5501 -0.2354 -0.4925
12989SOL    HW239781   7.896   6.731   6.090  0.2130 -0.7082 -0.0579
12990SOL     OW39782   4.040   4.005   5.718  0.9017 -0.2483  0.2631
12990SOL    HW139783   3.945   4.018   5.719  0.7167 -1.5636  1.2196
12990SOL    HW239784   4.076   4.091   5.698 -0.5600 -0.0807 -1.7901
12991SOL     OW39785   5.875   1.593   0.400  0.4109  0.6111 -1.3813
12991SOL    HW139786   5.818   1.633   0.466  1.3201 -1.1938  0.5315
12991SOL    HW239787   5.923   1.666   0.362  1.5392  1.4398  1.5606
12992SOL     OW39788   0.415   7.638   2.011  0.4952  0.5064  0.1168
12992SOL    HW139789   0.450   7.645   2.100  1.7178  2.1487 -0.4623
12992SOL    HW239790   0.488   7.601   1.960 -0.2375 -0.5425 -0.1861
12993SOL     OW39791   2.854   2.138   2.518 -0.1752  0.0459  0.6563
12993SOL    HW139792   2.766   2.153   2.485  0.9932  3.8789 -0.9509
12993SOL    HW239793   2.889   2.067   2.463 -1.0835  0.8276 -0.9573
12994SOL     OW39794   4.136   3.311   3.453 -0.1974  0.1604  0.0707
12994SOL    HW139795   4.116   3.399   3.485 -2.5032 -0.6737  1.0421
12994SOL    HW239796   4.090   3.306   3.369  0.3040  0.0402 -0.1945
12995SOL     OW39797   3.808   0.515   6.655  0.5233 -0.0221 -0.9114
12995SOL    HW139798   3.849   0.429   6.661  0.8281  0.2309  0.7866
12995SOL    HW239799   3.875   0.576   6.685 -0.5977  0.5323  0.5258
12996SOL     OW39800   0.717   2.376   0.093  0.0135  0.3325  0.3448
12996SOL    HW139801   0.783   2.427   0.045 -0.4739 -0.4849 -1.2085
12996SOL    HW239802   0.760   2.293   0.112 -0.6042 -0.2374 -0.7525
12997SOL     OW39803   1.685   2.297   5.165  0.3740  0.3037 -0.0314
12997SOL    HW139804   1.652   2.308   5.254  1.2703  0.4289  0.2938
12997SOL    HW239805   1.609   2.266   5.115  0.4812 -2.2892  1.3155
12998SOL     OW39806   2.862   1.977   7.645  0.3118 -0.3298 -0.3575
12998SOL    HW139807   2.900   1.940   7.565  0.1778  2.4349 -1.7644
12998SOL    HW239808   2.813   2.053   7.615 -0.6957  0.1097  2.2596
12999SOL     OW39809   3.958   0.561   7.251 -0.3532  0.3083 -0.1068
12999SOL    HW139810   3.990   0.499   7.317 -1.3123 -1.3906 -1.2302
12999SOL    HW239811   3.869   0.581   7.278  0.3761  2.2878  1.0003
13000SOL     OW39812   3.902   5.153   7.003  0.2430  0.1377 -0.2650
13000SOL    HW139813   3.974   5.187   7.055  0.5462 -2.0972  0.8318
13000SOL    HW239814   3.937   5.145   6.915  1.8368 -2.2940  0.5408
13001SOL     OW39815   4.350   7.754   5.531  0.1232 -0.0959  0.5194
13001SOL    HW139816   4.324   7.805   5.608 -0.9688  0.1515 -0.0035
13001SOL    HW239817   4.297   7.789   5.459  1.4119 -0.0492 -0.4409
13002SOL     OW39818   7.279   7.532   1.568  0.3641 -0.1690  0.3401
13002SOL    HW139819   7.257   7.542   1.661  0.9391  0.3006  0.4283
13002SOL    HW239820   7.305   7.620   1.540  0.4448 -0.3651 -0.2019
13003SOL     OW39821   1.970   7.044   3.366 -0.0003 -0.4276 -0.2110
13003SOL    HW139822   1.875   7.040   3.372 -0.0904  0.2308 -1.2083
13003SOL    HW239823   1.992   6.994   3.288  0.5650 -1.6016  0.6895
13004SOL     OW39824   6.970   1.165   2.618  0.4581 -0.1818 -0.1137
13004SOL    HW139825   6.991   1.132   2.705  0.5004 -0.7122 -0.3219
13004SOL    HW239826   7.041   1.226   2.597 -0.2565  0.9742  0.7736
13005SOL     OW39827   7.091   1.086   7.064 -0.2331  0.7687  0.4185
13005SOL    HW139828   7.061   1.177   7.066 -3.6800 -0.2518 -1.3355
13005SOL    HW239829   7.023   1.038   7.111  1.0122 -1.0548  0.3848
13006SOL     OW39830   4.535   6.171   2.880  0.6427  0.1540 -0.2535
13006SOL    HW139831   4.583   6.239   2.926  0.1376 -0.7778  1.6853
13006SOL    HW239832   4.590   6.093   2.888 -1.4110 -1.0786  2.5042
13007SOL     OW39833   1.850   2.439   5.017  0.3477  0.5125 -0.2342
13007SOL    HW139834   1.822   2.405   4.932 -0.4270  0.2974  0.1090
13007SOL    HW239835   1.800   2.389   5.081  1.1687  0.4511  0.3681
13008SOL     OW39836   3.561   7.399   0.405  0.1911 -0.0187 -0.4467
13008SOL    HW139837   3.513   7.430   0.482  0.3188  0.9126 -0.7305
13008SOL    HW239838   3.519   7.443   0.332  0.9229  0.1319 -0.7819
13009SOL     OW39839   0.633   0.109   2.604 -0.7145 -0.1410 -0.2291
13009SOL    HW139840   0.592   0.164   2.671  2.2205  0.1354  1.3930
13009SOL    HW239841   0.642   0.166   2.528 -2.5061  0.0365 -0.3340
13010SOL     OW39842   7.998   6.103   5.439  0.0783 -0.0685  0.7292
13010SOL    HW139843   7.952   6.126   5.358  2.9912 -1.6407 -1.4590
13010SOL    HW239844   8.033   6.186   5.471 -1.1700  0.5861  0.4317
13011SOL     OW39845   6.884   6.126   4.762 -0.2124  0.1442 -0.2219
13011SOL    HW139846   6.821   6.096   4.697  0.3452 -0.4909 -0.4732
13011SOL    HW239847   6.921   6.046   4.799 -0.5849  0.4959  0.9446
13012SOL     OW39848   3.635   0.732   3.219 -0.1476  0.3630 -0.0008
13012SOL    HW139849   3.648   0.637   3.224 -1.9479  0.1928  2.1449
13012SOL    HW239850   3.553   0.742   3.171 -0.0231  0.8363 -0.1123
13013SOL     OW39851   6.504   7.866   4.803  0.0374 -0.1718 -0.0929
13013SOL    HW139852   6.538   7.914   4.728  0.8890 -0.2410  0.2466
13013SOL    HW239853   6.415   7.900   4.814 -0.2621 -0.4748 -1.4005
13014SOL     OW39854   0.637   3.161   3.160  0.7318  0.2371 -0.0391
13014SOL    HW139855   0.564   3.182   3.218 -0.7619 -0.9516 -1.4030
13014SOL    HW239856   0.714   3.199   3.202 -0.5267  0.6796  1.9358
13015SOL     OW39857   7.502   4.451   7.674 -0.5599  0.0615 -0.0581
13015SOL    HW139858   7.500   4.382   7.740  1.7673 -0.1640 -0.1968
13015SOL    HW239859   7.490   4.532   7.724  0.6571 -0.1495  0.6026
13016SOL     OW39860   1.457   6.916   4.471  0.5828 -0.2667 -0.2283
13016SOL    HW139861   1.527   6.953   4.526  0.1490 -0.1064  0.2199
13016SOL    HW239862   1.484   6.825   4.456  0.5701 -0.3949  0.4861
13017SOL     OW39863   4.560   1.272   4.996 -0.1710  0.2194  0.0080
13017SOL    HW139864   4.552   1.271   4.901  1.9575 -1.4928 -0.1943
13017SOL    HW239865   4.639   1.324   5.013 -1.6160  2.1673  0.9718
13018SOL     OW39866   3.152   7.652   4.824 -0.1146  0.4101  0.8234
13018SOL    HW139867   3.190   7.624   4.741  0.9063 -0.8272  1.6796
13018SOL    HW239868   3.158   7.747   4.822 -0.7635  0.4334 -0.8106
13019SOL     OW39869   0.825   6.299   5.316  0.3639  0.0187 -0.1820
13019SOL    HW139870   0.907   6.251   5.302  0.0707 -0.8882  1.0849
13019SOL    HW239871   0.774   6.283   5.237  1.2203  0.2014 -0.7794
13020SOL     OW39872   3.334   1.937   7.211 -0.0992  0.3140  0.4727
13020SOL    HW139873   3.417   1.983   7.200 -0.3399  0.5987 -0.1417
13020SOL    HW239874   3.323   1.930   7.306  1.3511 -1.0323  0.5646
13021SOL     OW39875   5.341   1.612   7.153  0.2016  0.7248 -0.1996
13021SOL    HW139876   5.383   1.697   7.158  1.6598 -0.0416  0.7233
13021SOL    HW239877   5.391   1.564   7.086 -0.8292  0.7030 -0.9716
13022SOL     OW39878   7.399   0.418   3.643 -0.7722 -0.3171 -0.1303
13022SOL    HW139879   7.325   0.405   3.584 -1.0070 -1.4834  0.4209
13022SOL    HW239880   7.449   0.337   3.638  0.2168  0.2832 -0.1330
13023SOL     OW39881   0.403   2.246   3.291 -0.0166 -0.3969 -0.3318
13023SOL    HW139882   0.410   2.319   3.230  0.7796 -0.5219 -0.3884
13023SOL    HW239883   0.393   2.288   3.377  1.0179 -0.2215 -0.2956
13024SOL     OW39884   5.410   3.914   5.489 -0.0977  0.4516  0.3219
13024SOL    HW139885   5.329   3.964   5.503  0.4386  1.0672  1.2475
13024SOL    HW239886   5.400   3.836   5.543 -0.3263  0.2361 -0.0274
13025SOL     OW39887   6.453   2.392   2.190  0.4220  0.1624  0.0190
13025SOL    HW139888   6.365   2.423   2.172  0.6156  0.4578 -0.4367
13025SOL    HW239889   6.506   2.473   2.194  1.1932 -0.1724 -2.5487
13026SOL     OW39890   4.954   2.614   7.870  0.2784  0.2897 -0.5746
13026SOL    HW139891   4.926   2.687   7.815 -4.1778 -2.4801 -2.3080
13026SOL    HW239892   4.879   2.596   7.926  2.0740 -1.6014  1.3033
13027SOL     OW39893   5.865   7.659   6.315 -0.5448  0.1308 -0.2939
13027SOL    HW139894   5.857   7.572   6.276  0.4182 -1.0904  2.0973
13027SOL    HW239895   5.905   7.713   6.247  0.2749 -1.6829 -1.2808
13028SOL     OW39896   2.413   1.679   4.551 -0.5792  0.3265 -0.2222
13028SOL    HW139897   2.427   1.726   4.469  1.4412 -0.5637 -0.4128
13028SOL    HW239898   2.392   1.589   4.523 -0.3237  0.1264  0.2215
13029SOL     OW39899   1.985   6.275   3.044  0.0520  0.1211  0.4354
13029SOL    HW139900   2.038   6.347   3.010 -0.2755  1.0030  1.7423
13029SOL    HW239901   1.907   6.275   2.989 -0.1241  1.0193  0.6795
13030SOL     OW39902   1.542   5.174   4.458  0.1351 -0.1706  0.2082
13030SOL    HW139903   1.624   5.158   4.411  0.2878 -1.3703  0.8472
13030SOL    HW239904   1.569   5.189   4.548 -0.4488 -2.3588  0.7791
13031SOL     OW39905   7.861   6.269   0.005  0.4862 -0.3569  0.2360
13031SOL    HW139906   7.933   6.250   0.065  0.6803 -1.8165 -0.4362
13031SOL    HW239907   7.892   6.239  -0.081 -0.6111 -0.2647 -0.2072
13032SOL     OW39908   1.078   1.305   4.911 -0.0530  0.0627  0.2629
13032SOL    HW139909   1.047   1.272   4.996 -0.3104 -0.1014  0.1045
13032SOL    HW239910   1.135   1.379   4.934  0.5777 -0.5188  0.6220
13033SOL     OW39911   5.062   5.004   6.461 -0.2939  0.0541 -0.1418
13033SOL    HW139912   5.138   5.032   6.411 -0.5638  2.6952  0.8814
13033SOL    HW239913   5.003   4.967   6.396  0.7710  0.3424 -1.2948
13034SOL     OW39914   6.490   6.144   6.811 -0.0395  0.1044  0.2592
13034SOL    HW139915   6.534   6.061   6.827  1.0439  1.1633  3.0363
13034SOL    HW239916   6.559   6.202   6.780 -0.6135  0.2587 -0.7723
13035SOL     OW39917   5.108   1.862   1.982  0.4274 -0.3718  0.2266
13035SOL    HW139918   5.015   1.884   1.971  0.4674  0.3079  1.2483
13035SOL    HW239919   5.116   1.774   1.945 -0.3915  0.0184 -0.9179
13036SOL     OW39920   4.115   1.379   0.368 -0.0462  0.1119 -0.3816
13036SOL    HW139921   4.076   1.396   0.282 -0.7969  0.5467  0.0440
13036SOL    HW239922   4.205   1.354   0.348 -0.1663  0.3692 -1.2876
13037SOL     OW39923   5.563   1.068   4.675  0.1262  0.4170  0.2489
13037SOL    HW139924   5.561   1.011   4.598  1.6272 -2.4070  2.2021
13037SOL    HW239925   5.475   1.061   4.712 -0.2123  0.7444 -0.4924
13038SOL     OW39926   6.315   5.928   2.948 -0.7493 -0.1723 -0.2520
13038SOL    HW139927   6.372   5.918   3.024  1.3047 -0.7477 -1.8477
13038SOL    HW239928   6.250   5.858   2.958 -1.7604  1.0234  2.0247
13039SOL     OW39929   5.874   1.600   6.904  0.0609  0.8552 -0.0968
13039SOL    HW139930   5.846   1.675   6.851 -0.4814  0.8743  0.2148
13039SOL    HW239931   5.828   1.610   6.987 -1.5912 -0.8703 -0.7371
13040SOL     OW39932   6.188   3.886   5.175  0.6779 -0.3107 -0.1603
13040SOL    HW139933   6.141   3.934   5.107 -0.6807 -0.8205  0.4239
13040SOL    HW239934   6.133   3.894   5.253  2.2710  0.3577  0.9275
13041SOL     OW39935   5.752   6.009   5.600  0.3808  0.0905  0.2926
13041SOL    HW139936   5.829   6.067   5.606 -0.2842  0.8417  2.0084
13041SOL    HW239937   5.708   6.035   5.519  1.5218  0.1630 -0.3169
13042SOL     OW39938   5.767   1.971   5.139  0.2020  0.2509 -0.7965
13042SOL    HW139939   5.693   2.023   5.107 -0.7529 -0.5580  0.0964
13042SOL    HW239940   5.829   2.036   5.173 -2.2826  0.7349  3.1284
13043SOL     OW39941   2.245   6.836   2.999 -0.5794  0.1142  0.0974
13043SOL    HW139942   2.305   6.864   3.068 -0.8800 -0.2626  0.5174
13043SOL    HW239943   2.285   6.758   2.961 -1.1409 -0.5551  0.8548
13044SOL     OW39944   7.968   0.515   2.703 -0.5805 -0.8323  0.8426
13044SOL    HW139945   7.954   0.423   2.679 -1.3225 -0.9028  1.5217
13044SOL    HW239946   7.891   0.561   2.669  0.6211 -0.1443 -1.0792
13045SOL     OW39947   0.278   3.503   2.139 -0.1334 -0.3784  0.5991
13045SOL    HW139948   0.359   3.457   2.114 -0.5899 -0.7146 -0.2677
13045SOL    HW239949   0.268   3.572   2.074 -0.7384 -0.5640  0.4910
13046SOL     OW39950   0.602   6.629   1.296 -0.4694  0.3779 -0.1863
13046SOL    HW139951   0.547   6.671   1.230 -0.5340 -0.6364 -0.7821
13046SOL    HW239952   0.548   6.631   1.376 -1.1089 -0.0180 -0.6047
13047SOL     OW39953   7.325   6.156   2.723  0.7537 -0.4385 -0.4566
13047SOL    HW139954   7.417   6.175   2.741  0.6912  0.2839 -0.8638
13047SOL    HW239955   7.310   6.070   2.761  1.7054 -0.7377 -0.7446
13048SOL     OW39956   7.826   0.800   2.371  0.3180 -0.0806 -0.1897
13048SOL    HW139957   7.758   0.734   2.361 -0.2211  0.6924 -1.8744
13048SOL    HW239958   7.793   0.857   2.440  1.2506 -2.1098  1.9696
13049SOL     OW39959   3.562   5.882   0.996  0.6450 -0.0569 -0.0783
13049SOL    HW139960   3.574   5.896   0.903 -0.4096 -1.5320 -0.4677
13049SOL    HW239961   3.518   5.961   1.027  1.0524  0.4619 -0.8139
13050SOL     OW39962   1.538   6.839   5.890  0.1814 -0.0301  0.2834
13050SOL    HW139963   1.592   6.816   5.815 -1.1457 -1.8069 -0.1737
13050SOL    HW239964   1.577   6.793   5.964 -0.6208 -1.2339 -0.0286
13051SOL     OW39965   7.584   6.876   5.036 -0.6072 -0.1733 -0.7796
13051SOL    HW139966   7.626   6.927   4.967 -0.8671  1.2093  0.0732
13051SOL    HW239967   7.516   6.934   5.071  1.3179  0.1784  2.4999
13052SOL     OW39968   5.233   1.012   5.012 -1.1087  0.5697  0.9353
13052SOL    HW139969   5.255   0.973   4.927 -0.2026  2.1588  0.4177
13052SOL    HW239970   5.146   1.051   4.999 -1.4979 -0.2352  1.1021
13053SOL     OW39971   5.096   4.440   0.442 -0.1703 -0.3306 -0.1433
13053SOL    HW139972   5.120   4.439   0.349  1.0015  1.1436  0.1164
13053SOL    HW239973   5.049   4.358   0.456  2.1203 -1.9214 -1.4010
13054SOL     OW39974   4.835   6.633   2.608 -0.1482  0.3669 -0.6926
13054SOL    HW139975   4.862   6.550   2.648  1.0140  0.4717 -1.2440
13054SOL    HW239976   4.881   6.700   2.659 -2.0970  0.7696  0.5910
13055SOL     OW39977   2.672   2.201   6.543 -0.1277  0.6725  0.1089
13055SOL    HW139978   2.729   2.219   6.618  0.2113 -1.8402  0.4830
13055SOL    HW239979   2.721   2.140   6.489 -2.2707 -1.2384  0.2306
13056SOL     OW39980   7.929   6.874   3.715 -0.3503  0.8638  0.2503
13056SOL    HW139981   7.900   6.961   3.742  0.1244  1.1569 -0.1899
13056SOL    HW239982   7.879   6.814   3.772 -1.5548  1.3743 -0.2457
13057SOL     OW39983   0.641   6.511   3.733  0.3306 -0.7091  0.8066
13057SOL    HW139984   0.559   6.557   3.752 -0.7296 -2.5834  0.8618
13057SOL    HW239985   0.686   6.506   3.818 -0.4940 -1.5452  1.2119
13058SOL     OW39986   5.924   5.852   4.225 -0.5683 -0.1338 -0.3593
13058SOL    HW139987   5.838   5.873   4.188  0.0155  0.1192 -1.6049
13058SOL    HW239988   5.976   5.825   4.150  0.5080 -0.0807  0.3617
13059SOL     OW39989   5.505   2.786   2.438 -0.3870  0.4366  0.0175
13059SOL    HW139990   5.599   2.800   2.440 -0.1405 -0.8421 -1.4100
13059SOL    HW239991   5.467   2.871   2.460  1.0985  0.7542  1.3631
13060SOL     OW39992   5.469   4.313   4.359  0.3858  0.1697  0.1926
13060SOL    HW139993   5.480   4.249   4.288 -0.7574  0.8896 -0.6530
13060SOL    HW239994   5.548   4.302   4.413  0.6386 -1.3099 -0.4414
13061SOL     OW39995   1.282   1.593   4.842 -0.0774  1.0496  0.5811
13061SOL    HW139996   1.367   1.595   4.887  0.5099 -2.7825 -0.1988
13061SOL    HW239997   1.299   1.633   4.757  1.2970 -0.8743 -0.0765
13062SOL     OW39998   0.760   2.331   3.404  0.1623 -0.2778  0.0263
13062SOL    HW139999   0.691   2.381   3.447 -0.6882 -0.6188 -0.9212
13062SOL    HW240000   0.721   2.246   3.386  1.6520 -1.3521  1.7727
13063SOL     OW40001   5.096   6.945   3.569 -0.9124 -0.6724  0.0477
13063SOL    HW140002   5.106   6.879   3.500  1.1797 -0.3870  0.0431
13063SOL    HW240003   5.054   7.019   3.525  1.5955  0.0134 -1.2998
13064SOL     OW40004   1.451   7.242   4.610  0.0875  0.3675 -0.3486
13064SOL    HW140005   1.357   7.229   4.626  0.3256 -1.1235 -0.0716
13064SOL    HW240006   1.495   7.189   4.677  1.1081 -0.0428 -1.3180
13065SOL     OW40007   7.332   6.742   7.236  0.1046  0.0847  0.7465
13065SOL    HW140008   7.324   6.684   7.312 -2.8646 -2.3547 -1.3058
13065SOL    HW240009   7.315   6.829   7.270  1.7293 -0.5414  3.3712
13066SOL     OW40010   5.702   6.440   5.921 -0.0495  0.1346 -0.4104
13066SOL    HW140011   5.721   6.412   6.011  0.7052 -0.2064 -0.6757
13066SOL    HW240012   5.717   6.363   5.868 -1.9831 -0.0814 -0.6672
13067SOL     OW40013   3.482   4.629   2.957 -0.7928  0.5495 -0.1292
13067SOL    HW140014   3.390   4.649   2.940 -0.7702  2.0384  1.3649
13067SOL    HW240015   3.502   4.676   3.038  0.7480 -1.3556  0.6363
13068SOL     OW40016   2.526   0.778   3.916  0.3465 -0.4589 -0.5008
13068SOL    HW140017   2.575   0.697   3.903 -1.3823 -1.5746 -0.2393
13068SOL    HW240018   2.446   0.750   3.961 -0.8139  1.2389 -1.4909
13069SOL     OW40019   2.149   7.340   1.656  0.0705 -0.1934 -0.0014
13069SOL    HW140020   2.162   7.298   1.571 -0.5695  0.8518 -0.6306
13069SOL    HW240021   2.137   7.433   1.636  0.8758  0.2134  1.3164
13070SOL     OW40022   4.806   6.933   6.063 -0.6667  0.0422 -0.9182
13070SOL    HW140023   4.771   6.969   5.981  0.0176 -0.1233 -1.2802
13070SOL    HW240024   4.738   6.952   6.128 -1.0138  0.5674 -1.4315
13071SOL     OW40025   6.381   0.581   5.674  0.1214  0.5516 -0.1795
13071SOL    HW140026   6.357   0.648   5.738  0.8303 -0.4923  1.1968
13071SOL    HW240027   6.304   0.524   5.669  0.6842 -0.3340  1.0251
13072SOL     OW40028   2.594   4.693   3.291 -0.2245  0.8741 -0.5440
13072SOL    HW140029   2.553   4.763   3.343 -1.9893  0.8283 -1.8461
13072SOL    HW240030   2.571   4.714   3.201  0.5191 -0.5539 -1.0726
13073SOL     OW40031   2.032   0.523   5.458 -0.0139  0.0272 -0.7105
13073SOL    HW140032   1.940   0.545   5.444 -0.0687 -0.4233 -1.1082
13073SOL    HW240033   2.030   0.443   5.511  0.1815  1.0641  0.8902
13074SOL     OW40034   3.126   3.065   5.314  0.3702 -0.0536  0.3372
13074SOL    HW140035   3.052   3.006   5.329  0.0548  0.1594 -0.3705
13074SOL    HW240036   3.165   3.077   5.401 -1.5190  1.3092  1.0338
13075SOL     OW40037   3.003   3.987   7.800 -0.9239 -0.4006  0.1633
13075SOL    HW140038   3.083   3.936   7.787 -0.5316 -0.2126  1.6875
13075SOL    HW240039   3.027   4.076   7.773 -1.6825 -1.0231 -2.7347
13076SOL     OW40040   7.318   5.733   6.113 -0.1986  0.4058 -0.1073
13076SOL    HW140041   7.392   5.791   6.099 -1.1331  2.3365  2.4858
13076SOL    HW240042   7.243   5.792   6.124 -1.8819 -1.4441 -1.1627
13077SOL     OW40043   2.988   5.193   7.311 -0.0383  0.2442  0.4751
13077SOL    HW140044   2.997   5.264   7.248  1.2203 -0.4294 -0.1128
13077SOL    HW240045   2.894   5.184   7.325 -0.1464  4.1440  2.9627
13078SOL     OW40046   3.154   6.294   2.061 -0.1073  0.0056  0.2101
13078SOL    HW140047   3.160   6.332   1.973  0.1391 -1.5252 -0.4519
13078SOL    HW240048   3.191   6.361   2.119  0.5208  0.6756 -0.9462
13079SOL     OW40049   3.282   3.269   2.858  0.6420 -0.1448  0.2372
13079SOL    HW140050   3.305   3.309   2.943  0.0667  0.8919 -0.0884
13079SOL    HW240051   3.191   3.243   2.868  0.7182 -0.4574  0.0986
13080SOL     OW40052   4.419   4.294   0.560  0.6220  0.0667  0.8242
13080SOL    HW140053   4.508   4.328   0.548  0.4653  0.6879  1.4417
13080SOL    HW240054   4.366   4.343   0.496  1.6304 -4.1364 -3.5540
13081SOL     OW40055   6.436   1.806   0.533  0.9611 -0.2426  0.2496
13081SOL    HW140056   6.426   1.825   0.440  0.5836  0.0395  0.3473
13081SOL    HW240057   6.427   1.711   0.539 -0.8189 -0.1064  0.2123
13082SOL     OW40058   7.541   4.495   4.511  0.0655 -0.4715 -0.2280
13082SOL    HW140059   7.575   4.525   4.595 -0.1358  1.5983 -0.8652
13082SOL    HW240060   7.601   4.531   4.446 -0.2006 -1.4388 -1.0276
13083SOL     OW40061   5.207   5.164   3.185 -0.3227 -0.1333  0.5906
13083SOL    HW140062   5.189   5.121   3.101  0.0734  1.2881 -0.2509
13083SOL    HW240063   5.137   5.133   3.243  0.0070 -1.9436  0.0475
13084SOL     OW40064   7.992   3.125   2.650 -0.0517 -0.1911 -0.1813
13084SOL    HW140065   7.899   3.108   2.662 -0.8349  2.3824 -2.2976
13084SOL    HW240066   8.032   3.038   2.648 -2.2399 -1.3053  1.6770
13085SOL     OW40067   3.660   0.331   5.430  0.2133 -0.1008  0.1162
13085SOL    HW140068   3.572   0.354   5.461 -0.3636 -0.4462 -1.2224
13085SOL    HW240069   3.648   0.246   5.387  1.5364 -0.9854  1.4155
13086SOL     OW40070   3.681   4.562   2.482  0.1424 -0.4274  0.2676
13086SOL    HW140071   3.707   4.538   2.393  1.4194  1.4138  0.1170
13086SOL    HW240072   3.713   4.490   2.537  2.1572 -0.0678 -0.3948
13087SOL     OW40073   6.741   4.961   2.930 -0.4107  0.1198 -0.5634
13087SOL    HW140074   6.647   4.947   2.940 -0.3111 -0.0709  0.0945
13087SOL    HW240075   6.779   4.873   2.928 -0.1367  0.2118  0.2459
13088SOL     OW40076   5.185   1.502   6.387  0.5212  0.0320  0.1514
13088SOL    HW140077   5.098   1.522   6.422 -0.6879  0.0004 -2.6742
13088SOL    HW240078   5.198   1.409   6.404 -0.0404  0.0247  0.5393
13089SOL     OW40079   0.930   3.658   6.552  0.0695  0.2401 -0.3672
13089SOL    HW140080   0.875   3.711   6.493 -0.4976  0.8348  0.6694
13089SOL    HW240081   0.919   3.568   6.521 -2.2961  0.2123  0.3970
13090SOL     OW40082   3.072   0.093   2.752  0.4121 -0.1814  0.2231
13090SOL    HW140083   3.035   0.009   2.777 -1.3892 -0.1091 -2.0112
13090SOL    HW240084   3.052   0.151   2.826 -0.8931 -1.0293  0.5614
13091SOL     OW40085   2.888   3.709   3.977  0.2567 -0.2730 -0.4081
13091SOL    HW140086   2.875   3.615   3.968  0.1212 -0.2753 -0.1916
13091SOL    HW240087   2.940   3.719   4.056  0.6899 -0.1964 -0.7038
13092SOL     OW40088   0.574   3.887   3.570  0.0886 -0.5451 -0.1144
13092SOL    HW140089   0.622   3.970   3.577 -0.1502 -0.3696 -0.5293
13092SOL    HW240090   0.642   3.821   3.559  0.2026 -0.2098 -1.4910
13093SOL     OW40091   2.206   4.838   5.579 -0.6337  0.0934  0.1400
13093SOL    HW140092   2.216   4.805   5.490  0.4090 -0.8571  0.5890
13093SOL    HW240093   2.251   4.923   5.579  0.8362 -0.6660  0.1748
13094SOL     OW40094   0.934   2.266   6.229  0.0244  0.3167 -0.4146
13094SOL    HW140095   0.902   2.267   6.319 -2.0062 -2.8763 -1.0318
13094SOL    HW240096   0.864   2.307   6.178  1.0361  1.8431 -0.5976
13095SOL     OW40097   5.612   5.120   3.089  0.5411  0.0747 -0.0798
13095SOL    HW140098   5.553   5.144   3.018  1.9899 -0.0113 -1.3383
13095SOL    HW240099   5.573   5.042   3.127 -0.6487  0.5574 -0.2744
13096SOL     OW40100   4.021   4.436   1.405  0.0384 -0.3617 -0.3951
13096SOL    HW140101   4.080   4.365   1.429  1.7244  1.4004  0.8648
13096SOL    HW240102   3.958   4.439   1.476 -0.0058 -0.5708 -0.4252
13097SOL     OW40103   5.849   2.514   1.948 -0.2596  0.1321 -0.3490
13097SOL    HW140104   5.884   2.483   1.865 -2.2727  1.5492 -1.7857
13097SOL    HW240105   5.904   2.589   1.971  2.2314 -2.1130  1.2054
13098SOL     OW40106   7.142   3.733   1.820 -0.1151  0.1410 -0.3144
13098SOL    HW140107   7.117   3.688   1.740 -0.6848  1.5881 -0.9732
13098SOL    HW240108   7.128   3.826   1.801 -3.1938  0.3346  2.4538
13099SOL     OW40109   3.544   2.249   4.050  0.1469  0.1246 -0.0140
13099SOL    HW140110   3.503   2.328   4.086 -0.8434  0.1577 -1.1716
13099SOL    HW240111   3.566   2.272   3.960 -1.1440 -1.2431 -0.7094
13100SOL     OW40112   5.238   6.922   2.346  0.0772  0.0672  0.1029
13100SOL    HW140113   5.311   6.899   2.289 -0.9930  0.7909 -1.6121
13100SOL    HW240114   5.253   7.013   2.369 -0.4196  0.2957 -0.4701
13101SOL     OW40115   5.007   7.760   4.155 -0.8129  0.3624  0.6023
13101SOL    HW140116   5.082   7.813   4.182  1.1705 -0.0517 -3.7307
13101SOL    HW240117   4.937   7.824   4.143 -0.0293  1.2896  0.9059
13102SOL     OW40118   3.462   0.735   2.561  0.3491  1.0281 -0.7883
13102SOL    HW140119   3.538   0.782   2.598 -0.1985 -0.1748  1.9789
13102SOL    HW240120   3.387   0.768   2.611 -0.3972 -0.7876 -0.6791
13103SOL     OW40121   3.435   6.206   2.919 -0.2060 -0.0569  0.3670
13103SOL    HW140122   3.490   6.211   2.841  0.3979  0.1376  0.7998
13103SOL    HW240123   3.355   6.163   2.889 -0.0626  0.1957 -0.4042
13104SOL     OW40124   2.313   4.343   3.702 -0.1311  0.0473  0.1189
13104SOL    HW140125   2.312   4.393   3.621  0.1937 -0.0647  0.0445
13104SOL    HW240126   2.227   4.301   3.706  0.0240 -0.3171 -0.3993
13105SOL     OW40127   0.955   4.928   7.556 -0.4136  0.2521 -0.4617
13105SOL    HW140128   0.927   5.004   7.505  2.1362  0.9023 -0.9253
13105SOL    HW240129   0.891   4.860   7.535 -1.5073  1.6289 -1.6495
13106SOL     OW40130   4.842   7.310   4.442  0.5299 -0.0679  0.7762
13106SOL    HW140131   4.810   7.225   4.470 -0.0297  0.3000  1.2752
13106SOL    HW240132   4.889   7.344   4.518  0.9124 -0.0035  0.5167
13107SOL     OW40133   2.389   6.837   1.844 -0.3598 -0.2148  0.1355
13107SOL    HW140134   2.471   6.878   1.872  0.2900  0.2508 -2.3406
13107SOL    HW240135   2.326   6.909   1.842  0.4038  0.4483 -2.6968
13108SOL     OW40136   3.732   0.440   7.406 -0.3931  0.2084 -0.3024
13108SOL    HW140137   3.671   0.513   7.396 -1.4786 -0.5876  0.3735
13108SOL    HW240138   3.676   0.363   7.420  0.7627 -0.4332  0.9731
13109SOL     OW40139   5.444   3.693   6.731  0.1894  0.5196  0.1467
13109SOL    HW140140   5.447   3.678   6.825 -1.3698 -1.8344 -0.1283
13109SOL    HW240141   5.535   3.681   6.702  0.2908 -1.1310  1.0470
13110SOL     OW40142   3.833   1.773   1.836  0.3416 -0.1099 -0.7490
13110SOL    HW140143   3.873   1.691   1.866 -0.7773  0.0119  1.1279
13110SOL    HW240144   3.741   1.751   1.824  0.1059  0.7885 -0.5911
13111SOL     OW40145   3.758   0.732   5.135 -0.0773  0.2449  0.3329
13111SOL    HW140146   3.786   0.818   5.103  0.5704  0.4680  1.4757
13111SOL    HW240147   3.670   0.747   5.170 -0.2606  0.2800 -0.1372
13112SOL     OW40148   2.390   4.786   5.954  0.1602  0.1033 -0.3528
13112SOL    HW140149   2.320   4.750   6.008  0.9185  0.4232  0.8627
13112SOL    HW240150   2.382   4.881   5.965  0.3590  0.1695 -0.7616
13113SOL     OW40151   6.155   4.470   3.803  0.1263 -0.2399  0.0796
13113SOL    HW140152   6.150   4.375   3.796  0.6066 -0.2573 -0.0849
13113SOL    HW240153   6.175   4.499   3.714  0.6058 -0.0349  0.2514
13114SOL     OW40154   1.692   1.661   5.524 -0.4706  0.5614 -0.1710
13114SOL    HW140155   1.705   1.751   5.493  0.5056  0.6909  0.6105
13114SOL    HW240156   1.697   1.668   5.619  2.2304 -0.7227 -0.1934
13115SOL     OW40157   2.278   1.230   6.738  0.3880 -0.3364 -0.0580
13115SOL    HW140158   2.262   1.320   6.768  0.1924 -0.8595  1.4507
13115SOL    HW240159   2.323   1.188   6.811 -0.4810 -1.7790 -0.3341
13116SOL     OW40160   7.541   0.078   7.337 -0.1712 -0.2533  0.9278
13116SOL    HW140161   7.476   0.027   7.385  0.5039 -0.7651  1.2984
13116SOL    HW240162   7.517   0.169   7.353 -2.1329 -0.4212 -0.7311
13117SOL     OW40163   0.944   3.021   0.771  0.7440  0.0562  0.6949
13117SOL    HW140164   0.894   3.018   0.853  1.8440 -1.6999  1.3334
13117SOL    HW240165   0.920   2.940   0.726  2.0756 -0.2184  0.4594
13118SOL     OW40166   0.406   4.931   7.784  0.3713 -0.1351  0.3796
13118SOL    HW140167   0.412   4.862   7.717 -0.5701  0.3775 -0.2348
13118SOL    HW240168   0.497   4.943   7.813  0.6931 -0.8671 -0.2856
13119SOL     OW40169   5.536   6.439   4.818 -0.3108  0.3211  0.0132
13119SOL    HW140170   5.509   6.446   4.910 -0.4878 -0.9252  0.0643
13119SOL    HW240171   5.562   6.528   4.794 -1.9785  1.0218  0.7254
13120SOL     OW40172   7.248   0.592   3.203  0.2999 -0.6366 -0.4720
13120SOL    HW140173   7.226   0.682   3.225 -0.3634 -1.5295  2.6691
13120SOL    HW240174   7.184   0.567   3.136 -0.1614  0.8509 -0.5998
13121SOL     OW40175   4.578   6.796   1.455 -0.0471 -0.0470  0.2452
13121SOL    HW140176   4.533   6.835   1.530  0.4888 -0.3957  0.7581
13121SOL    HW240177   4.644   6.739   1.494  1.1819  0.8460 -0.4911
13122SOL     OW40178   6.349   1.492   6.562  0.2388 -0.2235  0.3592
13122SOL    HW140179   6.272   1.546   6.580  0.3133 -0.0407  0.1350
13122SOL    HW240180   6.335   1.412   6.612  1.0097  0.7607  2.2006
13123SOL     OW40181   5.812   3.417   1.097 -0.0795 -0.0479 -0.2056
13123SOL    HW140182   5.829   3.324   1.111 -0.0287  0.1676  1.2384
13123SOL    HW240183   5.895   3.460   1.115 -0.9827  0.6062  2.7401
13124SOL     OW40184   5.325   4.822   2.394 -1.0323 -0.8586 -0.0637
13124SOL    HW140185   5.338   4.917   2.385  0.7772 -1.0874 -0.0577
13124SOL    HW240186   5.412   4.789   2.416 -2.2793 -2.1242  3.2072
13125SOL     OW40187   2.725   7.478   5.609  0.4130  0.6356 -0.2847
13125SOL    HW140188   2.748   7.409   5.547 -1.7048  1.0637 -1.6118
13125SOL    HW240189   2.776   7.554   5.582  0.3101  0.5061 -0.8473
13126SOL     OW40190   0.534   4.493   4.192 -0.5575 -0.6971  0.0701
13126SOL    HW140191   0.629   4.505   4.202 -0.6276 -0.4013  0.4001
13126SOL    HW240192   0.524   4.446   4.109 -0.1497 -0.3067 -0.2016
13127SOL     OW40193   7.944   1.646   5.554 -0.2836 -0.1748 -0.1319
13127SOL    HW140194   7.902   1.628   5.470 -0.6759  0.0938  0.0106
13127SOL    HW240195   7.876   1.686   5.607 -0.2089 -0.9151  0.5254
13128SOL     OW40196   0.014   3.512   2.434  0.1355 -0.0840 -0.1168
13128SOL    HW140197  -0.069   3.550   2.466  0.3651  0.4090 -0.1071
13128SOL    HW240198  -0.013   3.450   2.366 -0.1124  1.6308 -1.6220
13129SOL     OW40199   6.321   2.131   2.218 -0.1487  1.0027  0.2486
13129SOL    HW140200   6.388   2.176   2.167  0.0882 -0.9502 -1.2216
13129SOL    HW240201   6.368   2.089   2.289 -0.1150  1.4115  0.4714
13130SOL     OW40202   1.706   3.937   2.062  0.0112  0.2379 -0.2100
13130SOL    HW140203   1.730   3.905   2.149  1.8862  0.7683 -0.5169
13130SOL    HW240204   1.622   3.894   2.043  0.5437 -1.3880  1.0397
13131SOL     OW40205   3.808   6.135   5.603  0.0738  0.0018  0.0345
13131SOL    HW140206   3.730   6.178   5.567 -0.6276 -0.2656  1.1849
13131SOL    HW240207   3.877   6.201   5.596  0.0607 -0.2027 -2.1517
13132SOL     OW40208   7.601   6.491   0.258  0.3820  0.8551 -0.3013
13132SOL    HW140209   7.666   6.550   0.220  2.1054 -1.2812 -0.7032
13132SOL    HW240210   7.603   6.510   0.352 -0.1408  2.4351 -0.5843
13133SOL     OW40211   6.258   4.534   3.560  1.0469 -0.7339  0.2568
13133SOL    HW140212   6.196   4.525   3.488  0.0033 -1.0175  1.1675
13133SOL    HW240213   6.330   4.585   3.524  0.3860 -0.5843 -0.8808
13134SOL     OW40214   5.698   5.517   5.188 -0.0174 -0.3292 -0.7293
13134SOL    HW140215   5.696   5.570   5.267 -1.1494 -0.6011 -0.5693
13134SOL    HW240216   5.786   5.531   5.152  1.5090 -2.2896  1.9827
13135SOL     OW40217   6.646   4.019   1.300  0.3989  0.0625 -0.2470
13135SOL    HW140218   6.733   4.052   1.323  0.8235 -0.8841 -0.4854
13135SOL    HW240219   6.594   4.033   1.378  0.3382  2.0765 -0.6037
13136SOL     OW40220   0.040   1.536   7.588  0.2680  0.5245 -0.4974
13136SOL    HW140221   0.015   1.628   7.594 -0.6212  0.3225 -1.1288
13136SOL    HW240222   0.074   1.526   7.498 -0.6178 -0.0072 -0.7755
13137SOL     OW40223   3.772   0.645   4.492 -0.1651 -0.3867  0.0093
13137SOL    HW140224   3.866   0.629   4.480  0.1228  1.2933 -0.0862
13137SOL    HW240225   3.762   0.660   4.586  0.2391  2.8819 -0.4319
13138SOL     OW40226   3.997   4.170   0.612 -0.4127  0.4514 -0.3388
13138SOL    HW140227   4.007   4.259   0.646  3.0933 -0.1676  0.5141
13138SOL    HW240228   3.983   4.117   0.690  1.2615 -0.1824 -0.4507
13139SOL     OW40229   0.310   7.448   2.252  0.5076 -0.2260  0.3617
13139SOL    HW140230   0.340   7.538   2.261 -0.2125 -0.0971  1.4788
13139SOL    HW240231   0.308   7.433   2.158  1.9818  0.4703  0.2058
13140SOL     OW40232   1.466   0.132   6.354  0.1014 -0.0535 -0.0411
13140SOL    HW140233   1.465   0.063   6.288 -0.2422 -0.8360  0.7834
13140SOL    HW240234   1.460   0.086   6.437  3.5495  0.7237  0.7114
13141SOL     OW40235   2.486   6.730   4.535 -0.0251  0.3404  0.0437
13141SOL    HW140236   2.410   6.768   4.491  0.9353  0.2036 -1.7944
13141SOL    HW240237   2.561   6.773   4.494  0.9977 -1.6937 -0.2772
13142SOL     OW40238   0.277   6.208   2.228  0.4724  0.2137  0.3940
13142SOL    HW140239   0.299   6.301   2.231 -0.7663  0.5487 -0.6205
13142SOL    HW240240   0.183   6.204   2.247 -0.2068 -0.5089 -2.7838
13143SOL     OW40241   5.871   2.992   7.578 -0.7318  0.1103  0.3307
13143SOL    HW140242   5.937   3.059   7.560  1.4689 -1.9354  0.5776
13143SOL    HW240243   5.845   2.959   7.492  0.1804 -0.5877  0.3185
13144SOL     OW40244   0.940   7.781   3.743 -0.1894  0.3201 -0.5140
13144SOL    HW140245   0.917   7.852   3.803  1.2352 -0.7920  1.4095
13144SOL    HW240246   0.907   7.702   3.786  1.9926 -0.6346 -0.5180
13145SOL     OW40247   3.382   0.353   2.299  0.0807  0.0876 -0.5169
13145SOL    HW140248   3.325   0.314   2.365 -0.4039  0.2497 -0.8437
13145SOL    HW240249   3.326   0.414   2.251  0.9927  1.7013  0.4277
13146SOL     OW40250   6.747   6.145   1.030  0.5679  0.1439 -0.7985
13146SOL    HW140251   6.820   6.207   1.030  0.8912 -0.2159  0.8153
13146SOL    HW240252   6.671   6.197   1.054  1.1439 -0.3900  2.3321
13147SOL     OW40253   3.999   3.154   7.089  0.5338  0.1069  0.3920
13147SOL    HW140254   4.013   3.192   7.003  2.4749  0.6322  0.9135
13147SOL    HW240255   3.968   3.227   7.143 -0.1966 -0.1057  0.2573
13148SOL     OW40256   5.547   0.731   6.034 -0.0538  0.0629 -0.3932
13148SOL    HW140257   5.624   0.684   6.002 -0.4010 -0.4685 -0.4519
13148SOL    HW240258   5.552   0.817   5.991  0.0122 -0.2991 -1.1271
13149SOL     OW40259   5.701   0.932   5.359  0.1113 -0.3804  0.1391
13149SOL    HW140260   5.621   0.951   5.408  0.1574 -2.0935  0.9139
13149SOL    HW240261   5.701   0.995   5.287 -2.7873 -1.4383 -0.8453
13150SOL     OW40262   6.277   7.467   0.836 -0.0754 -0.3207  0.0134
13150SOL    HW140263   6.272   7.520   0.757  2.3194 -0.0363  0.0133
13150SOL    HW240264   6.265   7.377   0.804  0.1722 -0.1498 -0.5823
13151SOL     OW40265   0.425   6.374   7.246 -0.3106 -0.5441  0.6033
13151SOL    HW140266   0.389   6.462   7.257  0.3310 -0.2640  0.4676
13151SOL    HW240267   0.356   6.324   7.202 -0.1048  0.2902 -0.6753
13152SOL     OW40268   5.293   1.934   1.449 -0.3315  0.3844 -0.0203
13152SOL    HW140269   5.301   1.893   1.535 -1.4017 -0.0587 -0.1182
13152SOL    HW240270   5.298   2.028   1.466  1.1002  0.2599  0.3268
13153SOL     OW40271   4.147   6.184   2.787 -0.4058 -0.0447  0.4611
13153SOL    HW140272   4.180   6.230   2.865 -0.3905  0.9334 -0.1157
13153SOL    HW240273   4.191   6.226   2.714 -1.4092 -0.0831 -0.1741
13154SOL     OW40274   7.659   1.579   2.883  0.0196 -0.3390 -0.0009
13154SOL    HW140275   7.676   1.606   2.793 -0.6451 -1.3353 -0.4340
13154SOL    HW240276   7.598   1.644   2.917  1.2162  0.7330  0.1310
13155SOL     OW40277   5.209   1.181   6.804 -0.2894  0.1095 -0.2187
13155SOL    HW140278   5.300   1.179   6.774 -0.9238 -1.3809 -2.1097
13155SOL    HW240279   5.191   1.274   6.818  1.1786  0.5145 -0.8999
13156SOL     OW40280   6.773   5.728   5.040 -0.0485 -0.1990 -0.3334
13156SOL    HW140281   6.816   5.770   5.115 -1.6804  0.4701  0.2565
13156SOL    HW240282   6.695   5.781   5.025  0.6410  0.1037 -3.0037
13157SOL     OW40283   0.574   0.265   0.838 -0.6569  0.1211  0.2655
13157SOL    HW140284   0.639   0.330   0.813 -1.9627  1.4922  0.3419
13157SOL    HW240285   0.505   0.273   0.772 -1.0365 -0.8909  0.5174
13158SOL     OW40286   0.833   7.647   4.148  0.1015  0.7959  0.3259
13158SOL    HW140287   0.808   7.651   4.241 -1.1632  0.3223  0.0145
13158SOL    HW240288   0.787   7.720   4.108 -0.8465 -0.1129 -0.2654
13159SOL     OW40289   6.803   3.549   3.543  0.2972  0.6134 -0.5979
13159SOL    HW140290   6.890   3.570   3.578 -0.1076  2.0756 -0.4067
13159SOL    HW240291   6.762   3.496   3.611  0.1165  2.0766  0.4790
13160SOL     OW40292   0.177   2.881   4.970  0.0881  0.0309 -0.1306
13160SOL    HW140293   0.269   2.899   4.950 -0.4542  2.2835 -0.7924
13160SOL    HW240294   0.152   2.949   5.033 -0.9886 -0.8761  0.4423
13161SOL     OW40295   7.168   1.379   6.155 -0.3168  0.5992 -0.1410
13161SOL    HW140296   7.118   1.368   6.236  0.3863 -2.0991 -0.0286
13161SOL    HW240297   7.253   1.338   6.174  0.6066  1.7975 -1.5595
13162SOL     OW40298   0.481   5.504   1.819  0.5811  0.3391  0.0881
13162SOL    HW140299   0.560   5.456   1.844  0.7223  0.7713  0.4751
13162SOL    HW240300   0.458   5.555   1.897 -0.2909 -0.0651  0.1056
13163SOL     OW40301   4.182   2.814   5.742 -0.0021  0.0370  0.4377
13163SOL    HW140302   4.169   2.843   5.832  0.5005  2.7373 -0.3208
13163SOL    HW240303   4.277   2.806   5.732 -0.0016  0.7034 -0.1333
13164SOL     OW40304   2.726   5.980   1.574 -0.9026 -0.1317  0.0792
13164SOL    HW140305   2.803   5.979   1.517 -0.4929  1.5653  0.5864
13164SOL    HW240306   2.653   6.005   1.516 -0.5463  1.2472  0.2088
13165SOL     OW40307   3.946   6.969   6.573 -0.0399 -0.6534  0.3772
13165SOL    HW140308   3.904   7.001   6.493  1.9307 -0.9670 -0.8103
13165SOL    HW240309   3.958   6.875   6.558  1.3332 -0.5190  0.5682
13166SOL     OW40310   0.016   7.880   7.022  0.4260  0.0585 -0.3897
13166SOL    HW140311   0.041   7.951   6.963  0.3789  0.0301 -0.4441
13166SOL    HW240312   0.005   7.921   7.107  1.1272 -0.0102 -0.2655
13167SOL     OW40313   4.551   5.508   4.531  0.0405 -0.1467  0.0410
13167SOL    HW140314   4.560   5.571   4.602  0.2292 -1.8594  1.5820
13167SOL    HW240315   4.614   5.537   4.465  1.1685  0.4469  1.3473
13168SOL     OW40316   3.910   1.541   2.472  0.1808 -0.4755  0.1098
13168SOL    HW140317   3.906   1.450   2.499 -0.5079 -0.4453  0.1290
13168SOL    HW240318   4.002   1.566   2.481  0.1774 -0.8396  1.1737
13169SOL     OW40319   5.050   0.405   1.203  0.4901 -0.1199  0.7067
13169SOL    HW140320   4.980   0.468   1.220 -2.5122 -3.3669  1.0968
13169SOL    HW240321   5.064   0.362   1.288  1.1050 -1.3135  0.0161
13170SOL     OW40322   7.672   3.694   0.906 -0.6107 -0.2168  0.2185
13170SOL    HW140323   7.764   3.672   0.915 -0.2227  1.0042 -0.5958
13170SOL    HW240324   7.652   3.678   0.813 -1.3209 -0.8695  0.4789
13171SOL     OW40325   3.057   6.474   5.591  0.0526  0.3847  0.2308
13171SOL    HW140326   2.997   6.400   5.593  0.3081  0.1954  1.2005
13171SOL    HW240327   3.091   6.480   5.680  2.1729 -0.0965 -0.4948
13172SOL     OW40328   5.233   4.415   3.006  0.5980  0.2137 -0.4535
13172SOL    HW140329   5.196   4.329   2.987  1.3538 -0.1187 -0.4463
13172SOL    HW240330   5.206   4.471   2.933  0.2471 -0.0667 -0.5381
13173SOL     OW40331   0.860   7.720   3.313 -0.3121  0.7156  0.2796
13173SOL    HW140332   0.860   7.786   3.382 -0.0750  1.0296 -0.0185
13173SOL    HW240333   0.898   7.765   3.237  0.9883 -0.1233  0.4261
13174SOL     OW40334   1.499   6.801   6.315 -0.3617 -0.0195 -0.3167
13174SOL    HW140335   1.528   6.749   6.240  1.0038  0.6388 -0.2630
13174SOL    HW240336   1.519   6.891   6.291  0.6513  0.1410  1.0867
13175SOL     OW40337   4.254   1.851   4.558  0.7596 -0.0828  0.3850
13175SOL    HW140338   4.318   1.921   4.544  1.8460 -0.6308  2.4610
13175SOL    HW240339   4.169   1.895   4.551  1.3146  0.6770 -2.2507
13176SOL     OW40340   2.094   2.732   6.333 -0.0680 -0.1026  0.0613
13176SOL    HW140341   2.176   2.750   6.379  0.0614 -1.8573  0.5630
13176SOL    HW240342   2.107   2.645   6.294 -1.0716  0.3219 -1.2723
13177SOL     OW40343   1.864   0.431   4.466  0.2602  0.1077 -0.4887
13177SOL    HW140344   1.863   0.383   4.549  1.0369  1.6621  0.4349
13177SOL    HW240345   1.783   0.404   4.423 -1.2189  0.8481  1.7028
13178SOL     OW40346   2.106   5.933   5.400 -0.0771  0.0768 -0.0793
13178SOL    HW140347   2.154   5.975   5.472  0.5993 -0.4187 -0.2307
13178SOL    HW240348   2.175   5.898   5.344 -0.6335 -1.8721  0.4202
13179SOL     OW40349   5.024   1.897   0.636 -0.3097  0.1508  0.0947
13179SOL    HW140350   5.087   1.956   0.593  0.2327  1.5188  2.7018
13179SOL    HW240351   5.076   1.851   0.702 -1.1859 -1.7816 -0.5354
13180SOL     OW40352   5.332   1.908   4.936  0.1818  0.0267  0.0932
13180SOL    HW140353   5.321   1.845   5.007  0.2102  0.4356  0.4684
13180SOL    HW240354   5.265   1.975   4.952 -0.2133 -0.1961 -0.6211
13181SOL     OW40355   2.251   2.212   1.980  0.2749  0.0127 -0.3881
13181SOL    HW140356   2.184   2.241   1.918 -0.8481 -1.4760  0.0776
13181SOL    HW240357   2.206   2.208   2.064  1.7881  2.0084  0.5625
13182SOL     OW40358   6.629   0.277   6.747 -0.3696 -0.3227  0.0104
13182SOL    HW140359   6.705   0.245   6.699 -0.6354  1.0027 -1.3201
13182SOL    HW240360   6.638   0.239   6.835  1.9333 -0.0011 -0.0704
13183SOL     OW40361   7.622   2.839   5.312 -0.2896  0.2060 -0.1299
13183SOL    HW140362   7.573   2.832   5.395 -0.6132 -1.8685 -0.4782
13183SOL    HW240363   7.664   2.925   5.317 -1.3481  0.6555  1.6253
13184SOL     OW40364   7.291   4.267   2.430  0.4885  0.2217  0.3090
13184SOL    HW140365   7.374   4.238   2.391 -0.0720  0.1251 -0.8320
13184SOL    HW240366   7.256   4.188   2.472 -0.0553 -0.2737 -1.0548
13185SOL     OW40367   6.390   4.258   6.036  0.6027 -0.4497  0.0301
13185SOL    HW140368   6.446   4.184   6.014 -1.3408 -2.8297  2.7024
13185SOL    HW240369   6.316   4.251   5.975  1.8618  1.1692 -1.7583
13186SOL     OW40370   5.959   4.758   6.519 -0.0824  0.2815  0.5605
13186SOL    HW140371   5.903   4.688   6.552 -1.7594  1.6842  0.7541
13186SOL    HW240372   5.932   4.772   6.429  1.7873 -0.8248 -0.2061
13187SOL     OW40373   6.844   3.823   5.854  0.0515 -0.0308  0.0085
13187SOL    HW140374   6.853   3.728   5.863  0.3362  0.1157  1.3685
13187SOL    HW240375   6.780   3.835   5.784 -1.2363 -1.2327  0.9725
13188SOL     OW40376   2.212   6.394   3.778  0.6183 -0.8738  0.2154
13188SOL    HW140377   2.205   6.395   3.682 -1.1944  0.8134  0.3446
13188SOL    HW240378   2.262   6.474   3.799  1.8413 -1.7324  0.6396
13189SOL     OW40379   7.764   6.635   2.569  0.4962  0.0889  0.0250
13189SOL    HW140380   7.757   6.540   2.567 -0.8593  0.1840 -0.1623
13189SOL    HW240381   7.808   6.654   2.652  3.0744 -0.8077 -1.0601
13190SOL     OW40382   5.650   7.005   0.580 -0.2892  0.9268 -1.2517
13190SOL    HW140383   5.692   6.982   0.663  1.0171  0.7323 -1.9639
13190SOL    HW240384   5.611   6.923   0.550 -0.6912  0.9774 -0.8746
13191SOL     OW40385   1.294   1.409   5.070  0.6311 -0.1764  0.6107
13191SOL    HW140386   1.364   1.449   5.019 -0.2429 -0.0259 -0.5078
13191SOL    HW240387   1.331   1.327   5.103  1.1847 -0.3199 -0.3560
13192SOL     OW40388   4.380   0.353   0.266  0.3795 -0.1188  0.0643
13192SOL    HW140389   4.317   0.387   0.203  2.6834  0.7771 -1.8126
13192SOL    HW240390   4.453   0.415   0.263  2.1560 -2.1206  0.8033
13193SOL     OW40391   3.450   1.263   3.624 -0.5910  0.6289  0.2399
13193SOL    HW140392   3.413   1.211   3.553 -1.7049  1.5034  0.1733
13193SOL    HW240393   3.522   1.311   3.582  1.9539 -2.5367  0.8024
13194SOL     OW40394   6.723   2.657   3.033 -0.1785 -0.5700 -0.2666
13194SOL    HW140395   6.694   2.686   2.947 -0.5971  0.7941  0.3095
13194SOL    HW240396   6.819   2.665   3.031 -0.3276  1.4645  0.0769
13195SOL     OW40397   4.255   5.936   0.602 -0.5224  0.3639 -0.3132
13195SOL    HW140398   4.288   5.868   0.543 -0.2606 -0.1465  0.4140
13195SOL    HW240399   4.179   5.973   0.556 -0.4212 -0.1442 -0.8899
13196SOL     OW40400   4.288   5.738   6.052  0.8793  0.3382  0.3089
13196SOL    HW140401   4.268   5.678   5.980  4.7545 -0.7731  0.0402
13196SOL    HW240402   4.273   5.825   6.015 -1.4058 -0.3357 -0.4129
13197SOL     OW40403   6.652   5.139   7.266  0.5981 -0.4982  0.0147
13197SOL    HW140404   6.642   5.228   7.235 -0.0692 -0.6359 -0.1602
13197SOL    HW240405   6.591   5.087   7.214  1.8589 -1.2580 -0.7359
13198SOL     OW40406   3.960   0.307   5.507  0.1097 -0.1834  0.1167
13198SOL    HW140407   3.887   0.246   5.523  1.9198 -1.6053  3.5957
13198SOL    HW240408   4.033   0.251   5.481  0.8911  0.8259  0.0998
13199SOL     OW40409   4.027   4.263   7.101 -0.4234  0.2248 -0.0786
13199SOL    HW140410   4.072   4.307   7.174 -1.5520  2.0667 -0.4556
13199SOL    HW240411   4.008   4.175   7.134 -1.6108  1.2806  2.1771
13200SOL     OW40412   3.238   7.943   3.050 -0.3521 -0.3233  0.0151
13200SOL    HW140413   3.256   7.930   3.143 -0.1051 -1.1554 -0.1479
13200SOL    HW240414   3.229   7.854   3.014  0.1590 -0.0237 -0.8707
13201SOL     OW40415   5.950   0.030   4.513 -0.0299 -0.1135  0.5224
13201SOL    HW140416   5.942   0.046   4.607  0.9483 -0.2951  0.6342
13201SOL    HW240417   6.038  -0.005   4.501 -0.2477 -0.3653 -0.4274
13202SOL     OW40418   7.487   5.288   0.042 -0.1863 -0.2614  0.2736
13202SOL    HW140419   7.448   5.271   0.127 -1.7233  0.2498 -0.3200
13202SOL    HW240420   7.418   5.270  -0.021  0.4559  0.8566 -0.7814
13203SOL     OW40421   4.111   0.401   4.289 -0.1124 -0.3547  0.6635
13203SOL    HW140422   4.200   0.381   4.318  0.1867 -0.2289 -0.1559
13203SOL    HW240423   4.118   0.406   4.193 -0.9411 -0.0666  0.6185
13204SOL     OW40424   2.041   6.595   7.332 -0.4723 -0.4946  0.6379
13204SOL    HW140425   1.955   6.601   7.290  0.5621  2.1770 -1.2536
13204SOL    HW240426   2.031   6.642   7.414 -1.1316 -1.2208  0.9778
13205SOL     OW40427   3.100   7.774   0.311 -0.1968  0.4494 -0.7023
13205SOL    HW140428   3.119   7.775   0.217 -0.1772  1.3911 -0.6832
13205SOL    HW240429   3.071   7.862   0.331  0.4721  0.4470  0.3216
13206SOL     OW40430   3.381   0.246   1.331 -0.1879 -0.1640 -0.6001
13206SOL    HW140431   3.360   0.214   1.419  0.8035  0.8279  0.0251
13206SOL    HW240432   3.414   0.169   1.285 -0.6406 -0.6813 -0.0738
13207SOL     OW40433   3.586   0.483   2.462 -0.9009 -0.2598  0.1436
13207SOL    HW140434   3.554   0.553   2.518 -1.7359  0.9011 -1.7440
13207SOL    HW240435   3.508   0.443   2.424 -0.3318 -0.5385 -0.7784
13208SOL     OW40436   4.903   5.064   6.671  0.0635  0.2791  0.1945
13208SOL    HW140437   4.964   5.063   6.598 -0.3161 -2.7111 -0.1549
13208SOL    HW240438   4.817   5.071   6.631 -0.0176  1.1736  0.5105
13209SOL     OW40439   7.552   2.073   6.950  0.4578 -0.1633  0.3970
13209SOL    HW140440   7.547   2.006   7.018 -1.2053  0.1461  0.6247
13209SOL    HW240441   7.535   2.156   6.996  1.7249  0.3316 -0.0056
13210SOL     OW40442   4.673   7.461   1.664 -0.2588 -0.4276 -0.5946
13210SOL    HW140443   4.672   7.486   1.572  1.3222  0.7859 -0.3174
13210SOL    HW240444   4.764   7.437   1.681 -0.7248 -1.5150  0.4410
13211SOL     OW40445   4.101   1.125   2.052  0.1230 -0.2383  0.4072
13211SOL    HW140446   4.079   1.215   2.076 -1.1142 -0.8037  1.4327
13211SOL    HW240447   4.058   1.112   1.968 -1.0290 -0.3881  1.0164
13212SOL     OW40448   2.869   2.192   6.763 -0.6321 -0.6908 -0.6956
13212SOL    HW140449   2.900   2.186   6.853 -0.2005  0.0594 -0.7875
13212SOL    HW240450   2.948   2.209   6.711 -0.9089 -0.8763 -1.1829
13213SOL     OW40451   4.277   6.630   5.341  0.3737 -0.1856 -0.5622
13213SOL    HW140452   4.221   6.586   5.404 -0.7494 -1.7258 -2.5638
13213SOL    HW240453   4.363   6.588   5.351  0.5869  0.5849  0.9172
13214SOL     OW40454   3.051   0.923   0.703 -0.0315 -0.1340  0.1884
13214SOL    HW140455   2.968   0.880   0.680 -1.7322  1.9342  2.2083
13214SOL    HW240456   3.085   0.873   0.777 -1.6384  1.4688  2.0628
13215SOL     OW40457   2.268   3.274   5.997 -0.6322 -0.5602  0.0823
13215SOL    HW140458   2.244   3.344   6.058 -0.6666 -1.4232  1.0818
13215SOL    HW240459   2.208   3.203   6.018 -0.1441 -1.1356 -0.4500
13216SOL     OW40460   6.406   3.457   0.460 -0.1128 -0.5849  0.0383
13216SOL    HW140461   6.482   3.509   0.434  0.3483 -1.1772  0.2029
13216SOL    HW240462   6.429   3.422   0.547  0.0215 -1.9387 -0.5289
13217SOL     OW40463   1.761   1.908   2.504  0.2456 -0.2863 -0.2908
13217SOL    HW140464   1.755   1.994   2.462  3.8109  0.7415  1.1975
13217SOL    HW240465   1.716   1.919   2.587  1.0522  0.2711  0.0764
13218SOL     OW40466   3.272   5.653   4.374  0.6504 -0.4646  0.2025
13218SOL    HW140467   3.179   5.652   4.352  1.2132 -1.7814 -2.2945
13218SOL    HW240468   3.296   5.746   4.374 -0.5128 -0.1608  0.2012
13219SOL     OW40469   2.960   1.519   3.556 -0.1618 -0.3395  0.1808
13219SOL    HW140470   2.991   1.514   3.647 -1.9342  1.4074  0.9116
13219SOL    HW240471   2.868   1.492   3.560  0.1790 -1.8462 -1.3818
13220SOL     OW40472   3.718   3.919   6.593 -0.0795 -0.4944  0.0658
13220SOL    HW140473   3.780   3.931   6.665 -0.0618  0.0943 -0.0408
13220SOL    HW240474   3.650   3.985   6.610  0.2387  0.0554 -0.7901
13221SOL     OW40475   1.052   1.118   5.767 -0.1972  0.0264 -0.1240
13221SOL    HW140476   1.094   1.091   5.849  0.9709  0.8057 -0.4682
13221SOL    HW240477   0.960   1.133   5.792 -0.2331 -1.4082  0.6754
13222SOL     OW40478   1.172   0.795   6.924 -0.2648 -0.1665  0.0480
13222SOL    HW140479   1.210   0.856   6.861 -2.7636 -0.5536 -1.8979
13222SOL    HW240480   1.085   0.831   6.943  0.5139  0.0701  3.5135
13223SOL     OW40481   5.171   4.605   6.421  0.3412 -0.5839  0.1134
13223SOL    HW140482   5.098   4.622   6.481 -0.2383 -1.5448 -0.3167
13223SOL    HW240483   5.197   4.515   6.439  2.1115  0.0858  0.9882
13224SOL     OW40484   2.926   4.056   0.398 -0.4034  0.3626  0.0187
13224SOL    HW140485   2.914   4.018   0.310 -1.5104 -0.9470  0.7136
13224SOL    HW240486   2.840   4.090   0.421  0.2577  2.1425 -0.0242
13225SOL     OW40487   6.934   7.949   5.716  0.0953 -0.4441 -0.0580
13225SOL    HW140488   6.986   7.869   5.712  2.4199  0.9474  1.4442
13225SOL    HW240489   6.901   7.951   5.806 -1.1786 -0.4326 -0.5094
13226SOL     OW40490   6.936   6.264   2.069  0.1196 -0.0425  0.4676
13226SOL    HW140491   6.949   6.192   2.131 -1.3095 -3.0172 -2.5303
13226SOL    HW240492   7.024   6.291   2.045  0.6860 -0.9014  1.5002
13227SOL     OW40493   3.804   4.713   6.575  0.3432 -0.1353  0.3426
13227SOL    HW140494   3.849   4.646   6.523  0.6402 -0.7534  1.3757
13227SOL    HW240495   3.859   4.723   6.653 -0.0161  0.8907  0.4691
13228SOL     OW40496   4.278   5.384   0.231 -0.0668 -0.0541 -0.7896
13228SOL    HW140497   4.345   5.451   0.230 -0.3810  0.2535 -1.1371
13228SOL    HW240498   4.285   5.340   0.146 -1.5166  1.1854 -1.5718
13229SOL     OW40499   1.570   5.517   4.601  0.0141  0.1710 -0.2427
13229SOL    HW140500   1.545   5.425   4.603 -0.3338  0.2639 -0.2969
13229SOL    HW240501   1.637   5.525   4.669 -1.2714  0.2520  1.0524
13230SOL     OW40502   3.892   0.518   1.593  0.2292 -0.4564 -0.7536
13230SOL    HW140503   3.813   0.554   1.554  2.0025  3.0043 -1.3796
13230SOL    HW240504   3.879   0.528   1.687 -1.4588 -3.0891 -0.6662
13231SOL     OW40505   6.057   2.857   3.521 -0.5547  0.5794  0.2887
13231SOL    HW140506   6.082   2.943   3.485  1.8062 -0.4479 -0.6441
13231SOL    HW240507   6.133   2.830   3.572 -2.3201  0.1794  2.7685
13232SOL     OW40508   0.689   2.270   6.773  0.0226 -0.0190  0.3441
13232SOL    HW140509   0.684   2.365   6.766 -0.0836  0.0434  1.2628
13232SOL    HW240510   0.639   2.238   6.697 -0.6462  0.6534  0.4958
13233SOL     OW40511   6.861   0.779   5.471 -0.2454  0.3526 -0.3837
13233SOL    HW140512   6.851   0.863   5.517  0.2920  0.6409 -0.7846
13233SOL    HW240513   6.911   0.801   5.392  0.0491 -0.3749 -0.4035
13234SOL     OW40514   4.100   5.121   4.972  0.8475  0.4684 -0.3077
13234SOL    HW140515   4.142   5.035   4.969  0.4103  0.2855 -0.9785
13234SOL    HW240516   4.103   5.145   5.065 -1.2670 -1.3634  0.2617
13235SOL     OW40517   5.432   5.140   2.869 -0.4622 -0.6151  0.2330
13235SOL    HW140518   5.476   5.097   2.796  1.1540  0.4277  0.5618
13235SOL    HW240519   5.343   5.103   2.870  0.7374 -3.6070  0.2629
13236SOL     OW40520   4.287   2.265   2.017  0.3950  0.3464 -0.3916
13236SOL    HW140521   4.274   2.349   1.974 -4.3199  0.6890  1.4197
13236SOL    HW240522   4.223   2.207   1.976 -0.1089 -0.8781  2.0018
13237SOL     OW40523   6.151   2.003   5.303 -0.0031  0.4789 -0.3729
13237SOL    HW140524   6.224   2.014   5.364 -0.0394 -0.1140 -0.2185
13237SOL    HW240525   6.154   1.910   5.279 -0.4588  0.5432 -0.6803
13238SOL     OW40526   6.789   1.619   4.913  0.0980  0.0327  0.5576
13238SOL    HW140527   6.870   1.617   4.965  0.1561 -2.4174  0.4155
13238SOL    HW240528   6.729   1.672   4.964  1.0800  0.0289  1.7347
13239SOL     OW40529   6.169   6.945   2.380 -0.3907 -0.0430  0.1990
13239SOL    HW140530   6.236   7.013   2.383  0.3764 -0.7026 -1.3346
13239SOL    HW240531   6.213   6.867   2.414 -0.6815 -0.2347  0.1312
13240SOL     OW40532   4.702   6.416   4.846  0.4066 -0.0740  0.1158
13240SOL    HW140533   4.720   6.352   4.915 -1.6769 -1.3582 -0.4861
13240SOL    HW240534   4.741   6.378   4.767 -0.2639 -0.2742 -0.1152
13241SOL     OW40535   3.575   0.298   1.917 -0.0198 -0.2609  0.0363
13241SOL    HW140536   3.560   0.208   1.946 -0.4870  0.1161  0.9984
13241SOL    HW240537   3.536   0.352   1.986  1.6365  0.7039  0.2484
13242SOL     OW40538   3.188   1.422   6.749 -0.3388  0.8250  0.3850
13242SOL    HW140539   3.263   1.397   6.694  0.2811  2.2884  0.5223
13242SOL    HW240540   3.204   1.515   6.769 -1.8134  0.9470  1.0322
13243SOL     OW40541   7.990   3.309   4.008  0.2702  0.3245 -0.4822
13243SOL    HW140542   7.946   3.259   3.940 -0.3191 -0.0547  0.1612
13243SOL    HW240543   8.008   3.245   4.077  0.5407  0.7666 -0.1381
13244SOL     OW40544   5.884   3.332   5.041  0.1289  0.5233 -0.8519
13244SOL    HW140545   5.959   3.319   5.099 -1.4090 -0.8534  0.9049
13244SOL    HW240546   5.889   3.424   5.016  0.1832  1.4888  2.4657
13245SOL     OW40547   1.841   6.810   1.476 -0.3366 -0.3977  0.7058
13245SOL    HW140548   1.775   6.838   1.540 -0.4598 -1.5411  1.0910
13245SOL    HW240549   1.824   6.863   1.398 -1.0501  0.0420  1.1591
13246SOL     OW40550   0.878   4.464   0.234 -0.0567 -0.6537  0.0099
13246SOL    HW140551   0.799   4.518   0.229 -1.9947 -3.3336  0.1238
13246SOL    HW240552   0.885   4.423   0.148 -0.6057 -2.8032  0.9492
13247SOL     OW40553   2.379   6.887   7.994 -0.1438  0.7848 -0.1385
13247SOL    HW140554   2.358   6.939   8.072  1.0894  3.0263 -1.2342
13247SOL    HW240555   2.296   6.882   7.947 -0.9984 -0.9490  1.4909
13248SOL     OW40556   7.195   5.021   7.083  0.4694 -0.3803  0.0132
13248SOL    HW140557   7.212   4.939   7.129  3.2908  0.5599  0.7236
13248SOL    HW240558   7.146   5.074   7.147  2.7524  0.2117  1.3511
13249SOL     OW40559   2.412   5.441   5.230 -0.1453  0.7048  0.5010
13249SOL    HW140560   2.347   5.399   5.287 -1.6784  2.6111  0.2225
13249SOL    HW240561   2.365   5.454   5.147  1.1091  0.6860 -0.2237
13250SOL     OW40562   0.869   5.084   5.205  0.1766 -0.1462 -0.4311
13250SOL    HW140563   0.912   5.101   5.122 -0.1532  0.6225 -0.4479
13250SOL    HW240564   0.777   5.106   5.190  0.4416  1.9193  0.6659
13251SOL     OW40565   0.489   3.002   5.564  0.6971  0.1035  0.5645
13251SOL    HW140566   0.441   2.921   5.581  2.0819 -0.6199  1.0176
13251SOL    HW240567   0.494   3.007   5.469  1.2323 -0.7051  0.5505
13252SOL     OW40568   0.643   7.581   5.414  0.1804 -0.0144  0.0167
13252SOL    HW140569   0.671   7.614   5.499  3.1487 -1.4352 -0.3687
13252SOL    HW240570   0.598   7.498   5.434  2.6838 -1.3930  0.0787
13253SOL     OW40571   7.705   3.859   4.230  0.0051  0.1700 -0.3035
13253SOL    HW140572   7.612   3.856   4.253  0.1646  0.3467  0.3445
13253SOL    HW240573   7.733   3.948   4.253  0.0457  0.5075 -1.6043
13254SOL     OW40574   7.911   0.346   0.831  0.6159  0.0204  0.2549
13254SOL    HW140575   7.877   0.410   0.894 -0.9083 -0.0041 -0.5180
13254SOL    HW240576   7.863   0.266   0.851  2.1130 -0.7558  0.8445
13255SOL     OW40577   0.711   2.345   7.670 -0.1225  0.0365  0.3339
13255SOL    HW140578   0.687   2.278   7.734 -1.8099  0.2675 -0.0460
13255SOL    HW240579   0.650   2.416   7.685 -0.0326  0.4087 -1.0270
13256SOL     OW40580   4.968   6.818   7.756  0.0189 -0.2305  0.1372
13256SOL    HW140581   5.055   6.785   7.778  0.1825  1.0232  1.4199
13256SOL    HW240582   4.907   6.759   7.801  0.2486 -0.1483  0.5511
13257SOL     OW40583   4.741   2.027   4.604 -0.2391  0.0317  0.2803
13257SOL    HW140584   4.743   2.121   4.584 -1.5021 -0.4924 -2.6838
13257SOL    HW240585   4.827   1.995   4.575 -0.3731  0.0454 -0.1472
13258SOL     OW40586   0.289   7.807   4.051  0.1114  0.6032 -0.3065
13258SOL    HW140587   0.328   7.728   4.087  1.4372  0.1562 -2.5884
13258SOL    HW240588   0.279   7.866   4.126 -0.8324 -1.6708  1.4036
13259SOL     OW40589   3.048   3.771   1.840  0.1723 -0.1519 -0.0858
13259SOL    HW140590   3.057   3.789   1.747 -1.3276 -1.0720 -0.4265
13259SOL    HW240591   3.136   3.781   1.876  0.6930  0.5229 -1.5363
13260SOL     OW40592   7.665   0.023   6.077 -0.2193  0.0768 -0.3973
13260SOL    HW140593   7.701   0.055   5.994  1.9503  0.7526  0.7722
13260SOL    HW240594   7.639   0.103   6.123 -0.4280 -0.2245  0.0060
13261SOL     OW40595   5.462   1.680   7.914 -0.2942  0.6219 -0.6409
13261SOL    HW140596   5.552   1.659   7.939 -0.3866  1.4679  0.4546
13261SOL    HW240597   5.411   1.667   7.994 -1.1782 -0.0063 -1.3015
13262SOL     OW40598   4.034   4.108   3.067 -0.7017 -1.1650 -0.2724
13262SOL    HW140599   3.994   4.110   2.981  0.8229  0.2116 -0.9774
13262SOL    HW240600   3.988   4.038   3.114 -0.7622 -2.7149 -2.5794
13263SOL     OW40601   1.171   3.145   2.680  0.6458 -0.3520 -0.2298
13263SOL    HW140602   1.077   3.165   2.682  1.2475  2.7799  3.2335
13263SOL    HW240603   1.179   3.063   2.728 -0.2578 -0.1462  0.2906
13264SOL     OW40604   5.358   1.630   2.174 -0.0610 -0.1555  0.1948
13264SOL    HW140605   5.450   1.649   2.156 -0.4517  0.5442 -1.1374
13264SOL    HW240606   5.347   1.651   2.266  0.6571  1.6599 -0.1127
13265SOL     OW40607   0.729   5.812   0.051  0.5344 -0.1361  0.0008
13265SOL    HW140608   0.685   5.871  -0.010 -2.2967 -0.7175  1.3960
13265SOL    HW240609   0.788   5.759  -0.003 -0.4463  0.7122 -1.9113
13266SOL     OW40610   6.634   5.376   4.746 -0.2880  0.0130  0.5834
13266SOL    HW140611   6.657   5.341   4.832 -0.7804 -1.5128  0.1206
13266SOL    HW240612   6.716   5.373   4.696 -0.5606 -1.6279  0.1889
13267SOL     OW40613   0.028   0.245   2.077 -0.5695  0.2711 -0.1543
13267SOL    HW140614   0.062   0.233   1.988 -0.9053  0.9056 -0.3678
13267SOL    HW240615   0.059   0.331   2.103 -0.3944  0.0462  0.3833
13268SOL     OW40616   6.648   6.833   2.858  0.4018  0.0461 -0.8043
13268SOL    HW140617   6.672   6.788   2.777 -0.6220  1.6820 -2.0307
13268SOL    HW240618   6.630   6.761   2.920  1.2168 -1.2147 -1.9977
13269SOL     OW40619   0.524   7.726   1.139  0.3781 -0.0231 -0.1156
13269SOL    HW140620   0.460   7.659   1.163 -0.6413  0.6263 -1.0099
13269SOL    HW240621   0.602   7.704   1.190  0.6920 -2.9847 -1.7551
13270SOL     OW40622   1.401   2.511   2.898 -0.5565  0.9088 -0.1552
13270SOL    HW140623   1.425   2.513   2.805  1.0298 -1.0917  0.1867
13270SOL    HW240624   1.461   2.573   2.939  2.9169 -2.6251  0.3929
13271SOL     OW40625   0.888   7.773   0.516 -0.2438 -0.2881  0.2063
13271SOL    HW140626   0.975   7.739   0.540 -0.2053 -0.2364  0.1402
13271SOL    HW240627   0.862   7.826   0.592  0.7569  1.5304 -0.6760
13272SOL     OW40628   5.043   7.253   2.550 -0.0265  0.3607  0.0189
13272SOL    HW140629   4.985   7.312   2.502  1.3767  0.7013 -1.2939
13272SOL    HW240630   5.084   7.308   2.616 -1.0306  0.1664  0.8123
13273SOL     OW40631   4.166   5.196   0.422  0.0964  0.2270 -0.5152
13273SOL    HW140632   4.222   5.240   0.358 -0.3673  0.6783 -0.6068
13273SOL    HW240633   4.171   5.252   0.500  0.3987 -0.1496 -0.2588
13274SOL     OW40634   1.962   5.231   0.957  0.1077  0.1259  0.1649
13274SOL    HW140635   1.918   5.312   0.932 -2.0236 -0.8107  0.7794
13274SOL    HW240636   1.936   5.168   0.889 -0.1845 -0.6426  0.9774
13275SOL     OW40637   6.880   0.202   3.251  1.0170  0.0294 -0.1579
13275SOL    HW140638   6.823   0.266   3.295  1.3865 -0.7007  1.3966
13275SOL    HW240639   6.857   0.211   3.158 -0.5531  0.8261  0.2758
13276SOL     OW40640   7.559   0.110   2.180  0.0736  0.0835 -0.1493
13276SOL    HW140641   7.541   0.016   2.187  0.4637 -0.1775 -2.3352
13276SOL    HW240642   7.536   0.145   2.267 -2.9907 -1.5393 -0.2096
13277SOL     OW40643   3.171   5.704   7.120 -0.6437  0.6369 -0.2434
13277SOL    HW140644   3.119   5.708   7.201 -1.7079 -2.6766 -0.6717
13277SOL    HW240645   3.241   5.642   7.140  1.9352  3.4266 -0.3917
13278SOL     OW40646   5.835   3.313   3.543 -0.0172 -0.1003 -0.1055
13278SOL    HW140647   5.879   3.350   3.620 -1.5957 -1.2380  1.3905
13278SOL    HW240648   5.762   3.372   3.527  0.5750  0.3938 -1.0453
13279SOL     OW40649   5.918   7.233   6.352  0.1274  0.2289  0.0924
13279SOL    HW140650   5.872   7.308   6.316 -0.4404  0.0698  0.4838
13279SOL    HW240651   5.875   7.157   6.313  2.2241  0.1415 -2.1593
13280SOL     OW40652   0.255   1.773   6.652  0.2618 -0.0368  0.5024
13280SOL    HW140653   0.288   1.845   6.706 -0.1038  0.5018  0.0125
13280SOL    HW240654   0.332   1.740   6.607  0.3181  0.5333  0.1681
13281SOL     OW40655   5.990   1.176   1.613 -0.5035  0.7506  0.1956
13281SOL    HW140656   5.906   1.151   1.575 -0.7002 -0.3432  1.3153
13281SOL    HW240657   6.029   1.093   1.642 -0.5796  1.5583  2.7774
13282SOL     OW40658   3.573   6.844   0.953 -0.0666 -0.1806  0.3248
13282SOL    HW140659   3.594   6.776   0.888 -1.8939 -1.1308  0.7001
13282SOL    HW240660   3.519   6.907   0.905 -0.5109 -0.3251  0.6306
13283SOL     OW40661   0.926   5.128   6.457 -0.0808  0.0904  0.2104
13283SOL    HW140662   0.982   5.057   6.486 -1.4824 -1.0335  0.1910
13283SOL    HW240663   0.987   5.192   6.418  1.5003  0.3154  2.9197
13284SOL     OW40664   2.293   1.899   7.576  0.1232  0.1355  0.4039
13284SOL    HW140665   2.315   1.852   7.656 -0.7829 -1.6482 -0.3714
13284SOL    HW240666   2.356   1.971   7.572  0.2238  0.1986  2.6723
13285SOL     OW40667   3.096   0.629   4.572  0.0208  0.2103 -0.0655
13285SOL    HW140668   3.181   0.638   4.529 -0.5623 -0.9806 -1.5237
13285SOL    HW240669   3.096   0.540   4.608 -1.1527 -0.3130 -1.3215
13286SOL     OW40670   1.918   2.682   3.907  0.2526  0.3208  0.0556
13286SOL    HW140671   1.965   2.760   3.877  1.8604  0.3276  2.5122
13286SOL    HW240672   1.960   2.609   3.861  0.1062  0.6772 -0.6580
13287SOL     OW40673   2.513   6.928   6.743  0.7593 -0.1183  0.6378
13287SOL    HW140674   2.586   6.983   6.771  1.5148 -0.4143 -0.7482
13287SOL    HW240675   2.481   6.888   6.824  1.7710  0.4346  1.3249
13288SOL     OW40676   3.221   4.770   7.486 -0.1452  0.0430  0.3082
13288SOL    HW140677   3.184   4.699   7.539 -1.4811  0.9394  0.6005
13288SOL    HW240678   3.146   4.823   7.460  1.0913  2.9488  2.4163
13289SOL     OW40679   5.603   7.427   5.295 -0.2728 -0.1428  0.2422
13289SOL    HW140680   5.625   7.397   5.383 -0.3584 -1.6380 -0.2448
13289SOL    HW240681   5.650   7.367   5.236 -2.4161 -0.8644 -0.7600
13290SOL     OW40682   0.747   3.783   7.400  0.1364 -0.3682  0.5727
13290SOL    HW140683   0.801   3.837   7.457 -0.1420  0.7544 -0.1907
13290SOL    HW240684   0.670   3.837   7.382  0.0026 -0.8778 -0.4750
13291SOL     OW40685   0.289   4.682   0.673  0.1537  0.3126  0.1699
13291SOL    HW140686   0.285   4.777   0.667 -0.4082  0.2159 -1.0993
13291SOL    HW240687   0.198   4.653   0.676  0.3204 -0.1806  0.8821
13292SOL     OW40688   3.604   7.588   6.597  0.0645  0.0103 -0.2199
13292SOL    HW140689   3.559   7.576   6.514  0.6985 -0.6439 -0.4657
13292SOL    HW240690   3.686   7.540   6.588 -0.1521 -0.6257  1.0161
13293SOL     OW40691   6.898   2.281   7.942  0.1691 -0.4852  0.2037
13293SOL    HW140692   6.934   2.290   7.854 -1.0851 -0.8776 -0.3598
13293SOL    HW240693   6.850   2.198   7.940  1.5828 -1.3904  1.7865
13294SOL     OW40694   6.673   7.213   5.004 -0.1052  0.9390 -0.2557
13294SOL    HW140695   6.610   7.140   5.005  1.2187 -0.2455 -0.7205
13294SOL    HW240696   6.688   7.232   5.097 -2.0463  2.0439 -0.1503
13295SOL     OW40697   1.555   6.650   1.345  0.0322  0.6514  0.5495
13295SOL    HW140698   1.535   6.739   1.318  1.4985  1.1835  1.1685
13295SOL    HW240699   1.550   6.598   1.265 -0.6408  1.3145  0.1589
13296SOL     OW40700   3.481   0.890   3.607 -0.6547  0.6326  0.1836
13296SOL    HW140701   3.402   0.934   3.574 -0.9981  0.9232  1.3895
13296SOL    HW240702   3.488   0.918   3.698 -2.2371 -3.6168  1.7578
13297SOL     OW40703   6.427   7.833   2.008 -0.1919 -0.5030  0.3182
13297SOL    HW140704   6.501   7.788   1.967 -1.2305 -1.4059 -0.5558
13297SOL    HW240705   6.352   7.776   1.993 -1.4554  1.3296 -0.4670
13298SOL     OW40706   5.689   0.782   7.605 -0.4801 -0.5769 -0.4494
13298SOL    HW140707   5.765   0.841   7.603  0.6146 -1.9628 -1.0447
13298SOL    HW240708   5.641   0.807   7.684 -1.6093  3.0041 -2.1600
13299SOL     OW40709   2.634   3.519   6.400 -0.1406  0.1803 -0.1701
13299SOL    HW140710   2.609   3.611   6.408  1.6144  0.6691 -0.1117
13299SOL    HW240711   2.713   3.520   6.346  1.1439 -1.0897  1.6065
13300SOL     OW40712   0.821   4.476   2.368  0.4599  0.5538 -0.0525
13300SOL    HW140713   0.847   4.385   2.382  2.6920  1.2745  0.7123
13300SOL    HW240714   0.809   4.512   2.456 -2.4630  0.4709 -0.3781
13301SOL     OW40715   5.922   0.906   5.042  0.1311 -0.4921  0.0734
13301SOL    HW140716   5.829   0.893   5.062 -0.4625  0.6096 -1.7836
13301SOL    HW240717   5.941   0.840   4.974 -0.2418  1.5419 -2.0654
13302SOL     OW40718   3.583   3.050   2.983 -0.0716 -0.4829  0.3203
13302SOL    HW140719   3.670   3.080   3.009 -0.2581  0.4205 -0.0593
13302SOL    HW240720   3.523   3.100   3.039 -0.3973  0.0783 -0.5195
13303SOL     OW40721   5.642   6.123   7.966  0.1324 -0.2558  0.4754
13303SOL    HW140722   5.552   6.148   7.985  0.4014  1.3790 -0.3065
13303SOL    HW240723   5.693   6.159   8.039  0.2554 -0.3269  0.4242
13304SOL     OW40724   6.177   0.141   0.493 -0.0629  0.0969 -0.2459
13304SOL    HW140725   6.139   0.071   0.439  0.8197  0.4660 -1.3544
13304SOL    HW240726   6.223   0.197   0.431  0.4674  0.8591  0.8250
13305SOL     OW40727   2.840   1.516   2.191  0.0206 -0.0864  0.2217
13305SOL    HW140728   2.846   1.604   2.155 -0.1125 -0.2327 -0.1628
13305SOL    HW240729   2.765   1.520   2.252 -1.5665 -0.5689 -1.6491
13306SOL     OW40730   6.543   0.865   6.135  0.1287  0.0657  0.0246
13306SOL    HW140731   6.545   0.769   6.130  0.3702  0.1226 -0.9577
13306SOL    HW240732   6.629   0.893   6.103 -0.0293  0.6230  0.0858
13307SOL     OW40733   0.918   5.030   4.460  0.2435  0.5977  0.2499
13307SOL    HW140734   0.857   4.980   4.514 -0.0407 -0.9228 -1.4250
13307SOL    HW240735   0.919   5.118   4.499 -2.3202  0.3973  0.8204
13308SOL     OW40736   4.719   6.336   2.083 -0.2191  0.3882 -0.1620
13308SOL    HW140737   4.795   6.390   2.060  0.7206 -1.3480 -1.2229
13308SOL    HW240738   4.644   6.384   2.048  0.6988  0.5100 -2.0082
13309SOL     OW40739   4.356   2.656   3.087  0.2995  0.2943 -0.1733
13309SOL    HW140740   4.353   2.746   3.119 -0.2309  0.7541 -1.4924
13309SOL    HW240741   4.300   2.607   3.147  0.0532  0.9750  0.1527
13310SOL     OW40742   2.923   7.254   6.847 -0.3783 -0.2450 -0.1017
13310SOL    HW140743   2.841   7.304   6.846  0.1620  0.6345 -0.5856
13310SOL    HW240744   2.974   7.294   6.917  0.3499  0.3715 -0.9695
13311SOL     OW40745   5.080   4.980   0.823 -0.5517 -0.5040 -0.2763
13311SOL    HW140746   5.123   4.950   0.903  1.4545 -0.7734 -1.4186
13311SOL    HW240747   5.084   5.076   0.829  0.3071 -0.5220 -0.3937
13312SOL     OW40748   6.321   5.779   5.149 -0.4034 -0.2430  0.2071
13312SOL    HW140749   6.309   5.783   5.054  3.3051  0.8874 -0.2969
13312SOL    HW240750   6.351   5.690   5.166 -2.4923 -0.9097  0.5638
13313SOL     OW40751   5.419   3.244   3.724 -0.2477  0.4270 -0.5453
13313SOL    HW140752   5.370   3.163   3.711 -1.5934  1.1557 -0.1822
13313SOL    HW240753   5.503   3.229   3.682 -0.8604 -0.7883 -1.3619
13314SOL     OW40754   7.237   2.543   7.984 -0.1174 -0.5294 -0.1210
13314SOL    HW140755   7.295   2.526   8.058 -1.1323 -0.5788  0.6716
13314SOL    HW240756   7.223   2.457   7.944  0.1076 -0.5631 -0.1275
13315SOL     OW40757   7.933   6.701   6.738 -0.0096 -0.1533  0.1750
13315SOL    HW140758   8.003   6.767   6.737 -0.6589  0.5553  0.8345
13315SOL    HW240759   7.860   6.743   6.692 -0.6939 -0.1134  1.2946
13316SOL     OW40760   5.357   1.242   0.691  0.2000  0.4590 -0.6070
13316SOL    HW140761   5.444   1.220   0.656  0.0538  1.1226 -1.4152
13316SOL    HW240762   5.349   1.336   0.676 -0.6160  0.4146 -0.4325
13317SOL     OW40763   1.203   6.176   1.789  0.2740 -0.2826  1.1333
13317SOL    HW140764   1.298   6.187   1.780  0.2705  0.4673  2.0357
13317SOL    HW240765   1.185   6.093   1.745  1.5607 -1.1730  2.2414
13318SOL     OW40766   6.245   3.986   6.979  0.4772  0.1850 -0.6591
13318SOL    HW140767   6.282   4.044   6.912 -1.7191 -0.6964 -2.7280
13318SOL    HW240768   6.291   3.903   6.968  1.0286  0.4169 -0.1654
13319SOL     OW40769   5.786   7.955   2.893 -0.2272 -0.1024 -0.2504
13319SOL    HW140770   5.731   7.979   2.967  1.6239  1.3921  0.7032
13319SOL    HW240771   5.790   8.034   2.839  1.3057 -0.0280 -0.0658
13320SOL     OW40772   3.922   5.120   2.441  0.5197 -0.5715  0.2215
13320SOL    HW140773   3.997   5.079   2.397 -0.3696 -1.7978 -0.1649
13320SOL    HW240774   3.897   5.058   2.509 -2.0064 -1.5725 -1.5593
13321SOL     OW40775   1.753   6.747   0.966  0.0034 -0.1720  0.3798
13321SOL    HW140776   1.717   6.692   1.036 -1.1246 -1.0882 -0.9060
13321SOL    HW240777   1.716   6.834   0.982 -0.7179 -0.5141  0.5815
13322SOL     OW40778   3.750   3.981   1.448  0.3696  0.1281  0.5117
13322SOL    HW140779   3.749   3.933   1.531  0.3302  1.6432  1.4148
13322SOL    HW240780   3.802   4.060   1.467  0.7360  0.2806 -1.0285
13323SOL     OW40781   5.821   6.805   0.214 -0.2254  0.2879 -0.2593
13323SOL    HW140782   5.826   6.892   0.174 -0.6170 -0.4704 -2.0183
13323SOL    HW240783   5.748   6.810   0.276 -1.6263  0.6234 -1.8967
13324SOL     OW40784   5.546   6.912   7.091 -0.0079  0.9074  0.0739
13324SOL    HW140785   5.554   6.817   7.090 -1.5425  0.6864  3.5109
13324SOL    HW240786   5.632   6.944   7.063  0.6271 -1.4451 -0.7579
13325SOL     OW40787   1.242   5.964   1.619 -0.7693  0.1878  0.0617
13325SOL    HW140788   1.185   5.954   1.542 -0.8217  0.0663  0.1157
13325SOL    HW240789   1.234   5.881   1.666 -1.2038  0.4783  0.5110
13326SOL     OW40790   1.853   6.073   1.206 -0.2047 -0.7000  0.7546
13326SOL    HW140791   1.888   6.031   1.127 -0.8978 -1.0933  0.6508
13326SOL    HW240792   1.924   6.068   1.269  1.2629  1.8457 -0.6100
13327SOL     OW40793   1.662   2.955   7.303 -0.0196 -0.6677  0.2000
13327SOL    HW140794   1.589   3.004   7.264  0.2209 -0.8970 -0.5266
13327SOL    HW240795   1.675   2.998   7.388 -0.8532 -0.4808  0.2468
13328SOL     OW40796   4.154   2.044   6.868  0.1883  0.2370  0.0773
13328SOL    HW140797   4.108   1.977   6.918  2.1668  0.0549  1.7129
13328SOL    HW240798   4.114   2.127   6.895 -1.0351 -0.1202 -0.6071
13329SOL     OW40799   6.285   6.661   3.857  0.4824 -0.7556 -0.3730
13329SOL    HW140800   6.197   6.638   3.888 -0.2371  1.3491 -0.8256
13329SOL    HW240801   6.280   6.652   3.762  0.6111 -0.1324 -0.4373
13330SOL     OW40802   5.931   6.845   5.053  0.3565 -1.0737  0.2886
13330SOL    HW140803   5.914   6.897   5.131 -0.2083  0.3869 -0.7863
13330SOL    HW240804   5.864   6.776   5.054 -0.6978 -0.0563  0.1999
13331SOL     OW40805   0.124   2.489   3.248  0.2542  0.6777 -0.1692
13331SOL    HW140806   0.089   2.445   3.325  1.6700  1.3265  0.8477
13331SOL    HW240807   0.078   2.448   3.174  0.3462 -1.3239  0.8774
13332SOL     OW40808   6.395   3.724   2.326 -0.2961  0.0856 -0.0088
13332SOL    HW140809   6.324   3.659   2.328 -1.4505  1.3532  0.4700
13332SOL    HW240810   6.368   3.786   2.258 -0.1884  1.1679  0.9234
13333SOL     OW40811   0.842   7.789   7.830 -0.8243 -0.0396  0.1570
13333SOL    HW140812   0.805   7.788   7.918  1.1880  0.2384  1.0478
13333SOL    HW240813   0.804   7.866   7.788 -0.9883  0.4156  1.1420
13334SOL     OW40814   6.613   7.194   5.807 -0.2591  0.5174 -0.0888
13334SOL    HW140815   6.619   7.255   5.880  1.7964  0.7995 -0.4387
13334SOL    HW240816   6.538   7.224   5.756 -1.1496  0.8703  1.3960
13335SOL     OW40817   4.650   2.170   3.993  0.2610  0.3170  0.0714
13335SOL    HW140818   4.587   2.098   3.983  1.2028 -0.9218  2.6030
13335SOL    HW240819   4.597   2.249   3.982 -1.2741 -0.7306 -0.3501
13336SOL     OW40820   3.902   5.953   3.580  0.2727 -0.0706  0.4719
13336SOL    HW140821   3.813   5.928   3.553 -0.3753  2.3412  0.2017
13336SOL    HW240822   3.952   5.956   3.499 -0.0314  0.9107  0.3122
13337SOL     OW40823   0.904   0.954   0.325  0.2883 -0.5041  0.5636
13337SOL    HW140824   0.967   0.900   0.277 -0.7244 -1.2134  0.0033
13337SOL    HW240825   0.944   0.969   0.410  1.1659 -1.0422  0.2462
13338SOL     OW40826   4.739   6.150   1.736 -0.2741 -0.1094 -0.3680
13338SOL    HW140827   4.779   6.139   1.822 -0.4298 -0.2342 -0.3113
13338SOL    HW240828   4.734   6.061   1.701 -2.8930 -0.4214  0.6860
13339SOL     OW40829   2.857   7.934   0.141 -0.1044 -0.1203  0.5270
13339SOL    HW140830   2.846   8.021   0.103  2.4896 -0.2295 -0.5213
13339SOL    HW240831   2.898   7.950   0.226  1.5455 -0.3545 -0.1988
13340SOL     OW40832   0.822   3.996   4.700 -0.5013 -0.5166  0.4566
13340SOL    HW140833   0.734   3.958   4.697 -0.1594 -1.3179  0.6868
13340SOL    HW240834   0.868   3.956   4.627 -0.9079  1.3547 -0.8529
13341SOL     OW40835   1.126   0.013   1.273  0.5932  0.1260  0.8309
13341SOL    HW140836   1.062   0.014   1.344  1.1491  0.8196  1.3299
13341SOL    HW240837   1.146  -0.080   1.261 -0.6861 -0.1187  0.4933
13342SOL     OW40838   2.108   6.071   2.684 -0.5010 -0.2027  0.2405
13342SOL    HW140839   2.156   6.088   2.765  0.8554 -0.3214 -0.5135
13342SOL    HW240840   2.109   6.154   2.638 -1.2298 -0.1483  0.3214
13343SOL     OW40841   2.530   1.929   5.141  0.4983 -0.5258 -0.2053
13343SOL    HW140842   2.525   2.015   5.183 -0.2349 -1.3991  1.5750
13343SOL    HW240843   2.607   1.933   5.085  2.5032  0.1854  2.4731
13344SOL     OW40844   6.634   4.380   1.051  0.1520  0.2871  0.1393
13344SOL    HW140845   6.703   4.384   1.117 -0.4943 -1.0347  0.9166
13344SOL    HW240846   6.600   4.469   1.046 -1.3584 -0.0727  3.2813
13345SOL     OW40847   2.372   0.055   0.197  0.1227 -0.1498  0.5825
13345SOL    HW140848   2.439   0.023   0.137 -0.2145 -0.7983  0.5520
13345SOL    HW240849   2.421   0.097   0.268  0.5056  1.4825 -0.6252
13346SOL     OW40850   0.863   7.090   5.040  0.1196 -0.0005  0.4882
13346SOL    HW140851   0.874   6.995   5.033 -1.8612 -0.1536 -1.1250
13346SOL    HW240852   0.899   7.124   4.957  0.8675  0.6751  1.0802
13347SOL     OW40853   0.100   7.394   4.286 -0.2560  0.2013 -0.0567
13347SOL    HW140854   0.038   7.464   4.266  1.3143  1.0758 -1.9903
13347SOL    HW240855   0.048   7.314   4.283 -1.8846  1.1845  1.2909
13348SOL     OW40856   3.370   3.750   2.276  0.3314 -0.1233  0.7123
13348SOL    HW140857   3.306   3.719   2.211  2.8427 -1.5815 -1.1637
13348SOL    HW240858   3.319   3.761   2.356 -2.5304  0.0359 -1.0369
13349SOL     OW40859   2.014   0.564   5.145  0.2800  0.3753 -0.6951
13349SOL    HW140860   1.947   0.621   5.183 -0.6060 -0.0591 -1.5764
13349SOL    HW240861   2.053   0.520   5.220 -1.2389 -0.2392 -0.2360
13350SOL     OW40862   0.128   5.619   1.486 -0.0635  0.0733 -0.0974
13350SOL    HW140863   0.220   5.633   1.506 -0.1531 -0.2733  0.5543
13350SOL    HW240864   0.106   5.536   1.527 -1.2134  1.1734  1.6040
13351SOL     OW40865   1.542   6.066   6.894  0.6371  0.1879  0.3185
13351SOL    HW140866   1.631   6.032   6.889 -0.2689 -2.3228  0.4600
13351SOL    HW240867   1.514   6.048   6.984 -0.4118 -0.1985 -0.0648
13352SOL     OW40868   7.332   4.600   5.652 -0.3554  0.2244 -0.0625
13352SOL    HW140869   7.426   4.618   5.644  0.0544 -0.9021  1.9153
13352SOL    HW240870   7.324   4.507   5.630 -0.7889 -0.0531  1.2438
13353SOL     OW40871   2.642   0.580   5.330  0.2163  0.2030 -0.0990
13353SOL    HW140872   2.676   0.491   5.322 -0.5231 -0.2266  1.2344
13353SOL    HW240873   2.719   0.633   5.351  1.0431  0.2909 -3.1951
13354SOL     OW40874   0.509   7.709   7.122 -0.1471  0.4180 -0.2071
13354SOL    HW140875   0.430   7.749   7.157 -0.5177 -1.7910  1.5939
13354SOL    HW240876   0.576   7.727   7.187  0.6521  1.5506 -1.3207
13355SOL     OW40877   2.106   3.497   6.123  0.1869  0.2516 -0.4707
13355SOL    HW140878   2.070   3.564   6.065 -0.4248 -1.0626 -1.6220
13355SOL    HW240879   2.053   3.502   6.202  0.0675  1.0362 -0.5984
13356SOL     OW40880   5.129   4.388   4.577  0.4490  0.8868  0.0755
13356SOL    HW140881   5.069   4.421   4.510  0.2478 -0.3069 -0.3497
13356SOL    HW240882   5.178   4.319   4.533  1.6504  1.3802  0.6271
13357SOL     OW40883   7.373   7.091   7.458  0.1590  0.1028 -0.4310
13357SOL    HW140884   7.468   7.082   7.452  0.3128  0.7213  0.7998
13357SOL    HW240885   7.349   7.044   7.538 -0.7264 -1.0444 -1.3593
13358SOL     OW40886   6.886   4.117   7.511 -0.1945  0.1156  0.0458
13358SOL    HW140887   6.934   4.037   7.534  0.4232  0.3096 -0.5571
13358SOL    HW240888   6.828   4.132   7.586 -0.2684 -0.8631  0.1907
13359SOL     OW40889   0.385   6.194   5.113 -0.5323  0.1532  0.2786
13359SOL    HW140890   0.426   6.111   5.089  1.8245  1.4371 -0.2412
13359SOL    HW240891   0.339   6.175   5.195  0.1975 -1.6017  0.2955
13360SOL     OW40892   2.999   0.797   2.459 -0.0925  0.3073  0.3008
13360SOL    HW140893   3.027   0.753   2.378 -2.5123 -1.5460  0.4130
13360SOL    HW240894   2.909   0.767   2.472 -0.6194  2.6387  2.2932
13361SOL     OW40895   6.797   4.793   3.641  0.2748  0.0601 -0.0966
13361SOL    HW140896   6.872   4.793   3.700  1.8724 -1.3495 -2.0441
13361SOL    HW240897   6.759   4.881   3.650  2.6428  1.0670  0.3349
13362SOL     OW40898   6.704   6.294   1.669 -0.1828  0.5966  0.0228
13362SOL    HW140899   6.665   6.214   1.704  0.5163 -0.0751 -0.7015
13362SOL    HW240900   6.669   6.300   1.580 -0.3414  1.1692  0.1229
13363SOL     OW40901   2.138   1.020   2.753 -0.5102  0.0936 -0.1210
13363SOL    HW140902   2.063   0.989   2.804 -1.7929  1.8480 -0.9172
13363SOL    HW240903   2.117   1.111   2.730  0.9214 -0.0269 -2.0989
13364SOL     OW40904   3.450   2.644   3.724 -0.3369 -0.5422  0.2766
13364SOL    HW140905   3.473   2.684   3.640  0.0080  2.0182  1.5563
13364SOL    HW240906   3.511   2.571   3.733  0.5679  0.0222 -1.0428
13365SOL     OW40907   1.670   6.450   3.317  0.5177 -0.0546  0.1584
13365SOL    HW140908   1.598   6.467   3.378  1.0242 -0.5502  0.8959
13365SOL    HW240909   1.729   6.523   3.328  1.6147 -1.1538  1.7483
13366SOL     OW40910   7.186   1.151   5.975 -0.2096  0.1105 -0.0847
13366SOL    HW140911   7.113   1.091   5.959 -0.8255  1.0507 -0.8395
13366SOL    HW240912   7.150   1.217   6.034  0.6091 -0.5136  1.1513
13367SOL     OW40913   3.597   1.529   5.038  0.2744 -0.0540 -0.3402
13367SOL    HW140914   3.660   1.473   5.081  0.1723 -0.2521 -0.4486
13367SOL    HW240915   3.517   1.520   5.090  0.8694  1.6658  0.9246
13368SOL     OW40916   4.354   0.721   3.027 -0.3351  0.4000 -0.2031
13368SOL    HW140917   4.316   0.686   3.107  0.8796 -0.9983 -0.2109
13368SOL    HW240918   4.282   0.720   2.964 -0.9465  0.2299  0.4957
13369SOL     OW40919   3.456   0.100   6.278 -0.3362 -0.5055 -0.0500
13369SOL    HW140920   3.389   0.035   6.300  0.1459 -0.8830  0.2900
13369SOL    HW240921   3.498   0.066   6.199 -1.1640  0.1920 -0.8131
13370SOL     OW40922   6.415   1.638   5.921  0.0558  0.1790  0.0074
13370SOL    HW140923   6.338   1.587   5.898 -1.8341  2.3179  1.3175
13370SOL    HW240924   6.413   1.713   5.862  1.2841  0.1323 -0.1103
13371SOL     OW40925   0.853   0.589   0.433  0.1778 -0.0611 -0.3832
13371SOL    HW140926   0.914   0.642   0.485  0.7525 -0.9640 -0.1329
13371SOL    HW240927   0.767   0.608   0.470  0.6904 -1.5132  1.6270
13372SOL     OW40928   6.140   0.896   1.994 -0.3109 -0.1488 -0.2246
13372SOL    HW140929   6.120   0.976   2.043  0.2635  0.0206 -0.2632
13372SOL    HW240930   6.058   0.874   1.949 -0.1527  1.0692 -1.1310
13373SOL     OW40931   7.312   7.222   4.623 -0.0682  0.3112 -0.4382
13373SOL    HW140932   7.372   7.196   4.552  0.4579  0.3202 -0.0029
13373SOL    HW240933   7.332   7.162   4.694 -1.9664 -0.9517 -0.9587
13374SOL     OW40934   5.033   4.412   7.166 -0.3661  0.6052 -0.0017
13374SOL    HW140935   4.965   4.352   7.135  0.8835 -1.1679  0.6279
13374SOL    HW240936   5.114   4.377   7.129  0.5978  0.9226  1.7647
13375SOL     OW40937   5.794   6.166   0.563  0.0257 -0.2652  0.0413
13375SOL    HW140938   5.814   6.082   0.522  3.7679  0.0960  0.9708
13375SOL    HW240939   5.745   6.143   0.642  0.8229 -1.5425  0.1726
13376SOL     OW40940   5.218   0.680   2.832 -0.4047 -0.3396 -0.0685
13376SOL    HW140941   5.175   0.602   2.797 -0.5429  0.1336 -0.9518
13376SOL    HW240942   5.225   0.739   2.757 -3.0278  1.7278  1.2371
13377SOL     OW40943   3.094   3.312   1.143  0.0502 -0.2222  0.9540
13377SOL    HW140944   3.168   3.304   1.203  0.8454 -2.1948 -0.2461
13377SOL    HW240945   3.047   3.229   1.151 -1.3366  0.5244  0.7705
13378SOL     OW40946   5.814   4.126   4.655  0.8976 -0.2125  0.3422
13378SOL    HW140947   5.854   4.050   4.697 -0.6167 -1.2441 -0.0232
13378SOL    HW240948   5.726   4.097   4.631  0.3487  1.6071  0.0319
13379SOL     OW40949   4.095   3.250   0.031 -0.3067 -0.6911  0.0550
13379SOL    HW140950   4.114   3.217  -0.056 -2.0259 -1.8461  0.0799
13379SOL    HW240951   4.003   3.278   0.027 -0.2388 -0.2183  1.3222
13380SOL     OW40952   1.183   0.197   0.551 -0.1463 -0.2744 -0.1743
13380SOL    HW140953   1.241   0.250   0.498 -1.3870  2.1805  0.8303
13380SOL    HW240954   1.235   0.175   0.629  0.2376 -0.1444 -0.3935
13381SOL     OW40955   0.266   4.270   2.289  0.2604 -0.2883  0.0203
13381SOL    HW140956   0.305   4.203   2.344  0.4198 -0.0312  0.2211
13381SOL    HW240957   0.173   4.269   2.312  0.0902 -1.0891 -0.6544
13382SOL     OW40958   4.200   6.941   1.307  0.1967  0.4861  0.1209
13382SOL    HW140959   4.234   7.030   1.298 -0.3976  0.6649 -0.3753
13382SOL    HW240960   4.119   6.941   1.256 -0.2537 -0.0998  0.8344
13383SOL     OW40961   1.504   6.160   0.229  0.2377  0.6361  0.0205
13383SOL    HW140962   1.531   6.166   0.137  0.7910  2.1066  0.2638
13383SOL    HW240963   1.539   6.240   0.270  1.7882 -1.0057  1.9825
13384SOL     OW40964   7.428   0.911   2.974  0.5180  0.2520  0.1253
13384SOL    HW140965   7.385   0.851   2.912 -0.5205  2.4823 -1.3845
13384SOL    HW240966   7.517   0.921   2.940 -0.4665  2.5845 -1.8948
13385SOL     OW40967   3.903   5.500   4.704  0.5547 -0.0958 -0.1615
13385SOL    HW140968   3.864   5.428   4.755  0.0526  0.2029 -0.1233
13385SOL    HW240969   3.959   5.456   4.641  0.0111 -0.5416 -0.3415
13386SOL     OW40970   3.994   3.369   3.907 -0.4023  0.2186  0.2863
13386SOL    HW140971   3.962   3.455   3.935 -0.9920 -0.5481  1.9593
13386SOL    HW240972   4.066   3.349   3.967 -0.2824 -0.4921 -0.0854
13387SOL     OW40973   0.931   0.284   1.174  0.3550  0.2897 -0.0480
13387SOL    HW140974   0.919   0.196   1.140  1.4686 -0.0289  0.3616
13387SOL    HW240975   0.849   0.304   1.220 -0.1362 -0.2832 -0.6608
13388SOL     OW40976   5.805   7.481   0.243  0.0820  0.0999 -0.2257
13388SOL    HW140977   5.888   7.468   0.197 -0.2065  0.6641 -0.9178
13388SOL    HW240978   5.784   7.395   0.279  1.3149  0.1060  0.5461
13389SOL     OW40979   7.826   2.952   6.683 -0.7400 -0.2092 -0.3312
13389SOL    HW140980   7.873   2.915   6.608  0.9009 -0.1222  0.6198
13389SOL    HW240981   7.812   2.878   6.742 -0.4982  0.0360  0.0385
13390SOL     OW40982   5.284   2.670   2.600  0.5645 -0.1078  0.1307
13390SOL    HW140983   5.238   2.616   2.535  1.2450 -1.1575  0.5085
13390SOL    HW240984   5.364   2.698   2.556  2.0274 -2.5055  1.1547
13391SOL     OW40985   4.945   7.956   7.390 -0.1143 -0.1536 -0.2296
13391SOL    HW140986   4.979   8.037   7.427 -0.0414 -0.8285  1.2369
13391SOL    HW240987   4.883   7.984   7.323 -0.8332  1.1383  0.9490
13392SOL     OW40988   5.101   4.507   1.208 -0.1718  0.1946 -0.1118
13392SOL    HW140989   5.128   4.544   1.124 -0.3226 -3.1617 -1.7131
13392SOL    HW240990   5.182   4.470   1.245 -0.0865  1.7210  1.2841
13393SOL     OW40991   1.080   6.885   1.291 -0.3250  0.3375 -0.1398
13393SOL    HW140992   0.990   6.875   1.261 -0.6024 -0.1592  0.8475
13393SOL    HW240993   1.126   6.924   1.217 -1.3431  0.5502 -0.6594
13394SOL     OW40994   6.227   4.900   7.481  0.7835 -0.1660  0.1338
13394SOL    HW140995   6.177   4.954   7.420 -1.7120 -0.9379  1.3982
13394SOL    HW240996   6.298   4.957   7.511  0.1221  1.2942 -1.0110
13395SOL     OW40997   1.623   7.429   7.188 -0.1161 -0.3778  0.1820
13395SOL    HW140998   1.612   7.355   7.128 -0.0631  0.3454 -0.7323
13395SOL    HW240999   1.718   7.444   7.190 -0.1333 -0.2855  0.3059
13396SOL     OW41000   1.736   1.905   5.408  0.2851 -0.8235 -0.2392
13396SOL    HW141001   1.768   1.975   5.464 -1.9255 -0.1880  0.2420
13396SOL    HW241002   1.765   1.930   5.320 -0.6812  0.8294 -0.1077
13397SOL     OW41003   5.832   2.488   7.961  0.3995  0.0360  0.0110
13397SOL    HW141004   5.862   2.501   7.871 -2.1322 -1.0915 -1.0693
13397SOL    HW241005   5.909   2.457   8.008  1.4766 -0.5472 -2.0686
13398SOL     OW41006   0.725   6.742   3.887 -0.2105 -0.4680  0.7348
13398SOL    HW141007   0.810   6.753   3.845  0.9246 -0.5775  2.9123
13398SOL    HW241008   0.722   6.650   3.912 -1.7706 -0.8987 -0.9563
13399SOL     OW41009   7.133   6.746   0.007  0.3290  0.2550 -0.1759
13399SOL    HW141010   7.176   6.831  -0.006 -2.0065  1.5336  0.2442
13399SOL    HW241011   7.192   6.683  -0.035  1.3313  2.2622 -1.8906
13400SOL     OW41012   2.519   6.659   1.304 -0.4934 -0.2201  0.4284
13400SOL    HW141013   2.568   6.719   1.360  0.4029 -0.4179 -0.1421
13400SOL    HW241014   2.433   6.653   1.345 -0.2938  0.7414  0.9985
13401SOL     OW41015   1.395   7.528   7.734 -0.0335  0.2138 -0.0637
13401SOL    HW141016   1.349   7.464   7.680  0.0382  0.2909 -0.2156
13401SOL    HW241017   1.404   7.486   7.819 -0.7016  0.3360  0.0711
13402SOL     OW41018   6.295   2.595   3.217 -0.3156  0.0746 -0.6052
13402SOL    HW141019   6.387   2.621   3.210 -0.2905 -0.0290 -0.6655
13402SOL    HW241020   6.246   2.668   3.179 -0.3840  1.0913  1.3944
13403SOL     OW41021   7.650   5.026   6.551 -0.0898  0.0129 -0.0531
13403SOL    HW141022   7.745   5.026   6.538 -0.0450  2.3223  0.0745
13403SOL    HW241023   7.623   4.936   6.533  2.1868 -0.7960  0.4109
13404SOL     OW41024   7.451   5.703   1.840 -0.5109 -0.0879  0.0344
13404SOL    HW141025   7.355   5.709   1.840 -0.5621 -0.7834 -0.6297
13404SOL    HW241026   7.480   5.792   1.860 -1.2861  0.4868 -1.2508
13405SOL     OW41027   5.081   1.440   1.483  0.3674  0.3779 -0.0762
13405SOL    HW141028   5.062   1.375   1.415 -0.4608  0.2964  0.2186
13405SOL    HW241029   5.072   1.391   1.566  0.9350  0.5790  0.1017
13406SOL     OW41030   3.724   1.248   3.186 -0.0849 -0.1755  0.1894
13406SOL    HW141031   3.813   1.212   3.186 -0.4528 -1.1340  2.3897
13406SOL    HW241032   3.734   1.333   3.230 -0.1284  0.0618 -0.2593
13407SOL     OW41033   1.586   4.034   0.212  0.1436  0.1549  0.6715
13407SOL    HW141034   1.630   3.970   0.156 -0.6492 -0.2920  0.5511
13407SOL    HW241035   1.521   3.982   0.260 -1.3051  1.0715 -0.2875
13408SOL     OW41036   7.398   2.744   2.869 -0.9756  0.4000 -0.0336
13408SOL    HW141037   7.382   2.756   2.776 -0.6504  0.0459 -0.1388
13408SOL    HW241038   7.493   2.735   2.876 -0.8684  1.8888  0.5014
13409SOL     OW41039   5.441   3.686   0.372 -0.0628 -0.7890 -0.2729
13409SOL    HW141040   5.525   3.659   0.410 -0.1941  0.1011  0.6703
13409SOL    HW241041   5.423   3.771   0.412 -2.1890 -1.6888  0.7345
13410SOL     OW41042   4.027   4.343   4.695 -0.2371  0.1507  0.7109
13410SOL    HW141043   4.008   4.437   4.690 -1.2626 -0.0372  0.9848
13410SOL    HW241044   3.942   4.302   4.714 -0.0624 -0.9707 -0.8452
13411SOL     OW41045   7.023   4.966   3.562  0.0367 -0.1121 -0.4912
13411SOL    HW141046   6.932   4.938   3.569  0.2827 -0.5555  1.3596
13411SOL    HW241047   7.074   4.885   3.568  0.6138  0.3126  0.5387
13412SOL     OW41048   5.167   2.610   6.167 -0.9077  0.0793 -0.2139
13412SOL    HW141049   5.215   2.660   6.101 -0.0338  0.7180  0.9103
13412SOL    HW241050   5.197   2.520   6.154 -1.5773  0.0021 -1.4163
13413SOL     OW41051   5.086   3.546   7.907 -0.3152  0.0061 -0.7949
13413SOL    HW141052   5.051   3.594   7.831  0.3036 -0.3204 -1.2843
13413SOL    HW241053   5.058   3.456   7.893 -1.2927  0.1746  0.0183
13414SOL     OW41054   3.232   4.066   3.284 -0.0041 -0.2101 -0.6927
13414SOL    HW141055   3.294   4.018   3.229 -0.7318  0.3070 -1.9636
13414SOL    HW241056   3.174   3.999   3.320 -1.2721 -0.2772 -2.7828
13415SOL     OW41057   1.353   0.093   3.098  0.1692 -0.1448 -0.4527
13415SOL    HW141058   1.319   0.004   3.108  0.3895 -0.3201 -1.2366
13415SOL    HW241059   1.280   0.142   3.059 -0.1530  0.1647  0.5169
13416SOL     OW41060   6.428   3.512   1.141  0.1348 -0.0044 -0.5924
13416SOL    HW141061   6.452   3.549   1.056  2.9384  0.1717  0.2209
13416SOL    HW241062   6.448   3.582   1.203  0.7968 -1.1334  0.4822
13417SOL     OW41063   5.278   1.463   7.378 -0.3514 -0.0804 -0.2931
13417SOL    HW141064   5.319   1.384   7.342 -1.2856 -0.9531  0.5171
13417SOL    HW241065   5.281   1.527   7.307  0.3649 -0.8640 -0.9769
13418SOL     OW41066   3.435   1.192   6.215 -0.2291 -0.3524 -0.2615
13418SOL    HW141067   3.512   1.146   6.247 -0.0815 -0.5299 -0.8511
13418SOL    HW241068   3.366   1.125   6.212 -0.6730  0.0367  1.2063
13419SOL     OW41069   7.054   2.752   2.719 -0.1690  0.4252  0.2447
13419SOL    HW141070   6.962   2.759   2.692 -0.2272 -0.9643  0.0061
13419SOL    HW241071   7.103   2.751   2.637 -0.0012  0.4680  0.3453
13420SOL     OW41072   5.749   5.370   3.806 -0.3806  0.0966 -0.1333
13420SOL    HW141073   5.797   5.290   3.784 -1.6372 -0.4937 -0.7559
13420SOL    HW241074   5.793   5.404   3.884  0.7217 -0.7142 -0.3962
13421SOL     OW41075   0.873   5.156   6.137 -0.3739 -0.2137 -1.1184
13421SOL    HW141076   0.947   5.179   6.192 -2.0325 -1.5034  1.7542
13421SOL    HW241077   0.906   5.088   6.079  0.6678 -0.9328  0.2933
13422SOL     OW41078   1.195   1.422   5.945 -0.1028 -0.3578  0.0007
13422SOL    HW141079   1.249   1.343   5.940  0.9129  0.2942  0.3565
13422SOL    HW241080   1.237   1.483   5.884 -0.1831  0.2978  0.5873
13423SOL     OW41081   4.770   5.819   4.989  0.3911 -0.6317 -0.1220
13423SOL    HW141082   4.788   5.913   4.982 -0.2239 -0.3260  2.1991
13423SOL    HW241083   4.847   5.782   5.031  0.3849 -1.0803 -0.5012
13424SOL     OW41084   4.281   3.240   5.742  0.2745  0.2260 -0.5615
13424SOL    HW141085   4.205   3.289   5.712 -0.2563 -0.0375  0.3183
13424SOL    HW241086   4.352   3.267   5.684 -0.3081  1.0694 -0.8892
13425SOL     OW41087   0.379   5.383   2.598  0.2311 -0.2486 -0.4965
13425SOL    HW141088   0.473   5.379   2.618  0.2439 -1.5802 -0.7619
13425SOL    HW241089   0.350   5.292   2.605 -1.2496  0.2834  0.5583
13426SOL     OW41090   1.650   7.707   2.050  0.7555  0.1380  0.1036
13426SOL    HW141091   1.744   7.707   2.031  0.7405  0.8851 -0.0081
13426SOL    HW241092   1.620   7.793   2.020 -0.0380 -0.2447 -0.2065
13427SOL     OW41093   2.566   1.776   5.364 -0.2085 -0.1835 -0.2565
13427SOL    HW141094   2.496   1.779   5.429  1.2943  1.1169  1.3317
13427SOL    HW241095   2.533   1.826   5.290 -0.5832  1.3101  0.8961
13428SOL     OW41096   3.613   7.664   1.331  0.0342 -0.0861 -0.4382
13428SOL    HW141097   3.679   7.598   1.310  1.5696  1.3455 -0.1640
13428SOL    HW241098   3.579   7.637   1.416 -0.1256 -1.1102 -0.8080
13429SOL     OW41099   6.012   6.103   0.285  0.3512 -0.1036  0.0367
13429SOL    HW141100   6.050   6.179   0.329 -0.1011  0.1247  0.0421
13429SOL    HW241101   6.029   6.118   0.192  1.3993 -0.6381  0.1404
13430SOL     OW41102   6.129   4.279   1.437 -0.0341  0.9623  0.3965
13430SOL    HW141103   6.096   4.221   1.367 -0.0581  0.8888  0.4691
13430SOL    HW241104   6.069   4.265   1.510  0.3361  0.5992  0.6327
13431SOL     OW41105   6.550   4.778   3.942  0.1088 -0.2932 -0.5697
13431SOL    HW141106   6.474   4.722   3.961 -0.3447  0.7303  0.7920
13431SOL    HW241107   6.600   4.730   3.877 -2.1141 -0.6573 -2.0909
13432SOL     OW41108   0.512   4.377   4.783 -0.0343 -0.1938  0.2204
13432SOL    HW141109   0.468   4.402   4.864 -0.2899  2.1878 -0.6155
13432SOL    HW241110   0.588   4.326   4.812 -0.4686  0.0790  1.9200
13433SOL     OW41111   7.669   4.156   5.986 -0.4732 -0.5146  0.0588
13433SOL    HW141112   7.708   4.158   6.073 -1.7696  1.2544  0.6443
13433SOL    HW241113   7.738   4.188   5.928 -0.1370 -0.0966  0.6809
13434SOL     OW41114   4.171   0.674   4.836 -0.1917  0.2273  0.2785
13434SOL    HW141115   4.184   0.687   4.742 -0.2663 -1.0521  0.0776
13434SOL    HW241116   4.198   0.757   4.876 -1.4927  1.2682 -0.9764
13435SOL     OW41117   5.616   3.949   2.302 -0.0417  0.2813 -0.3579
13435SOL    HW141118   5.605   4.003   2.381 -2.1544 -1.4476  0.5582
13435SOL    HW241119   5.545   3.977   2.244 -0.4453 -0.7184 -0.3424
13436SOL     OW41120   6.219   5.379   2.075 -0.5709 -0.1685  0.6787
13436SOL    HW141121   6.231   5.288   2.099 -0.2916 -0.1213  0.7137
13436SOL    HW241122   6.136   5.404   2.116 -1.7116 -0.9909 -1.0322
13437SOL     OW41123   2.594   6.332   6.237 -0.3004 -0.2397 -0.1178
13437SOL    HW141124   2.645   6.379   6.303 -0.8554 -1.0158  0.8899
13437SOL    HW241125   2.534   6.278   6.288  0.6693 -2.4316 -1.2378
13438SOL     OW41126   7.651   7.682   6.799  0.6744 -0.7523 -0.0952
13438SOL    HW141127   7.650   7.704   6.892 -2.0921  0.2921 -0.3493
13438SOL    HW241128   7.701   7.753   6.758  0.1027 -0.0972  0.3311
13439SOL     OW41129   4.070   2.604   0.731  0.6615 -0.4769  0.1929
13439SOL    HW141130   4.158   2.583   0.762  0.2525  0.8024  2.3086
13439SOL    HW241131   4.019   2.615   0.811 -0.9539  0.7243 -0.9865
13440SOL     OW41132   1.806   4.097   6.030 -0.4133 -0.5128  0.0897
13440SOL    HW141133   1.868   4.025   6.026 -1.1415 -1.0988 -0.9569
13440SOL    HW241134   1.730   4.066   5.980 -0.6288  1.0827 -0.6003
13441SOL     OW41135   7.930   6.197   7.737 -0.0756 -0.7383 -0.0706
13441SOL    HW141136   7.993   6.126   7.720  1.0684 -0.1152  1.4807
13441SOL    HW241137   7.855   6.176   7.681  0.7891 -2.4571 -0.6251
13442SOL     OW41138   4.711   3.968   2.089 -0.1513 -0.1639  0.4229
13442SOL    HW141139   4.637   3.927   2.042  0.9114 -0.8778 -0.6629
13442SOL    HW241140   4.671   4.005   2.168 -2.0291  1.2330 -1.1126
13443SOL     OW41141   3.285   1.290   4.642 -0.1624  0.4677 -0.1733
13443SOL    HW141142   3.285   1.198   4.616 -0.8877  0.6116 -0.6717
13443SOL    HW241143   3.371   1.303   4.684 -1.0091 -1.0465  2.0880
13444SOL     OW41144   1.575   3.974   5.916 -0.0525 -0.0002  0.0281
13444SOL    HW141145   1.492   3.949   5.956  0.7113 -1.0972  0.9785
13444SOL    HW241146   1.556   3.984   5.823 -1.5001  0.9565  0.4193
13445SOL     OW41147   5.557   1.680   5.203  0.1486  0.6294  0.3110
13445SOL    HW141148   5.601   1.746   5.257 -0.6615  3.3181 -2.1928
13445SOL    HW241149   5.466   1.707   5.202 -0.0515 -0.0400 -1.4352
13446SOL     OW41150   3.599   0.995   7.937  0.0341 -0.0741  0.3051
13446SOL    HW141151   3.673   0.947   7.974 -0.3805 -0.0939  1.1227
13446SOL    HW241152   3.631   1.030   7.854  0.4931 -1.3684 -0.0726
13447SOL     OW41153   2.360   0.556   1.975  0.2362  0.3639 -0.6363
13447SOL    HW141154   2.394   0.470   2.002  0.4327  0.6618  0.0780
13447SOL    HW241155   2.436   0.601   1.939  0.3364  0.5746 -0.1678
13448SOL     OW41156   3.815   3.953   7.031  0.1868 -0.3776 -0.3476
13448SOL    HW141157   3.776   4.029   7.073 -0.4637 -0.7585 -0.2559
13448SOL    HW241158   3.805   3.969   6.937  0.2206 -0.2636 -0.3317
13449SOL     OW41159   5.152   2.980   7.572 -0.4171  0.0513  0.6433
13449SOL    HW141160   5.154   3.075   7.559  0.5099  0.0779  0.9837
13449SOL    HW241161   5.237   2.949   7.540 -0.7366 -0.6722  0.4836
13450SOL     OW41162   0.395   6.998   0.134  0.3279 -0.5206 -0.4476
13450SOL    HW141163   0.375   7.028   0.045  1.0929  0.9232 -0.1527
13450SOL    HW241164   0.317   7.020   0.184  0.5168  0.1511 -0.4364
13451SOL     OW41165   2.742   0.740   4.823 -0.2720  0.6813 -0.3913
13451SOL    HW141166   2.730   0.667   4.762 -0.2865  1.3356 -1.1791
13451SOL    HW241167   2.817   0.788   4.789  1.8353 -0.7943  1.9531
13452SOL     OW41168   1.303   0.548   4.544 -0.2513  0.1638 -0.5391
13452SOL    HW141169   1.257   0.629   4.566  0.1268  0.1991  0.1538
13452SOL    HW241170   1.258   0.481   4.594  1.2925  0.4100  1.2196
13453SOL     OW41171   3.096   4.461   2.778  0.2004  0.3231 -0.6309
13453SOL    HW141172   3.100   4.381   2.831  1.5335  0.6878 -0.1432
13453SOL    HW241173   3.103   4.431   2.688  3.0255 -0.0075 -0.3658
13454SOL     OW41174   4.821   4.511   6.699 -1.2259  0.0273  0.3996
13454SOL    HW141175   4.773   4.488   6.778 -3.3086 -0.8510 -1.0631
13454SOL    HW241176   4.850   4.427   6.664  0.0077  0.4374  0.4035
13455SOL     OW41177   4.041   2.024   5.994 -0.4230 -0.1518 -0.4825
13455SOL    HW141178   4.109   2.050   6.056 -1.2666  0.5506  0.1811
13455SOL    HW241179   4.075   1.945   5.952 -0.6152 -1.7866  2.2768
13456SOL     OW41180   2.555   7.421   1.519  0.6408 -0.0117  0.4891
13456SOL    HW141181   2.498   7.379   1.455  1.8620 -0.4174 -0.3558
13456SOL    HW241182   2.598   7.491   1.470  0.0241  1.0353  1.4144
13457SOL     OW41183   2.758   6.025   1.933  0.5127 -0.5205 -0.6344
13457SOL    HW141184   2.792   6.089   1.869 -0.0625 -1.3442 -1.7774
13457SOL    HW241185   2.685   5.983   1.888  1.1683 -2.3019 -0.0414
13458SOL     OW41186   6.497   1.771   3.380 -0.5755  0.3443  0.0058
13458SOL    HW141187   6.443   1.841   3.343 -1.7223 -1.3405 -1.6014
13458SOL    HW241188   6.582   1.780   3.337 -0.4239  1.3307  0.5114
13459SOL     OW41189   7.079   5.704   2.667  0.5655 -0.0510 -1.1020
13459SOL    HW141190   7.133   5.776   2.699 -0.9294  0.2566  0.8501
13459SOL    HW241191   7.087   5.637   2.735 -2.2997  0.4115 -0.2423
13460SOL     OW41192   0.894   2.836   4.101  0.3657 -0.5729  0.8348
13460SOL    HW141193   0.988   2.856   4.104  0.1155  1.1244 -1.1910
13460SOL    HW241194   0.852   2.921   4.090 -1.3935 -1.3616  1.3886
13461SOL     OW41195   0.849   6.382   6.274  0.0208  0.3205 -0.7155
13461SOL    HW141196   0.861   6.452   6.338 -2.3821 -0.6507  0.8701
13461SOL    HW241197   0.755   6.378   6.259  0.0939 -2.5268 -0.8142
13462SOL     OW41198   6.578   6.888   5.714 -0.4937 -0.3192  0.7225
13462SOL    HW141199   6.564   6.798   5.745 -0.3965 -0.4586  0.3596
13462SOL    HW241200   6.639   6.925   5.777 -0.3046 -0.6006  0.7049
13463SOL     OW41201   1.279   5.915   1.940 -0.5657  0.5186  0.6498
13463SOL    HW141202   1.225   5.926   2.018  0.8522  1.1112  1.5757
13463SOL    HW241203   1.353   5.975   1.953 -0.1489  0.4076 -1.0095
13464SOL     OW41204   3.006   3.783   7.189  0.5729 -0.0593  0.0829
13464SOL    HW141205   2.917   3.801   7.219  0.4486  2.3093 -1.5162
13464SOL    HW241206   3.062   3.821   7.256  0.3224  1.6137 -0.6182
13465SOL     OW41207   1.320   5.164   1.103  0.2315 -0.2618  0.1566
13465SOL    HW141208   1.288   5.075   1.089  0.9500 -0.4939 -0.0422
13465SOL    HW241209   1.347   5.167   1.194  1.4144 -0.6418 -0.1735
13466SOL     OW41210   3.911   3.890   0.487 -0.0252  0.3236 -0.3156
13466SOL    HW141211   3.947   3.803   0.503 -0.4299  0.3904  1.0137
13466SOL    HW241212   3.894   3.925   0.574  0.6271  1.9479 -0.8208
13467SOL     OW41213   5.297   4.720   2.140  0.3930 -0.0174 -0.1170
13467SOL    HW141214   5.219   4.764   2.105  1.7008  0.4568 -2.6135
13467SOL    HW241215   5.295   4.737   2.234 -2.4059  0.1215 -0.1694
13468SOL     OW41216   7.223   0.754   7.902 -0.5030  0.0356 -0.1338
13468SOL    HW141217   7.214   0.808   7.824  0.1327 -0.1917 -0.3691
13468SOL    HW241218   7.144   0.772   7.953 -0.4683  0.9155 -0.3776
13469SOL     OW41219   5.293   5.250   1.829 -0.3644  0.1063 -0.0862
13469SOL    HW141220   5.201   5.230   1.844 -0.5631 -0.0790 -1.4859
13469SOL    HW241221   5.341   5.182   1.876 -0.9376  0.0097  0.3667
13470SOL     OW41222   4.521   7.567   5.610  0.0386 -0.0321  0.6022
13470SOL    HW141223   4.467   7.632   5.565 -1.0461  0.0056  1.9406
13470SOL    HW241224   4.517   7.489   5.555 -0.3927  0.3482  0.0916
13471SOL     OW41225   1.979   0.915   5.916 -0.4054 -0.0175 -0.1085
13471SOL    HW141226   2.059   0.967   5.907 -1.1095  1.1328  0.1568
13471SOL    HW241227   1.946   0.936   6.003 -1.3172 -0.0253 -0.4401
13472SOL     OW41228   0.684   7.186   3.809 -0.1018 -0.0179 -0.2893
13472SOL    HW141229   0.669   7.100   3.770  0.9885  0.0712 -0.9161
13472SOL    HW241230   0.727   7.236   3.740  0.8767  0.4883  0.6815
13473SOL     OW41231   2.163   7.108   2.933 -0.0172  0.3796 -0.2937
13473SOL    HW141232   2.199   7.020   2.944  1.3605  0.5190 -3.0877
13473SOL    HW241233   2.144   7.114   2.840 -0.3376  2.9506 -0.0944
13474SOL     OW41234   4.976   2.615   5.419  0.2313  0.5700 -0.2081
13474SOL    HW141235   5.051   2.572   5.461 -0.6979 -0.4504  0.4698
13474SOL    HW241236   4.985   2.707   5.441  1.4080  0.4796 -0.3098
13475SOL     OW41237   5.446   1.323   3.712  0.1818  0.2080  0.2119
13475SOL    HW141238   5.447   1.382   3.787 -0.0083  1.7050 -0.9418
13475SOL    HW241239   5.358   1.332   3.676  0.8676  0.9948 -1.3268
13476SOL     OW41240   2.255   4.108   0.163  0.4558  0.5341 -0.6369
13476SOL    HW141241   2.180   4.123   0.107 -0.9129 -0.9274  0.7483
13476SOL    HW241242   2.219   4.064   0.240  2.3055  2.2643  1.2880
13477SOL     OW41243   6.893   0.793   3.005 -0.5257 -0.5061  0.7526
13477SOL    HW141244   6.926   0.703   3.007 -1.1582 -0.7551  0.4890
13477SOL    HW241245   6.811   0.786   2.955  0.8806  0.7135 -1.7957
13478SOL     OW41246   2.583   4.246   6.886 -0.2157 -0.4491  0.5086
13478SOL    HW141247   2.580   4.227   6.980 -1.3778  3.1725  1.2846
13478SOL    HW241248   2.497   4.282   6.866  1.0196  1.6542 -1.2749
13479SOL     OW41249   7.749   3.651   6.690 -0.2028 -0.1937 -0.0301
13479SOL    HW141250   7.708   3.572   6.655 -2.0772  0.6679  0.1902
13479SOL    HW241251   7.829   3.661   6.638 -0.2206 -1.9113 -0.4288
13480SOL     OW41252   2.443   7.544   2.964  0.1325 -0.1236  1.1200
13480SOL    HW141253   2.395   7.475   2.918  0.9113 -0.7880  1.2969
13480SOL    HW241254   2.473   7.502   3.044  0.4905  0.4633  1.2899
13481SOL     OW41255   7.535   4.044   0.646  0.2112  0.0606  0.8794
13481SOL    HW141256   7.599   4.093   0.698  0.0093  0.3335  0.8691
13481SOL    HW241257   7.454   4.049   0.697  0.6688 -1.8989  1.8531
13482SOL     OW41258   0.540   2.932   6.458  0.0921 -0.3224  0.8706
13482SOL    HW141259   0.551   2.975   6.543  1.4203  0.7183  0.1935
13482SOL    HW241260   0.629   2.924   6.423 -0.5191  0.3698 -0.9332
13483SOL     OW41261   1.137   0.217   4.300  0.0865 -0.1233 -0.2487
13483SOL    HW141262   1.043   0.215   4.316  0.2226  2.0403  1.0810
13483SOL    HW241263   1.164   0.126   4.301 -2.2207 -0.8662 -2.0703
13484SOL     OW41264   2.087   0.040   0.226 -0.3447 -0.0469  0.1721
13484SOL    HW141265   2.112  -0.042   0.269 -1.6487 -0.9232 -0.6967
13484SOL    HW241266   2.171   0.080   0.201  0.4234  0.1891  2.9084
13485SOL     OW41267   3.742   2.711   2.060 -0.7970 -0.1600  0.1066
13485SOL    HW141268   3.703   2.763   1.989  0.7986  0.7521 -0.1361
13485SOL    HW241269   3.795   2.646   2.015 -1.3255 -0.8398  0.4525
13486SOL     OW41270   4.905   3.689   5.097  0.4174  0.0221  0.3077
13486SOL    HW141271   4.958   3.610   5.101 -0.9840 -0.9131  0.6563
13486SOL    HW241272   4.850   3.678   5.019 -1.8683 -0.7097  1.9870
13487SOL     OW41273   5.395   0.221   4.779 -0.5773 -0.0754  0.0475
13487SOL    HW141274   5.440   0.179   4.705 -1.0259 -2.0076  0.8442
13487SOL    HW241275   5.340   0.289   4.738  1.5331  0.9941 -1.1013
13488SOL     OW41276   7.384   1.853   3.630 -0.0860  0.2358 -0.5716
13488SOL    HW141277   7.344   1.853   3.716 -0.4664 -2.8220 -0.6672
13488SOL    HW241278   7.311   1.866   3.569  0.1208  1.9441 -0.4733
13489SOL     OW41279   5.799   4.888   2.935 -0.2982  0.0924  0.0945
13489SOL    HW141280   5.802   4.833   3.013  0.2660  0.3514  0.2606
13489SOL    HW241281   5.764   4.972   2.966 -1.3207 -0.2168 -0.1909
13490SOL     OW41282   1.387   7.803   1.669  0.3841  1.1280  0.3479
13490SOL    HW141283   1.411   7.839   1.583 -0.9161  0.5450 -0.2580
13490SOL    HW241284   1.378   7.709   1.655  0.0854  1.0375  1.1183
13491SOL     OW41285   2.231   2.426   0.704 -0.7146  0.0075  0.3122
13491SOL    HW141286   2.228   2.478   0.623 -0.3408 -0.9065 -0.3004
13491SOL    HW241287   2.240   2.336   0.674 -4.6452 -0.7787  1.2944
13492SOL     OW41288   0.675   0.424   3.468 -0.1509 -0.5230  0.8348
13492SOL    HW141289   0.739   0.480   3.423 -1.2431  2.5210  2.9278
13492SOL    HW241290   0.722   0.390   3.544 -0.8071  1.3571  2.1262
13493SOL     OW41291   6.606   3.102   5.950 -0.0931 -0.7283  0.2943
13493SOL    HW141292   6.552   3.148   6.015  0.0444 -1.5939  1.0370
13493SOL    HW241293   6.693   3.142   5.958 -0.5196  0.4159 -0.6456
13494SOL     OW41294   4.084   2.556   4.552  0.1493  0.6623  0.9631
13494SOL    HW141295   4.139   2.484   4.521 -0.5363  1.0742 -1.3347
13494SOL    HW241296   4.109   2.569   4.643  2.0150 -0.8571  0.6839
13495SOL     OW41297   1.208   2.611   2.487 -0.0881 -0.1734  0.0451
13495SOL    HW141298   1.220   2.697   2.527  0.1063  0.0957 -0.5901
13495SOL    HW241299   1.192   2.630   2.395 -0.4224 -0.7990 -0.0239
13496SOL     OW41300   2.420   3.429   3.974 -0.2046 -0.0756  0.1074
13496SOL    HW141301   2.386   3.368   4.040  0.9963  0.2758  1.0568
13496SOL    HW241302   2.412   3.382   3.892 -0.6408 -0.9565  0.6453
13497SOL     OW41303   5.524   3.792   6.254  0.5842  0.0443 -0.1806
13497SOL    HW141304   5.430   3.794   6.237  0.7021 -1.5142 -1.0513
13497SOL    HW241305   5.550   3.701   6.242  2.1901  0.4220  0.1812
13498SOL     OW41306   3.111   2.108   5.289 -0.1795 -0.3071 -0.0727
13498SOL    HW141307   3.103   2.030   5.345 -4.0420  0.8493  1.1115
13498SOL    HW241308   3.080   2.079   5.204  1.5396 -0.8886 -0.5302
13499SOL     OW41309   1.168   0.649   7.547 -0.1586  0.3034 -0.1606
13499SOL    HW141310   1.092   0.619   7.497  0.5268 -1.1130 -0.3645
13499SOL    HW241311   1.228   0.575   7.546  0.5874  0.8717  1.3014
13500SOL     OW41312   0.040   6.155   2.640  0.1209  0.3220 -0.8527
13500SOL    HW141313   0.028   6.061   2.651 -0.5186  0.2574 -2.0226
13500SOL    HW241314   0.011   6.193   2.723  2.4809 -0.6438  0.4753
13501SOL     OW41315   2.756   4.629   2.141 -0.4416 -0.0696 -0.0725
13501SOL    HW141316   2.676   4.609   2.093 -1.0787 -0.9716  1.3199
13501SOL    HW241317   2.807   4.683   2.081 -2.1577  0.6436 -0.9359
13502SOL     OW41318   7.757   3.258   2.395  0.2326  0.2666  0.1282
13502SOL    HW141319   7.732   3.339   2.440 -1.5441  0.2296 -0.7847
13502SOL    HW241320   7.757   3.192   2.465  0.9109  0.8848  0.7271
13503SOL     OW41321   5.529   6.892   2.942 -0.2595 -0.0819 -0.2289
13503SOL    HW141322   5.482   6.808   2.939  2.2680 -1.5007 -1.5642
13503SOL    HW241323   5.501   6.938   2.864  2.6787 -2.1592 -2.6131
13504SOL     OW41324   3.579   1.861   1.497  0.2533 -0.6216 -0.4454
13504SOL    HW141325   3.485   1.861   1.480  0.2662 -0.2417 -0.5176
13504SOL    HW241326   3.592   1.789   1.559 -0.3582  0.5148  1.0307
13505SOL     OW41327   6.657   2.990   3.813  0.0607  0.4305  0.9368
13505SOL    HW141328   6.608   3.022   3.738 -0.5246  1.0204  1.5589
13505SOL    HW241329   6.740   2.959   3.777  0.0061  1.2163  0.1288
13506SOL     OW41330   6.280   7.147   5.334  0.2798  0.2895 -0.8288
13506SOL    HW141331   6.322   7.114   5.413  0.4816  0.6414 -0.7882
13506SOL    HW241332   6.279   7.242   5.345  0.3803  0.3446 -1.2829
13507SOL     OW41333   2.568   1.284   3.416  0.3373 -0.6479 -0.0580
13507SOL    HW141334   2.629   1.307   3.346  0.5657  0.4292  0.4802
13507SOL    HW241335   2.559   1.189   3.409  1.0381 -0.6612 -0.9876
13508SOL     OW41336   5.887   0.893   6.149 -0.4395  0.3068 -0.2426
13508SOL    HW141337   5.889   0.944   6.230  1.0170  2.2488 -1.4358
13508SOL    HW241338   5.975   0.855   6.143 -1.2222 -1.5799  0.1583
13509SOL     OW41339   2.896   3.321   3.623 -0.3991 -0.0145  0.5723
13509SOL    HW141340   2.928   3.411   3.615  0.6760 -0.4916 -0.8769
13509SOL    HW241341   2.966   3.275   3.668  0.0215 -0.5957 -0.6628
13510SOL     OW41342   3.400   5.409   3.262  0.1213  0.0085 -0.1083
13510SOL    HW141343   3.354   5.482   3.220  0.2654 -0.5644 -1.2942
13510SOL    HW241344   3.420   5.349   3.190  0.5822 -0.8941  0.7579
13511SOL     OW41345   2.230   6.925   4.988  0.5872  0.1578  0.1213
13511SOL    HW141346   2.226   6.833   5.014  0.1480  0.0936 -0.1670
13511SOL    HW241347   2.250   6.972   5.070  0.3917 -0.1510  0.3476
13512SOL     OW41348   5.406   5.962   0.250 -0.1648 -0.0044 -0.2417
13512SOL    HW141349   5.382   5.870   0.261  1.2989 -0.3797 -0.0202
13512SOL    HW241350   5.371   6.005   0.328 -1.8163 -0.1638 -0.8756
13513SOL     OW41351   4.555   2.889   6.290  0.1340  0.0567 -0.4539
13513SOL    HW141352   4.634   2.901   6.342  1.0086 -0.4148 -1.6456
13513SOL    HW241353   4.537   2.795   6.293  1.1665 -0.2329 -2.3608
13514SOL     OW41354   3.689   1.434   5.910 -0.8232  0.5448  0.1166
13514SOL    HW141355   3.656   1.369   5.972 -0.5693  0.5250  0.2282
13514SOL    HW241356   3.655   1.406   5.825 -1.4507  0.7581  0.2949
13515SOL     OW41357   4.938   7.660   2.151 -0.1355  0.5341 -0.6075
13515SOL    HW141358   4.863   7.626   2.200 -0.0128  0.1803 -0.6680
13515SOL    HW241359   4.903   7.682   2.065 -0.0388 -0.1925 -0.8311
13516SOL     OW41360   3.411   6.422   0.905  0.2502  0.0199  0.2473
13516SOL    HW141361   3.343   6.357   0.891  0.7187 -0.2666 -0.8001
13516SOL    HW241362   3.421   6.464   0.819  1.4007  0.0424  0.3861
13517SOL     OW41363   6.548   1.139   1.280 -0.3391  0.3959 -0.4895
13517SOL    HW141364   6.485   1.122   1.350  0.4244 -0.0331  0.1003
13517SOL    HW241365   6.522   1.224   1.244 -0.6160  0.7052  0.4420
13518SOL     OW41366   6.693   3.855   5.150  0.3157 -0.2348  0.1406
13518SOL    HW141367   6.721   3.894   5.233  0.9019 -0.7252  0.1782
13518SOL    HW241368   6.599   3.842   5.160 -0.1156  2.3144 -0.3463
13519SOL     OW41369   0.693   1.402   6.460 -0.3784 -0.1935 -0.3515
13519SOL    HW141370   0.694   1.482   6.514  0.9390 -1.0585  0.9273
13519SOL    HW241371   0.669   1.433   6.373  0.4074  1.6583  0.0667
13520SOL     OW41372   2.689   5.981   4.561 -0.2018 -0.3619  0.0643
13520SOL    HW141373   2.722   6.066   4.531 -0.0405 -0.2402  0.5969
13520SOL    HW241374   2.653   5.997   4.648 -0.1869 -0.8373  0.1617
13521SOL     OW41375   3.996   2.508   2.956  0.6562  0.0111  0.0145
13521SOL    HW141376   4.041   2.589   2.933 -0.0304  0.7736  1.2525
13521SOL    HW241377   4.059   2.439   2.939  1.3456  0.8409 -0.7978
13522SOL     OW41378   7.089   4.700   3.530 -0.2183  0.7748  0.0805
13522SOL    HW141379   7.012   4.667   3.483  0.1151  0.4671 -0.2456
13522SOL    HW241380   7.163   4.654   3.491  0.0042 -0.0197  1.3954
13523SOL     OW41381   4.977   7.792   3.792  0.1423 -0.1451 -0.2197
13523SOL    HW141382   4.893   7.775   3.836  0.1992  1.7353  0.6561
13523SOL    HW241383   5.035   7.822   3.862  0.5829  1.7566 -1.3778
13524SOL     OW41384   1.403   4.905   3.591 -0.0252 -0.5525  0.1408
13524SOL    HW141385   1.410   4.815   3.561 -0.2781  0.2515 -2.4300
13524SOL    HW241386   1.392   4.957   3.511 -0.5660  1.6906  1.6092
13525SOL     OW41387   2.615   2.856   3.593 -0.0417  0.4840 -0.1938
13525SOL    HW141388   2.676   2.924   3.566  0.4159  0.7327  1.3689
13525SOL    HW241389   2.629   2.784   3.531  1.2857  0.8438 -0.3198
13526SOL     OW41390   3.236   6.702   3.920 -0.4678 -0.2952  0.3975
13526SOL    HW141391   3.211   6.639   3.987 -0.8076 -0.8801 -0.2696
13526SOL    HW241392   3.195   6.784   3.947  0.1665 -0.2992  1.3944
13527SOL     OW41393   3.338   7.793   5.217  0.4395 -0.9332  0.0924
13527SOL    HW141394   3.385   7.855   5.162 -0.5944 -0.9329 -0.8062
13527SOL    HW241395   3.404   7.729   5.244  0.6325 -1.8808 -2.5281
13528SOL     OW41396   2.499   1.709   3.955 -0.0966  0.2676 -0.1403
13528SOL    HW141397   2.536   1.780   4.007 -1.2898  0.9638 -0.2097
13528SOL    HW241398   2.470   1.751   3.873  1.9092 -0.8394 -1.4531
13529SOL     OW41399   0.557   7.899   4.533 -0.0402  0.0518  0.1570
13529SOL    HW141400   0.467   7.868   4.543  0.1260 -0.3651  0.4236
13529SOL    HW241401   0.581   7.930   4.620  0.4903 -1.0150  0.4107
13530SOL     OW41402   0.860   1.624   6.623 -0.2379 -0.2653 -0.1505
13530SOL    HW141403   0.936   1.616   6.566 -0.0007  1.8173 -0.1666
13530SOL    HW241404   0.840   1.717   6.623 -1.7581 -0.5730  1.2020
13531SOL     OW41405   3.207   3.311   4.695  0.1761  0.5945  0.2138
13531SOL    HW141406   3.191   3.400   4.725  1.2340  1.0245 -0.4531
13531SOL    HW241407   3.301   3.309   4.674  0.0120 -0.4457 -0.5092
13532SOL     OW41408   3.081   2.274   7.199  0.0968  0.1526  0.2599
13532SOL    HW141409   3.163   2.319   7.182  1.0027 -0.8187  1.9146
13532SOL    HW241410   3.018   2.344   7.217  0.5664  0.8931 -0.9611
13533SOL     OW41411   2.815   6.952   5.468 -0.3865 -0.0796 -0.0785
13533SOL    HW141412   2.749   7.021   5.471 -2.2518 -1.8482  0.2817
13533SOL    HW241413   2.853   6.951   5.556  1.4361  2.1388 -0.7841
13534SOL     OW41414   7.735   6.096   1.823 -0.3896 -0.0114 -0.0218
13534SOL    HW141415   7.815   6.081   1.773  0.1981 -0.6137  1.0779
13534SOL    HW241416   7.672   6.129   1.759  0.1636 -1.3329 -1.2814
13535SOL     OW41417   2.577   4.754   6.948  0.4080 -0.1263 -0.5727
13535SOL    HW141418   2.616   4.685   7.001 -3.0278 -1.7399  0.0134
13535SOL    HW241419   2.589   4.834   7.000  0.0389 -1.1404  1.1102
13536SOL     OW41420   7.604   4.353   3.893 -0.0207  0.1341 -0.2069
13536SOL    HW141421   7.598   4.260   3.871 -0.5969  0.0027  0.4746
13536SOL    HW241422   7.529   4.393   3.849 -1.4263 -0.2001  1.8125
13537SOL     OW41423   1.954   0.681   3.030 -0.7017 -0.2182  0.4119
13537SOL    HW141424   1.991   0.615   2.972 -1.2226 -1.1875  1.1751
13537SOL    HW241425   1.965   0.645   3.118  0.5994  1.4926  0.9615
13538SOL     OW41426   5.206   4.869   1.299  0.1312 -0.1967  0.1032
13538SOL    HW141427   5.271   4.811   1.338 -0.8393 -0.1874  1.7721
13538SOL    HW241428   5.175   4.924   1.372 -0.7697  0.7169 -0.9334
13539SOL     OW41429   1.062   3.438   7.707 -0.1091  0.0813 -0.2820
13539SOL    HW141430   1.143   3.478   7.674  0.3081  0.6803  1.4536
13539SOL    HW241431   1.007   3.512   7.734 -0.2403 -0.4129  0.8419
13540SOL     OW41432   2.961   6.125   7.664 -0.0026 -0.6854  0.2440
13540SOL    HW141433   2.921   6.201   7.706  0.6476  1.1685 -2.3667
13540SOL    HW241434   3.054   6.132   7.686  0.1927 -0.2129 -0.6791
13541SOL     OW41435   6.851   2.388   5.600 -0.2440 -0.0888 -0.2910
13541SOL    HW141436   6.937   2.382   5.559  0.4178  0.7498  0.9508
13541SOL    HW241437   6.790   2.361   5.531  0.7509  2.2643 -2.1687
13542SOL     OW41438   3.893   7.503   2.319 -0.3540 -0.4245  0.0992
13542SOL    HW141439   3.842   7.471   2.245 -0.5100 -0.3493  0.1736
13542SOL    HW241440   3.974   7.537   2.280 -0.4503 -0.3567 -0.0406
13543SOL     OW41441   4.692   0.741   3.846  0.1231 -0.0477 -0.3413
13543SOL    HW141442   4.618   0.777   3.796  0.1008  0.4676  0.0684
13543SOL    HW241443   4.770   0.774   3.801  0.1167 -1.1056 -1.1557
13544SOL     OW41444   6.147   4.384   3.364  0.4119  0.7331 -0.1581
13544SOL    HW141445   6.182   4.348   3.283 -1.9948 -1.1142 -0.4373
13544SOL    HW241446   6.064   4.426   3.338 -1.6694 -2.0682  1.6571
13545SOL     OW41447   7.493   0.702   0.385  0.0751 -0.4203  0.8579
13545SOL    HW141448   7.414   0.729   0.339  0.3170  1.2247  1.3740
13545SOL    HW241449   7.539   0.644   0.324 -1.4397 -1.2383  0.4951
13546SOL     OW41450   3.688   2.412   1.711  0.1182  0.2755  0.2737
13546SOL    HW141451   3.606   2.458   1.691  0.5052  1.1924  0.7539
13546SOL    HW241452   3.669   2.320   1.693 -1.0109  0.4838  0.3644
13547SOL     OW41453   0.099   6.901   6.209 -0.0288 -0.4239 -0.3948
13547SOL    HW141454   0.133   6.959   6.276  0.2795  0.0235 -0.9375
13547SOL    HW241455   0.076   6.821   6.256 -1.0161  0.3482  0.4533
13548SOL     OW41456   5.163   6.591   5.856 -0.4843 -0.2330 -0.6702
13548SOL    HW141457   5.156   6.594   5.952 -1.8709  0.5098 -0.7948
13548SOL    HW241458   5.258   6.591   5.840 -0.2332 -1.1647  0.7179
13549SOL     OW41459   5.677   5.748   2.230  0.0069 -0.1617 -0.2877
13549SOL    HW141460   5.585   5.753   2.256  0.1010  0.9812 -0.1774
13549SOL    HW241461   5.674   5.725   2.137 -0.3834 -0.2178 -0.2636
13550SOL     OW41462   1.791   7.073   4.703  0.2622 -0.8862  0.1436
13550SOL    HW141463   1.735   7.036   4.772 -1.6828  3.5526  1.1005
13550SOL    HW241464   1.877   7.079   4.743 -0.5506  0.3757  1.7848
13551SOL     OW41465   6.546   6.945   7.516  0.1517 -0.6700 -0.3559
13551SOL    HW141466   6.472   6.995   7.550  0.1155 -0.1602 -1.1705
13551SOL    HW241467   6.620   7.005   7.522 -0.0232 -0.2653 -1.9579
13552SOL     OW41468   6.934   0.737   6.699  0.1645  0.1699 -0.4051
13552SOL    HW141469   6.861   0.714   6.756  1.0614  1.2912  1.2092
13552SOL    HW241470   6.896   0.741   6.611 -1.0100 -2.6555 -0.0750
13553SOL     OW41471   7.774   3.556   6.954  0.4443  0.1514  1.1327
13553SOL    HW141472   7.777   3.603   6.871  2.3298 -0.0966  1.0579
13553SOL    HW241473   7.798   3.621   7.020 -0.0200  0.0831  1.3713
13554SOL     OW41474   7.975   4.409   7.722 -0.0220  0.3501  0.5532
13554SOL    HW141475   8.034   4.356   7.776  0.5738 -1.4552 -1.7833
13554SOL    HW241476   7.898   4.353   7.709  0.3798  0.2412 -1.4707
13555SOL     OW41477   3.522   7.833   5.585 -0.1206 -0.2695 -0.0062
13555SOL    HW141478   3.510   7.755   5.531  0.7910 -0.4293  0.0181
13555SOL    HW241479   3.434   7.868   5.596 -0.2486  0.1723 -2.2151
13556SOL     OW41480   3.867   6.820   7.323 -0.3317  0.4062  0.1675
13556SOL    HW141481   3.857   6.809   7.229  1.4196 -0.6435  0.0797
13556SOL    HW241482   3.962   6.825   7.337 -0.5507 -0.0359  1.9278
13557SOL     OW41483   1.544   1.468   5.810  0.9204  0.0811 -0.5296
13557SOL    HW141484   1.613   1.533   5.801  0.8570 -0.1219 -2.7925
13557SOL    HW241485   1.465   1.512   5.778  0.5723 -0.5709 -0.5851
13558SOL     OW41486   1.581   2.356   3.262  0.5460  0.4346 -0.0915
13558SOL    HW141487   1.505   2.330   3.314  2.2601 -1.6593  1.4540
13558SOL    HW241488   1.614   2.434   3.307 -0.9286  1.6545 -1.0608
13559SOL     OW41489   7.417   7.735   0.492  0.1087 -0.1307  0.0592
13559SOL    HW141490   7.402   7.703   0.403 -1.7783 -1.2653  0.7474
13559SOL    HW241491   7.346   7.797   0.507  1.1350  0.9817  0.3551
13560SOL     OW41492   3.529   0.037   6.024  0.1920 -0.0323 -0.1137
13560SOL    HW141493   3.614   0.053   5.984  0.6812  0.3311  1.0564
13560SOL    HW241494   3.467   0.082   5.967  0.9860  1.3493  0.1012
13561SOL     OW41495   5.758   3.197   3.940  0.2346  0.2217  0.0740
13561SOL    HW141496   5.671   3.230   3.917 -0.0347 -0.7430 -0.3514
13561SOL    HW241497   5.818   3.268   3.918 -0.3352  0.4541 -0.7461
13562SOL     OW41498   5.151   7.744   1.497 -0.7510 -0.3813 -0.0513
13562SOL    HW141499   5.135   7.659   1.457 -1.6504 -0.3606  0.2676
13562SOL    HW241500   5.242   7.764   1.475 -0.4454 -1.5559  0.1093
13563SOL     OW41501   5.767   0.588   5.097  0.1925  0.4630 -0.7876
13563SOL    HW141502   5.689   0.642   5.087 -0.2009 -0.4116 -2.6478
13563SOL    HW241503   5.741   0.518   5.157  0.4248  1.7741  0.8778
13564SOL     OW41504   0.604   0.002   0.899  0.3835 -0.3259  0.6982
13564SOL    HW141505   0.525  -0.042   0.869  0.5456 -0.5768  0.6344
13564SOL    HW241506   0.598   0.090   0.864  0.2287 -0.4049  0.5291
13565SOL     OW41507   7.399   1.805   1.746  0.0261 -0.0810 -0.0203
13565SOL    HW141508   7.492   1.795   1.728 -0.5013 -2.0621 -1.9151
13565SOL    HW241509   7.361   1.720   1.724 -2.3119  0.8776  0.1383
13566SOL     OW41510   5.427   1.912   7.451 -0.4210 -0.1762  0.1920
13566SOL    HW141511   5.520   1.919   7.473 -0.3906 -0.9665  0.3582
13566SOL    HW241512   5.384   1.978   7.505 -0.0638 -0.4601  0.8311
13567SOL     OW41513   2.937   0.074   6.051  0.6328 -0.3367 -0.3643
13567SOL    HW141514   2.949   0.057   5.958 -1.0955 -0.0146 -0.6672
13567SOL    HW241515   3.026   0.081   6.086  1.2956 -0.3511 -1.9970
13568SOL     OW41516   3.907   4.788   5.367  0.3067 -0.5829  0.8067
13568SOL    HW141517   3.881   4.715   5.423  0.5581  0.5464  2.4312
13568SOL    HW241518   3.904   4.865   5.424 -0.4311  0.7727 -0.9884
13569SOL     OW41519   4.222   3.411   5.933  0.1172 -0.5210 -0.2617
13569SOL    HW141520   4.230   3.336   5.874 -2.5670 -0.6231 -0.5618
13569SOL    HW241521   4.259   3.381   6.016  0.8396 -1.5039 -0.9313
13570SOL     OW41522   2.653   2.447   2.157 -0.1427 -0.4442  0.0584
13570SOL    HW141523   2.682   2.364   2.120  2.4342  0.3474  0.2306
13570SOL    HW241524   2.687   2.514   2.097  2.9958  0.7904  3.0160
13571SOL     OW41525   3.465   3.079   3.996  0.0418 -0.3549  0.0794
13571SOL    HW141526   3.447   3.000   3.944  0.8219  0.0795 -0.8669
13571SOL    HW241527   3.450   3.051   4.086 -2.8236 -0.7114 -0.4402
13572SOL     OW41528   6.872   1.912   6.476 -0.3545  0.7019 -0.6068
13572SOL    HW141529   6.823   1.863   6.410  0.5259 -1.4880  0.3168
13572SOL    HW241530   6.864   1.859   6.556  2.1574  1.1267 -0.0412
13573SOL     OW41531   0.856   4.792   2.379 -0.0616 -0.3982  0.3007
13573SOL    HW141532   0.895   4.709   2.352 -1.1321 -0.6521 -0.4870
13573SOL    HW241533   0.763   4.782   2.361 -0.4411  0.3493  1.8092
13574SOL     OW41534   7.448   6.608   1.583  0.4221  0.5685  0.3678
13574SOL    HW141535   7.513   6.620   1.514  0.5879 -1.2815  0.1568
13574SOL    HW241536   7.378   6.671   1.563  0.1959 -0.3347 -1.8221
13575SOL     OW41537   5.532   5.787   6.551  0.1634 -0.3588 -0.4800
13575SOL    HW141538   5.562   5.767   6.640  0.3091  1.0413 -0.2136
13575SOL    HW241539   5.613   5.799   6.501  0.0732  0.4830 -0.4275
13576SOL     OW41540   3.277   1.664   6.833  0.3254  0.5780 -0.7529
13576SOL    HW141541   3.297   1.644   6.924 -2.7608 -1.2322 -0.3843
13576SOL    HW241542   3.228   1.747   6.837 -1.3282 -0.3854 -0.5418
13577SOL     OW41543   7.926   6.503   7.772 -0.1591 -0.6723 -0.2739
13577SOL    HW141544   7.896   6.412   7.767  2.6924 -1.7067  0.5542
13577SOL    HW241545   7.970   6.509   7.857 -0.2881  1.4896 -0.3404
13578SOL     OW41546   0.394   4.695   4.030 -0.4878 -0.4174  0.0177
13578SOL    HW141547   0.431   4.633   4.092 -0.6429  0.4244  0.9717
13578SOL    HW241548   0.427   4.667   3.944  0.1742 -1.2556  0.5458
13579SOL     OW41549   1.673   5.009   4.827  0.8159  0.0205 -0.3744
13579SOL    HW141550   1.758   5.006   4.870  0.6775 -0.2974 -0.1150
13579SOL    HW241551   1.610   4.992   4.897  0.4404  1.6747 -0.3031
13580SOL     OW41552   1.701   7.542   2.638 -0.1764 -0.4194 -0.3431
13580SOL    HW141553   1.656   7.562   2.720 -0.4539 -0.9910 -0.3588
13580SOL    HW241554   1.687   7.620   2.584  1.1665  0.5485  0.6385
13581SOL     OW41555   1.177   4.239   6.195 -0.4580 -0.2620 -0.0509
13581SOL    HW141556   1.188   4.189   6.275  3.7500 -0.8753 -0.9122
13581SOL    HW241557   1.134   4.178   6.134  2.3615 -2.0884 -0.2983
13582SOL     OW41558   7.976   0.051   6.037 -0.2932  0.3024  0.0330
13582SOL    HW141559   7.913   0.113   6.001  0.4291  1.0414  0.0518
13582SOL    HW241560   7.928   0.006   6.106  0.0386  2.8465  1.9930
13583SOL     OW41561   4.743   4.920   0.284 -0.3307  0.1402  0.0677
13583SOL    HW141562   4.774   4.879   0.203  0.2220 -0.1914  0.4426
13583SOL    HW241563   4.822   4.931   0.336 -0.7274  0.0872  0.6813
13584SOL     OW41564   4.276   7.156   3.514 -0.0955 -0.5975 -0.0985
13584SOL    HW141565   4.287   7.063   3.492 -0.9602 -0.9035  0.7018
13584SOL    HW241566   4.182   7.171   3.504 -0.1921 -0.2144  1.2829
13585SOL     OW41567   6.931   5.064   7.922 -0.1331  0.6353  0.2177
13585SOL    HW141568   6.924   5.135   7.858 -1.0969  0.7838  0.4769
13585SOL    HW241569   6.927   5.109   8.007  0.6458  0.3950  0.3788
13586SOL     OW41570   4.457   0.598   2.448 -0.2607 -0.2225  0.8482
13586SOL    HW141571   4.519   0.668   2.470 -0.4742  0.1633  0.2249
13586SOL    HW241572   4.379   0.618   2.501 -1.0794  1.1672 -0.8302
13587SOL     OW41573   2.788   2.764   0.937  0.5411 -0.5650 -0.5326
13587SOL    HW141574   2.795   2.834   0.872 -2.0306  1.8189  1.5873
13587SOL    HW241575   2.857   2.784   1.001 -0.5353  0.4105  0.3525
13588SOL     OW41576   1.110   6.496   6.177  0.6287  0.1781 -0.0613
13588SOL    HW141577   1.128   6.492   6.083  0.1959  3.6805 -0.3644
13588SOL    HW241578   1.017   6.472   6.184  0.4600  0.6478 -0.6265
13589SOL     OW41579   5.287   4.543   3.710  0.1490 -0.7827  0.4951
13589SOL    HW141580   5.195   4.551   3.685 -0.0190 -0.2802  1.2624
13589SOL    HW241581   5.335   4.568   3.630 -0.4000  2.7922  1.2083
13590SOL     OW41582   7.263   4.664   5.049  1.0888  0.1783 -0.2978
13590SOL    HW141583   7.315   4.672   5.128  1.8200  1.6439 -0.9018
13590SOL    HW241584   7.174   4.644   5.080  1.5049  0.0997  0.8459
13591SOL     OW41585   2.062   5.539   2.001  0.2735  0.7526  0.5649
13591SOL    HW141586   2.055   5.601   2.073  0.6006 -0.9671  2.1066
13591SOL    HW241587   2.079   5.455   2.043 -3.0401 -0.9250 -1.3153
13592SOL     OW41588   0.998   6.587   3.037 -0.3415  0.1493 -0.3565
13592SOL    HW141589   0.948   6.582   2.956  1.0094 -0.2385 -1.1788
13592SOL    HW241590   1.073   6.530   3.023  0.8077  1.4063  0.5134
13593SOL     OW41591   6.753   0.279   1.586 -0.0486  0.2603 -0.3001
13593SOL    HW141592   6.827   0.280   1.647 -1.1481 -1.0036  1.0917
13593SOL    HW241593   6.702   0.356   1.609  0.2535  0.5397 -0.5513
13594SOL     OW41594   1.188   4.987   7.942 -0.2001 -0.5095 -0.4734
13594SOL    HW141595   1.143   4.991   8.026  0.9310  0.9618  0.0765
13594SOL    HW241596   1.277   5.016   7.960 -0.0921  0.3864 -2.2757
13595SOL     OW41597   3.769   6.398   3.723 -0.2182 -0.3714 -0.0951
13595SOL    HW141598   3.723   6.368   3.645  2.5504 -0.3102 -1.8335
13595SOL    HW241599   3.700   6.423   3.784 -2.4552 -0.3239 -2.5577
13596SOL     OW41600   3.623   4.894   4.404  0.2241 -0.2954  0.3819
13596SOL    HW141601   3.588   4.960   4.464  0.0229  0.0840 -0.1496
13596SOL    HW241602   3.621   4.813   4.454 -1.6715 -0.3418  0.2683
13597SOL     OW41603   5.392   3.876   3.351  0.0915  0.4370 -0.1638
13597SOL    HW141604   5.308   3.884   3.397  1.0560 -1.7760  2.0557
13597SOL    HW241605   5.377   3.808   3.286  0.0286  0.3474 -0.0562
13598SOL     OW41606   3.306   5.121   6.670  0.2025 -0.1662  0.1315
13598SOL    HW141607   3.216   5.132   6.700 -0.0782  1.1021 -1.1520
13598SOL    HW241608   3.337   5.044   6.717 -1.1676  0.0706  1.4749
13599SOL     OW41609   0.105   2.011   2.053  0.4414 -0.3043  0.4866
13599SOL    HW141610   0.195   2.038   2.075  0.4958 -0.4890  0.4937
13599SOL    HW241611   0.080   2.068   1.981  0.4564 -0.0506  0.6781
13600SOL     OW41612   3.589   0.760   3.889  0.2990  0.4922  0.3269
13600SOL    HW141613   3.627   0.837   3.930  2.1162 -0.7312  1.0242
13600SOL    HW241614   3.599   0.690   3.954 -1.3875 -0.3249 -0.2494
13601SOL     OW41615   6.709   2.443   4.524  0.4975  0.0250  0.3401
13601SOL    HW141616   6.735   2.458   4.433  0.5419 -1.5538  0.0787
13601SOL    HW241617   6.653   2.518   4.545 -0.3522 -0.1065 -1.3280
13602SOL     OW41618   3.248   7.797   0.964  0.3138  0.0247 -0.1126
13602SOL    HW141619   3.202   7.713   0.959  0.0619  0.0444  1.5866
13602SOL    HW241620   3.322   7.780   1.022  0.3348  0.9625  0.1410
13603SOL     OW41621   5.045   7.827   5.406  0.1065  0.4643  0.4497
13603SOL    HW141622   5.023   7.762   5.472 -1.0560 -1.8590 -2.1009
13603SOL    HW241623   5.136   7.808   5.382 -0.2943 -0.4143 -0.4362
13604SOL     OW41624   7.722   0.151   7.135 -0.2111 -0.0298 -0.2904
13604SOL    HW141625   7.809   0.169   7.171 -0.4661  0.1320  0.2499
13604SOL    HW241626   7.671   0.122   7.211 -0.6394 -0.0834 -0.6006
13605SOL     OW41627   6.148   3.742   2.932 -0.3405  0.4091  0.4329
13605SOL    HW141628   6.128   3.827   2.972  0.5234  1.0986 -0.5811
13605SOL    HW241629   6.200   3.764   2.855 -0.2750 -1.0392  0.0630
13606SOL     OW41630   7.809   7.136   6.954  0.0728 -0.1219 -0.0608
13606SOL    HW141631   7.784   7.090   6.874 -0.1643  0.8066 -0.5376
13606SOL    HW241632   7.752   7.213   6.956  1.2133  0.7391  0.1109
13607SOL     OW41633   6.342   0.006   0.736  0.5673 -0.4972  0.0222
13607SOL    HW141634   6.357   0.072   0.803  0.6300 -0.8001  0.3040
13607SOL    HW241635   6.317   0.057   0.658 -0.8376 -0.2069  0.6384
13608SOL     OW41636   3.154   7.087   3.166  0.4058  0.2541 -0.7207
13608SOL    HW141637   3.218   7.044   3.222  0.8269  1.5841 -0.1528
13608SOL    HW241638   3.198   7.096   3.081  0.9439  1.0419 -0.3700
13609SOL     OW41639   5.052   4.225   6.267 -0.2384 -0.1942 -0.3822
13609SOL    HW141640   5.032   4.273   6.187 -0.7974 -1.1111 -0.7945
13609SOL    HW241641   5.004   4.143   6.259  0.6941 -0.8246  0.3287
13610SOL     OW41642   2.741   0.654   4.206 -0.3982 -0.5834  0.1520
13610SOL    HW141643   2.801   0.596   4.253 -0.9569 -0.1351  1.4685
13610SOL    HW241644   2.681   0.686   4.274 -1.8695 -0.7079 -1.0538
13611SOL     OW41645   2.092   6.814   5.755  0.0909 -0.5364 -0.1978
13611SOL    HW141646   2.125   6.901   5.780  0.5886 -1.3089  1.9858
13611SOL    HW241647   2.083   6.818   5.660  0.1825  1.8796 -0.1409
13612SOL     OW41648   1.264   3.551   6.612 -0.2739  0.0728  0.3254
13612SOL    HW141649   1.198   3.545   6.543 -0.3186  1.6822  0.2059
13612SOL    HW241650   1.340   3.505   6.576 -1.5166 -2.4159  0.7521
13613SOL     OW41651   4.884   7.577   7.975 -0.0714 -0.1244  0.6123
13613SOL    HW141652   4.929   7.642   7.921  0.3615 -0.5571  0.4476
13613SOL    HW241653   4.943   7.561   8.048  0.5391 -1.4919 -0.1721
13614SOL     OW41654   2.823   3.836   5.431 -0.4366 -0.0885  0.0967
13614SOL    HW141655   2.830   3.779   5.355  0.5379 -0.4801  0.4736
13614SOL    HW241656   2.899   3.894   5.425  0.3324 -0.9310  1.4210
13615SOL     OW41657   6.977   2.978   4.585 -0.4376  0.5270  0.2575
13615SOL    HW141658   6.904   2.917   4.579  2.4832 -3.0811 -0.9138
13615SOL    HW241659   7.031   2.958   4.508  2.4132  2.1413  1.7509
13616SOL     OW41660   3.898   6.741   2.013  0.2999  0.2228  0.6352
13616SOL    HW141661   3.968   6.684   1.983  0.0745 -0.1346  0.7922
13616SOL    HW241662   3.830   6.682   2.045 -0.6876  0.5184 -0.8634
13617SOL     OW41663   4.051   7.599   2.848  0.7608  0.4306  0.2597
13617SOL    HW141664   4.059   7.600   2.753  2.8557 -0.0651  0.3911
13617SOL    HW241665   4.032   7.689   2.872 -1.3135  0.2692 -0.7311
13618SOL     OW41666   7.032   0.854   0.139 -0.2083 -0.4854 -0.2800
13618SOL    HW141667   7.090   0.925   0.168 -0.3439 -1.2091  1.8687
13618SOL    HW241668   6.990   0.888   0.061  0.5189  1.4146  0.1253
13619SOL     OW41669   7.530   1.423   6.795 -1.0419  0.5928 -0.3350
13619SOL    HW141670   7.527   1.401   6.702 -1.3223  1.1384 -0.4556
13619SOL    HW241671   7.623   1.423   6.816 -0.9124  1.6054 -0.8905
13620SOL     OW41672   5.619   5.474   6.328  0.3373 -0.4161 -0.4768
13620SOL    HW141673   5.692   5.475   6.390 -0.5238 -1.1446  0.5745
13620SOL    HW241674   5.628   5.555   6.279  0.4846  0.6802  1.2933
13621SOL     OW41675   0.806   4.942   1.502  0.7727 -0.4247  0.3754
13621SOL    HW141676   0.753   4.929   1.580  1.8756 -0.7985  1.0715
13621SOL    HW241677   0.767   4.884   1.436  0.6763 -1.1408  1.0598
13622SOL     OW41678   7.630   4.381   6.604  0.2665 -0.2152  0.2482
13622SOL    HW141679   7.638   4.418   6.691  1.1350  0.4898 -0.1279
13622SOL    HW241680   7.575   4.443   6.556  0.1474 -0.3793  0.1726
13623SOL     OW41681   3.849   3.307   7.606  0.3107 -0.0407 -0.0781
13623SOL    HW141682   3.922   3.274   7.554  0.3085 -4.0485  2.2311
13623SOL    HW241683   3.888   3.336   7.688 -0.2772  1.2320 -0.2395
13624SOL     OW41684   4.968   7.259   0.195 -0.5934 -0.1945  0.3773
13624SOL    HW141685   4.974   7.164   0.193 -0.2188 -0.1599 -0.2878
13624SOL    HW241686   4.921   7.282   0.114  0.2972  0.2496 -0.0162
13625SOL     OW41687   2.807   4.109   3.048 -0.6262 -0.2960 -0.5080
13625SOL    HW141688   2.803   4.031   3.103 -0.2450 -0.0832 -0.1758
13625SOL    HW241689   2.852   4.081   2.969 -0.0596 -0.2908 -0.1852
13626SOL     OW41690   0.728   2.455   6.096 -0.0641  0.1624 -0.1198
13626SOL    HW141691   0.639   2.486   6.081 -1.1930 -2.3271  1.0121
13626SOL    HW241692   0.780   2.493   6.026 -1.6679  3.0582  0.1895
13627SOL     OW41693   1.225   2.016   4.887 -0.1701  0.7242  0.1552
13627SOL    HW141694   1.178   1.958   4.827 -0.1098  2.3420 -1.4557
13627SOL    HW241695   1.161   2.036   4.955 -0.3554 -0.7995  0.4528
13628SOL     OW41696   4.426   2.085   5.448 -0.3013  0.0235 -0.5046
13628SOL    HW141697   4.367   2.144   5.400 -0.7593 -0.2314 -0.2622
13628SOL    HW241698   4.367   2.028   5.498  0.1247 -0.9985 -1.1498
13629SOL     OW41699   7.055   6.529   2.431 -0.0508 -0.2502 -0.0564
13629SOL    HW141700   7.016   6.551   2.347 -0.7857 -2.9526 -0.4669
13629SOL    HW241701   7.023   6.597   2.491  0.8213  1.9218 -2.0119
13630SOL     OW41702   7.706   0.451   2.522 -0.2966 -0.2019  0.0618
13630SOL    HW141703   7.779   0.480   2.468  0.0097 -2.6169 -0.8643
13630SOL    HW241704   7.631   0.503   2.491  0.7321  1.3568  0.1534
13631SOL     OW41705   5.705   7.116   5.984  0.2367 -0.1110 -0.1517
13631SOL    HW141706   5.626   7.163   6.009  0.5052  0.1100  0.2933
13631SOL    HW241707   5.738   7.079   6.066 -1.4771 -3.4436 -0.8868
13632SOL     OW41708   2.145   3.801   6.633  0.1477 -0.5081 -0.0084
13632SOL    HW141709   2.177   3.718   6.598  0.8106  0.0915 -0.8421
13632SOL    HW241710   2.076   3.828   6.572  0.2371 -0.2258  0.0149
13633SOL     OW41711   4.369   7.055   3.854  0.0274 -0.6284 -0.2835
13633SOL    HW141712   4.283   7.087   3.826  0.0921  0.6476  0.8601
13633SOL    HW241713   4.393   7.114   3.926  1.5110 -1.4620 -0.0801
13634SOL     OW41714   1.036   5.529   7.546  0.1420 -0.0268 -0.0308
13634SOL    HW141715   1.102   5.488   7.602  0.8607  1.1380 -0.0086
13634SOL    HW241716   1.045   5.623   7.563  0.7377  0.3956 -2.4471
13635SOL     OW41717   3.559   0.263   5.111 -0.0723  0.2565 -0.0808
13635SOL    HW141718   3.594   0.205   5.044 -0.7341 -0.3824  0.1108
13635SOL    HW241719   3.631   0.322   5.132  1.3124 -1.8027  1.1927
13636SOL     OW41720   7.793   1.558   6.577  0.0050 -0.4241  0.2298
13636SOL    HW141721   7.746   1.609   6.643  0.9210 -2.0873  2.2300
13636SOL    HW241722   7.858   1.618   6.541 -0.0564  0.3116  1.3349
13637SOL     OW41723   4.816   7.406   3.324  0.7813  0.2053 -0.8801
13637SOL    HW141724   4.724   7.417   3.300  0.6028  0.3289 -0.1510
13637SOL    HW241725   4.859   7.486   3.293  0.1214  1.4353  1.3212
13638SOL     OW41726   1.391   3.199   1.785 -0.0446  0.0931 -0.1729
13638SOL    HW141727   1.452   3.253   1.733  0.1190  0.0919  0.0196
13638SOL    HW241728   1.310   3.250   1.785 -0.1189 -0.0212 -0.6371
13639SOL     OW41729   5.822   0.306   6.540 -0.4047 -0.2251 -0.6611
13639SOL    HW141730   5.747   0.334   6.591  0.3951  1.6309 -0.4670
13639SOL    HW241731   5.840   0.379   6.481  0.7853 -0.9579 -1.2315
13640SOL     OW41732   2.387   6.004   0.738  0.0632 -0.3241  0.5153
13640SOL    HW141733   2.407   5.912   0.720  0.6659 -0.3083  1.0852
13640SOL    HW241734   2.460   6.053   0.699 -1.2230  0.0494 -1.4887
13641SOL     OW41735   7.724   0.824   1.232  0.2119 -0.6666  0.0889
13641SOL    HW141736   7.800   0.769   1.248 -1.6723 -3.3706  0.1575
13641SOL    HW241737   7.718   0.829   1.136  0.7668  0.0110  0.0839
13642SOL     OW41738   6.571   0.029   4.577 -0.2656  0.4171 -0.2004
13642SOL    HW141739   6.631  -0.005   4.511  1.3639 -1.2286  2.0561
13642SOL    HW241740   6.613   0.111   4.607 -0.4969  0.6453 -0.5013
13643SOL     OW41741   1.040   4.098   5.485 -0.2458  0.1225  0.1644
13643SOL    HW141742   1.047   4.022   5.543  2.1799 -1.0271 -1.5697
13643SOL    HW241743   1.097   4.163   5.526 -1.0639  0.4676  0.7776
13644SOL     OW41744   0.331   5.296   4.585  0.1925 -0.0441  0.7687
13644SOL    HW141745   0.243   5.325   4.611  0.5822  1.2459  0.6596
13644SOL    HW241746   0.378   5.377   4.566  1.2969 -0.7573  0.4621
13645SOL     OW41747   5.962   1.349   5.825  0.2115 -0.1830  0.1648
13645SOL    HW141748   5.940   1.258   5.843  1.9657 -0.5659  0.4793
13645SOL    HW241749   5.967   1.353   5.730  2.5910 -1.0507  0.2195
13646SOL     OW41750   5.174   5.667   5.922 -1.1124 -0.0593 -0.1975
13646SOL    HW141751   5.197   5.755   5.893  2.0235 -0.7345  0.0324
13646SOL    HW241752   5.219   5.657   6.006  0.0029 -2.4494 -1.0408
13647SOL     OW41753   7.869   7.076   1.117 -0.4169  0.4838  0.1372
13647SOL    HW141754   7.950   7.053   1.072 -0.1886  0.8477  0.3636
13647SOL    HW241755   7.896   7.098   1.206 -0.6584  1.5043 -0.0405
13648SOL     OW41756   4.443   5.323   6.021 -0.4563  0.1929  0.1480
13648SOL    HW141757   4.408   5.246   6.065 -0.3024  0.5419  0.8905
13648SOL    HW241758   4.538   5.310   6.020 -0.4188  0.4348  0.4046
13649SOL     OW41759   2.066   6.395   1.458  0.7879  0.5175  0.1412
13649SOL    HW141760   2.001   6.448   1.412  0.4473  0.4140  0.5001
13649SOL    HW241761   2.129   6.370   1.391  0.0499 -0.0113 -0.3589
13650SOL     OW41762   3.950   6.722   5.668  0.1896 -0.0209 -0.0488
13650SOL    HW141763   3.861   6.686   5.667  0.6911 -1.2706 -0.2146
13650SOL    HW241764   3.975   6.728   5.576  0.4512 -0.1144  0.0154
13651SOL     OW41765   6.722   1.952   6.940 -0.0172  0.1522  0.0975
13651SOL    HW141766   6.772   2.005   6.877  0.1023 -0.2037 -0.1049
13651SOL    HW241767   6.632   1.985   6.933  0.1984  0.8701  0.5381
13652SOL     OW41768   6.789   4.086   4.134  0.3301 -0.6442  0.3243
13652SOL    HW141769   6.738   4.109   4.056 -0.1729 -0.4934  0.6915
13652SOL    HW241770   6.812   4.170   4.173  1.8785 -0.6719 -0.4687
13653SOL     OW41771   7.076   3.932   1.009 -0.7373 -0.4722 -0.1352
13653SOL    HW141772   7.030   3.997   0.957  0.9127  0.2176 -0.7559
13653SOL    HW241773   7.086   3.857   0.951 -2.8286 -1.3863  0.6488
13654SOL     OW41774   2.912   7.669   0.815 -0.2942  0.1150 -0.1865
13654SOL    HW141775   2.957   7.712   0.742 -0.7449 -0.0547 -0.5754
13654SOL    HW241776   2.901   7.737   0.881  0.0787  0.2827 -0.2974
13655SOL     OW41777   1.040   6.644   3.796 -0.5034  0.3469  0.1591
13655SOL    HW141778   1.067   6.639   3.887  1.0922  1.6475 -0.2246
13655SOL    HW241779   1.020   6.553   3.772  1.4031 -0.3455  1.1031
13656SOL     OW41780   3.816   2.578   3.873  0.6002  0.4276 -0.7803
13656SOL    HW141781   3.898   2.592   3.920  0.0907 -1.0534  0.5903
13656SOL    HW241782   3.748   2.608   3.933  0.0421  0.1043 -1.2431
13657SOL     OW41783   1.867   4.404   4.401 -0.1950 -0.1805  0.5355
13657SOL    HW141784   1.821   4.399   4.317  1.9729  2.6740 -0.8693
13657SOL    HW241785   1.800   4.382   4.466 -1.9920 -2.0881 -1.8683
13658SOL     OW41786   1.777   5.751   3.840 -0.3553  0.6372 -0.3574
13658SOL    HW141787   1.755   5.788   3.926  0.8019  0.6344 -0.0595
13658SOL    HW241788   1.740   5.812   3.777 -2.3471 -0.0159  0.1339
13659SOL     OW41789   6.110   3.607   0.111 -0.1823 -0.0700  0.3089
13659SOL    HW141790   6.200   3.580   0.091 -0.7968 -1.7912 -0.2589
13659SOL    HW241791   6.070   3.530   0.150 -1.6036  0.4705 -0.0453
13660SOL     OW41792   3.315   1.917   7.472 -0.4386  0.4771  0.6959
13660SOL    HW141793   3.245   1.935   7.534 -0.5669 -1.2863  1.0703
13660SOL    HW241794   3.393   1.903   7.526 -0.0204  1.3374  0.3323
13661SOL     OW41795   3.852   2.374   4.873 -0.1571 -0.4997  0.2385
13661SOL    HW141796   3.861   2.386   4.967  0.4904 -1.1622  0.2638
13661SOL    HW241797   3.933   2.409   4.836 -0.7196  0.4135 -0.1258
13662SOL     OW41798   0.224   2.028   3.298  0.3893  0.6111 -0.0029
13662SOL    HW141799   0.243   2.119   3.277 -0.5830  1.1007  1.1970
13662SOL    HW241800   0.308   1.993   3.330  0.3185  1.5888  1.2749
13663SOL     OW41801   4.522   5.245   6.681  0.4031 -0.4681 -0.2093
13663SOL    HW141802   4.608   5.273   6.714  0.6266 -2.1872  0.7558
13663SOL    HW241803   4.517   5.281   6.593  0.9332  2.0066  0.7226
13664SOL     OW41804   6.753   1.309   2.509  0.2863 -0.4418  0.2407
13664SOL    HW141805   6.815   1.262   2.564  1.7183  2.1576  0.9442
13664SOL    HW241806   6.674   1.317   2.562  1.1659  0.8068  1.3701
13665SOL     OW41807   7.832   1.612   7.950 -0.7097  0.1214  0.2203
13665SOL    HW141808   7.903   1.673   7.929 -1.5910  1.7121  1.6926
13665SOL    HW241809   7.821   1.621   8.044 -2.8240 -0.1478  0.0095
13666SOL     OW41810   5.523   7.421   4.591 -0.6935 -0.3747  0.8848
13666SOL    HW141811   5.469   7.346   4.568  0.1917 -0.8178  0.2376
13666SOL    HW241812   5.463   7.482   4.633 -2.0823 -0.0528 -1.5350
13667SOL     OW41813   1.579   3.535   6.534 -0.4562 -0.0073  0.0587
13667SOL    HW141814   1.600   3.591   6.460  1.3012 -0.7787 -0.0342
13667SOL    HW241815   1.573   3.595   6.609  0.1886  0.4461 -0.2555
13668SOL     OW41816   0.762   2.535   6.366  0.6759  0.7631 -0.3462
13668SOL    HW141817   0.843   2.586   6.367  1.8628 -1.0223 -2.4577
13668SOL    HW241818   0.745   2.517   6.274 -0.7766 -1.0454  0.2403
13669SOL     OW41819   0.006   6.161   7.024  0.2368  0.4773  0.0148
13669SOL    HW141820  -0.045   6.167   7.104  1.4582  1.5432  0.7346
13669SOL    HW241821  -0.055   6.186   6.954 -0.8963 -0.6905  0.5683
13670SOL     OW41822   7.682   5.576   3.360 -0.3472  0.4804 -0.7889
13670SOL    HW141823   7.637   5.522   3.425 -0.6864  0.7543 -0.7959
13670SOL    HW241824   7.613   5.627   3.319  0.0281  1.2374 -0.4880
13671SOL     OW41825   4.237   1.349   7.078 -0.5747 -0.0904  0.6688
13671SOL    HW141826   4.168   1.406   7.043 -1.3373 -0.5649  1.3916
13671SOL    HW241827   4.277   1.310   7.000 -0.0932  1.3645  0.1629
13672SOL     OW41828   3.828   7.398   4.223 -0.3336 -0.4938 -0.1668
13672SOL    HW141829   3.866   7.324   4.270  0.6863  0.7123  0.9827
13672SOL    HW241830   3.873   7.475   4.261 -0.9166  0.6456 -1.7483
13673SOL     OW41831   7.640   6.211   4.623  0.6005 -0.0921  0.1496
13673SOL    HW141832   7.629   6.150   4.550 -0.3637  0.4345 -0.1593
13673SOL    HW241833   7.730   6.198   4.652 -0.0841 -2.8258  1.1639
13674SOL     OW41834   3.769   4.974   1.683  0.5047 -0.7196  0.1058
13674SOL    HW141835   3.708   5.045   1.664  0.1012 -1.1470 -0.2015
13674SOL    HW241836   3.791   4.938   1.597  1.9953  0.0914  0.1289
13675SOL     OW41837   2.568   0.163   2.253 -0.0290 -0.4501 -0.0733
13675SOL    HW141838   2.635   0.134   2.314  0.1335  0.4124  0.1540
13675SOL    HW241839   2.486   0.128   2.288  0.2255 -1.0198 -0.0465
13676SOL     OW41840   6.336   5.275   3.079  0.4919 -0.1631 -0.4566
13676SOL    HW141841   6.243   5.252   3.070  0.7102 -1.7383  1.0349
13676SOL    HW241842   6.336   5.371   3.082 -1.2508 -0.1809  1.1029
13677SOL     OW41843   0.087   6.654   7.096 -0.3851 -0.3181 -0.4940
13677SOL    HW141844   0.040   6.682   7.175  0.0138 -1.7679  0.2824
13677SOL    HW241845   0.107   6.735   7.050  0.0812  0.6086  1.2892
13678SOL     OW41846   0.306   6.601   7.268  0.1249  0.5722 -0.0266
13678SOL    HW141847   0.360   6.679   7.264 -1.0208  1.3854  0.2906
13678SOL    HW241848   0.226   6.624   7.221  0.0491 -0.6197 -0.4963
13679SOL     OW41849   5.330   4.150   0.147 -0.5805  0.0150  0.1382
13679SOL    HW141850   5.368   4.107   0.070  0.2191 -2.0919  1.6412
13679SOL    HW241851   5.400   4.207   0.179 -0.2963 -0.4053  0.2737
13680SOL     OW41852   4.635   5.269   3.550  0.2982  0.4552 -0.0130
13680SOL    HW141853   4.667   5.241   3.636  1.6189 -0.0286 -0.6634
13680SOL    HW241854   4.569   5.336   3.571 -3.4874 -3.5486  1.5849
13681SOL     OW41855   7.844   5.076   2.418 -0.5336  0.1723  0.5549
13681SOL    HW141856   7.863   5.170   2.411  0.4018  0.0832  1.8017
13681SOL    HW241857   7.752   5.073   2.447 -0.4111  0.7100  1.0040
13682SOL     OW41858   3.705   7.441   3.451  0.2859  0.1393  0.3182
13682SOL    HW141859   3.757   7.369   3.486  2.0857  1.0896 -0.3485
13682SOL    HW241860   3.758   7.477   3.380 -1.2689  1.1698 -0.3536
13683SOL     OW41861   3.862   2.957   2.298  0.5669  0.1236 -0.6102
13683SOL    HW141862   3.813   2.886   2.341  2.8797 -0.9534  0.3104
13683SOL    HW241863   3.904   3.004   2.369 -0.0289  1.7619 -1.3150
13684SOL     OW41864   1.259   6.832   2.993 -0.1081  0.2972 -0.2470
13684SOL    HW141865   1.324   6.768   3.021  0.0400  0.6825  0.2914
13684SOL    HW241866   1.245   6.812   2.900 -0.4659 -0.8567  0.0458
13685SOL     OW41867   4.555   7.441   3.184 -0.1606  0.0786  0.1466
13685SOL    HW141868   4.578   7.377   3.116 -0.4644  1.3275 -1.1580
13685SOL    HW241869   4.482   7.401   3.230  0.9524 -1.4202  0.6709
13686SOL     OW41870   4.320   6.686   6.918  0.0130 -0.0174 -0.1208
13686SOL    HW141871   4.281   6.600   6.910 -1.2805  0.7156 -1.9035
13686SOL    HW241872   4.246   6.746   6.927  0.8392  1.0577 -0.2853
13687SOL     OW41873   0.019   1.483   5.173  0.1084 -0.6121  0.7104
13687SOL    HW141874   0.049   1.412   5.115  1.1845 -0.0029  0.5041
13687SOL    HW241875   0.099   1.512   5.218  0.1932  2.2447 -1.1689
13688SOL     OW41876   0.144   3.735   6.863  0.6447  0.1020  0.1230
13688SOL    HW141877   0.107   3.648   6.876  1.7363 -0.8675 -2.8809
13688SOL    HW241878   0.239   3.721   6.867  0.8398  1.0319 -0.9129
13689SOL     OW41879   0.050   4.167   6.534 -0.3646  1.3294  0.6884
13689SOL    HW141880   0.060   4.094   6.595  2.4150  0.6716 -0.4431
13689SOL    HW241881  -0.043   4.170   6.515 -0.8908 -0.2531  2.7558
13690SOL     OW41882   6.431   2.343   1.441 -0.4575  0.7368  0.4889
13690SOL    HW141883   6.423   2.430   1.402 -2.3161  1.1916  1.8141
13690SOL    HW241884   6.345   2.325   1.478  0.3472 -1.0206  1.6010
13691SOL     OW41885   3.816   0.996   6.566  0.0838  0.2822 -0.5162
13691SOL    HW141886   3.835   0.950   6.648  0.6562  1.2914 -0.0757
13691SOL    HW241887   3.746   1.057   6.588 -0.6986 -0.3708 -1.1115
13692SOL     OW41888   6.088   0.150   1.738 -0.3907 -0.6784 -0.2790
13692SOL    HW141889   6.033   0.175   1.813  0.5431 -1.1702  0.5827
13692SOL    HW241890   6.158   0.098   1.776  0.8663  0.2167 -1.3175
13693SOL     OW41891   7.209   3.531   4.147 -0.5950 -0.4216  0.2378
13693SOL    HW141892   7.118   3.502   4.140 -0.8477 -0.6250  3.6875
13693SOL    HW241893   7.205   3.625   4.133 -1.0467 -0.6960 -1.5964
13694SOL     OW41894   7.666   2.906   7.183  0.0790  0.2169 -0.4555
13694SOL    HW141895   7.616   2.891   7.103  0.3490  1.5953 -0.8895
13694SOL    HW241896   7.623   2.852   7.249 -0.2436 -0.8162 -1.4789
13695SOL     OW41897   6.751   7.651   3.713  0.4039 -0.4154 -0.0832
13695SOL    HW141898   6.730   7.672   3.622 -0.7972  0.6136  0.4091
13695SOL    HW241899   6.843   7.677   3.723  0.0215  1.1897 -0.5238
13696SOL     OW41900   5.027   0.837   4.568  0.0466 -0.3850 -0.1095
13696SOL    HW141901   4.941   0.874   4.545  0.6842  1.3294  0.1947
13696SOL    HW241902   5.085   0.869   4.499  0.6622 -0.6577  0.2849
13697SOL     OW41903   3.755   1.590   0.174 -0.1268  0.2861  0.0237
13697SOL    HW141904   3.711   1.600   0.089 -2.4443  0.0865  1.1489
13697SOL    HW241905   3.684   1.595   0.238  1.6319  0.7853  1.9845
13698SOL     OW41906   7.971   4.926   2.183  0.4237 -0.4259  0.2119
13698SOL    HW141907   7.922   4.955   2.260  1.3490 -0.0066  0.6490
13698SOL    HW241908   7.934   4.840   2.161 -1.8638  0.7537 -0.6720
13699SOL     OW41909   2.718   4.214   6.618 -0.2566 -0.0426 -0.6226
13699SOL    HW141910   2.663   4.231   6.694 -0.0886  0.5817 -0.6381
13699SOL    HW241911   2.808   4.223   6.651 -0.1969  1.9727 -1.2792
13700SOL     OW41912   0.532   7.255   1.787  0.0110  0.2639  0.3040
13700SOL    HW141913   0.509   7.184   1.848 -0.1183 -0.5639 -0.6948
13700SOL    HW241914   0.618   7.229   1.753  0.2225  0.8865  0.3616
13701SOL     OW41915   0.353   5.608   7.146 -0.2399 -0.1906 -0.3657
13701SOL    HW141916   0.352   5.658   7.065 -0.0893 -0.4180 -0.5083
13701SOL    HW241917   0.315   5.523   7.122 -0.6188 -0.0991 -0.0969
13702SOL     OW41918   0.079   6.526   5.520 -0.2400  0.2409  0.3547
13702SOL    HW141919   0.107   6.601   5.466  1.0371  0.3997  1.2089
13702SOL    HW241920   0.096   6.554   5.610 -0.5885 -0.7466  0.7319
13703SOL     OW41921   2.520   7.610   2.234 -0.3934  0.3002  0.6313
13703SOL    HW141922   2.489   7.674   2.298  1.0777 -0.0587  1.7047
13703SOL    HW241923   2.615   7.612   2.241 -0.0105  2.1838 -3.3895
13704SOL     OW41924   7.238   4.329   3.129 -0.3540  0.1100 -0.2050
13704SOL    HW141925   7.179   4.394   3.092 -1.7878 -0.2970  1.3123
13704SOL    HW241926   7.325   4.357   3.102 -1.4050 -0.8784 -4.9479
13705SOL     OW41927   4.140   0.795   7.564 -0.4124  0.3417 -0.7845
13705SOL    HW141928   4.046   0.781   7.550 -0.5542  0.8852 -0.4009
13705SOL    HW241929   4.164   0.864   7.502 -0.2870  0.2646 -0.8214
13706SOL     OW41930   6.591   1.716   5.105 -0.9242 -0.7083  0.3169
13706SOL    HW141931   6.658   1.685   5.167  1.4554 -0.3941 -2.0297
13706SOL    HW241932   6.593   1.811   5.114 -0.4974 -0.6591 -0.3626
13707SOL     OW41933   7.223   3.362   4.357 -0.6858  0.5658 -0.0239
13707SOL    HW141934   7.236   3.405   4.272  0.2276  0.3413 -0.0057
13707SOL    HW241935   7.227   3.269   4.337 -0.6092  0.5123  0.2393
13708SOL     OW41936   4.733   5.930   3.248  0.1860  0.3472 -0.1463
13708SOL    HW141937   4.673   5.884   3.189  0.5400  0.2574 -0.4339
13708SOL    HW241938   4.812   5.876   3.249 -0.1035 -0.0735  1.0187
13709SOL     OW41939   2.216   2.956   2.765  0.0769  0.0860  0.1441
13709SOL    HW141940   2.159   3.031   2.750 -0.8909 -1.1034 -2.4384
13709SOL    HW241941   2.268   2.950   2.685  1.0089 -1.2617  0.8383
13710SOL     OW41942   7.352   0.994   7.136  0.1798  0.5173 -0.2295
13710SOL    HW141943   7.268   1.019   7.097  0.5166  1.7973 -0.1717
13710SOL    HW241944   7.417   1.044   7.086  0.9391 -0.7278 -0.4943
13711SOL     OW41945   2.081   5.381   2.330 -0.0365  0.6657  0.0055
13711SOL    HW141946   2.149   5.348   2.390  0.0275  0.7153 -0.0401
13711SOL    HW241947   2.055   5.465   2.368 -0.8968  0.1070  0.6597
13712SOL     OW41948   6.880   0.681   7.095  0.6473  0.0369 -0.8513
13712SOL    HW141949   6.799   0.664   7.047 -0.3282  1.4731  0.2227
13712SOL    HW241950   6.947   0.632   7.048 -0.9759 -1.8157 -1.3011
13713SOL     OW41951   3.680   7.961   1.523 -0.1474 -0.2318 -0.2838
13713SOL    HW141952   3.671   7.986   1.431 -1.0448  0.1657 -0.0921
13713SOL    HW241953   3.623   7.885   1.533  0.7913 -0.9455 -0.3106
13714SOL     OW41954   7.164   0.285   7.952 -0.4301  0.1541 -0.0302
13714SOL    HW141955   7.112   0.365   7.962 -1.0089 -0.1567 -0.5078
13714SOL    HW241956   7.148   0.235   8.033  1.1562  1.2016  0.9705
13715SOL     OW41957   0.022   7.813   4.450  0.7104 -0.0589  0.0777
13715SOL    HW141958   0.069   7.739   4.488 -0.0355  0.1263  1.4236
13715SOL    HW241959  -0.070   7.795   4.469  0.0676 -1.0128 -3.5611
13716SOL     OW41960   0.903   0.261   7.435 -0.2255 -0.1195 -0.2702
13716SOL    HW141961   0.951   0.252   7.516 -0.8101 -2.4382 -0.1362
13716SOL    HW241962   0.813   0.280   7.462 -0.3105 -0.3677 -0.3707
13717SOL     OW41963   5.140   0.635   0.525 -0.0340 -0.3004  0.2241
13717SOL    HW141964   5.171   0.679   0.446 -0.2038 -0.3936  0.1044
13717SOL    HW241965   5.199   0.561   0.537 -1.1884 -1.4288 -0.9244
13718SOL     OW41966   0.752   0.893   6.798 -0.0963  0.0106  0.8001
13718SOL    HW141967   0.791   0.853   6.720 -1.8557  0.1642 -0.1894
13718SOL    HW241968   0.759   0.826   6.866  0.2151 -0.6355  0.1340
13719SOL     OW41969   4.937   3.871   1.282  0.2513  0.1946  0.0386
13719SOL    HW141970   4.990   3.801   1.319 -1.7807 -0.3219  2.0803
13719SOL    HW241971   4.888   3.829   1.211  1.1892  0.2509 -0.6515
13720SOL     OW41972   5.514   6.513   3.853  0.0614  0.1263 -0.3167
13720SOL    HW141973   5.421   6.518   3.829 -0.1448 -1.8269 -0.0470
13720SOL    HW241974   5.514   6.487   3.945  0.8388 -2.1997 -0.9256
13721SOL     OW41975   6.728   4.530   6.656  0.1904  0.3063  0.0290
13721SOL    HW141976   6.726   4.509   6.563  0.5237  2.1432 -0.4033
13721SOL    HW241977   6.657   4.477   6.693  0.8774 -1.4191 -1.0258
13722SOL     OW41978   0.538   0.728   1.095  0.0789 -0.1996  0.1563
13722SOL    HW141979   0.488   0.657   1.055 -1.7362  0.7887  0.6236
13722SOL    HW241980   0.510   0.806   1.047 -0.3561  0.6564  1.7616
13723SOL     OW41981   1.475   5.367   3.311 -0.0595 -0.5291 -0.4576
13723SOL    HW141982   1.527   5.314   3.371  0.7199 -0.0600 -0.7030
13723SOL    HW241983   1.517   5.355   3.225 -1.3505 -1.4473 -0.9807
13724SOL     OW41984   0.298   4.321   0.495 -0.5456 -0.4804 -0.0436
13724SOL    HW141985   0.223   4.263   0.478 -2.0633  1.0477  1.2379
13724SOL    HW241986   0.311   4.368   0.413 -2.0767  0.4367  0.2220
13725SOL     OW41987   6.275   0.946   2.293  0.5768 -0.3039 -0.0363
13725SOL    HW141988   6.279   1.027   2.345 -0.0170  0.0282 -0.4968
13725SOL    HW241989   6.190   0.908   2.314 -0.3489  0.6428 -1.9414
13726SOL     OW41990   1.079   5.027   5.989 -0.1935 -0.1236 -0.2509
13726SOL    HW141991   1.063   5.104   5.935  1.4480 -0.2743 -0.9804
13726SOL    HW241992   1.163   5.044   6.032  0.3104 -1.6075 -0.6156
13727SOL     OW41993   3.920   7.714   1.332  0.2924  0.1361  0.1384
13727SOL    HW141994   3.907   7.764   1.251 -1.7091  2.4606  1.8287
13727SOL    HW241995   3.957   7.777   1.393  2.2065 -1.7209  0.9475
13728SOL     OW41996   0.505   5.597   6.512 -0.2165 -0.5580 -0.1908
13728SOL    HW141997   0.509   5.625   6.603  0.3764  0.9435 -0.6649
13728SOL    HW241998   0.476   5.674   6.464 -1.0093 -1.4858 -1.2152
13729SOL     OW41999   4.226   6.203   6.091 -0.1166  0.3041 -0.1104
13729SOL    HW142000   4.213   6.261   6.166  2.3304  2.5716 -1.3611
13729SOL    HW242001   4.220   6.260   6.015 -2.0279 -1.8684 -1.6681
13730SOL     OW42002   1.422   2.619   6.133 -0.2670  0.2558 -0.5390
13730SOL    HW142003   1.401   2.687   6.069  2.4438  1.5771 -0.0993
13730SOL    HW242004   1.432   2.667   6.216  0.0898 -0.8879  0.0868
13731SOL     OW42005   2.268   1.959   1.896 -0.0550 -0.6144  0.2759
13731SOL    HW142006   2.181   1.944   1.933 -1.0940  0.7006 -1.5665
13731SOL    HW242007   2.286   2.051   1.912  0.1423 -0.4042 -1.1059
13732SOL     OW42008   5.912   7.797   7.564  0.6536  0.3589  0.2221
13732SOL    HW142009   5.874   7.811   7.478 -0.5286  1.3631  0.8903
13732SOL    HW242010   5.854   7.735   7.607  3.5744 -3.5103 -1.1974
13733SOL     OW42011   5.846   7.208   0.423  0.6007 -0.3396 -0.2550
13733SOL    HW142012   5.848   7.149   0.498  2.0540 -1.4901 -1.1704
13733SOL    HW242013   5.764   7.187   0.379 -0.8367  1.1654  1.6275
13734SOL     OW42014   6.425   6.968   5.976 -0.2000  0.4771  0.3104
13734SOL    HW142015   6.411   6.969   6.071 -0.5912  0.5485  0.2492
13734SOL    HW242016   6.499   7.028   5.963  0.0273  0.2621  0.5969
13735SOL     OW42017   0.565   0.092   2.177 -0.4952 -0.0448 -0.4937
13735SOL    HW142018   0.533   0.089   2.087 -2.5441 -0.3061  0.2209
13735SOL    HW242019   0.497   0.049   2.228 -0.6661  2.5792  1.5571
13736SOL     OW42020   2.914   3.168   7.290 -0.0594 -0.5299 -0.5292
13736SOL    HW142021   2.852   3.154   7.219  0.0308 -1.9070 -0.3478
13736SOL    HW242022   2.963   3.246   7.264 -0.5707 -0.5583 -1.5963
13737SOL     OW42023   4.541   4.877   1.933 -0.1962 -0.4079  0.4105
13737SOL    HW142024   4.505   4.966   1.939 -1.1936 -0.8303  0.9393
13737SOL    HW242025   4.517   4.847   1.846  1.4725  0.3944 -0.3327
13738SOL     OW42026   6.628   2.078   7.186 -0.4245  0.0301  0.1813
13738SOL    HW142027   6.699   2.065   7.124 -0.4993 -0.6654  0.2315
13738SOL    HW242028   6.645   2.014   7.255 -0.3228  0.8232  0.8942
13739SOL     OW42029   0.256   0.051   5.223  0.2684 -0.0871  0.2155
13739SOL    HW142030   0.163   0.059   5.245 -0.2787  2.6299 -2.6819
13739SOL    HW242031   0.257   0.008   5.137  1.7747 -1.1152  0.7191
13740SOL     OW42032   1.892   6.208   3.315 -0.2397 -0.1640  0.5483
13740SOL    HW142033   1.936   6.259   3.247 -0.4588  0.3757  0.8104
13740SOL    HW242034   1.856   6.132   3.269  2.0739 -1.3069  0.5375
13741SOL     OW42035   1.878   5.237   5.190 -0.6577 -0.0958 -0.1069
13741SOL    HW142036   1.938   5.305   5.221 -0.2478  0.6216 -2.4045
13741SOL    HW242037   1.927   5.156   5.202  0.2059  0.3496 -0.5708
13742SOL     OW42038   1.164   5.832   5.155  0.2532  0.0203  0.7243
13742SOL    HW142039   1.234   5.767   5.156  0.6463  0.4604  1.6812
13742SOL    HW242040   1.151   5.856   5.247 -0.1534  1.0128  0.4183
13743SOL     OW42041   5.756   3.279   4.393 -0.0192 -0.6426  0.4871
13743SOL    HW142042   5.809   3.282   4.313 -0.3661  0.1736  0.2839
13743SOL    HW242043   5.665   3.286   4.362 -0.0494  2.5257  1.1035
13744SOL     OW42044   3.816   2.588   5.514  0.0432  0.1149  0.1911
13744SOL    HW142045   3.869   2.587   5.593  0.7899  1.4515 -0.2802
13744SOL    HW242046   3.828   2.675   5.477  1.1059 -1.0167 -2.3195
13745SOL     OW42047   0.474   6.701   3.314  0.1417 -0.3114  0.1904
13745SOL    HW142048   0.465   6.615   3.356  1.1441 -0.5248 -0.0155
13745SOL    HW242049   0.398   6.750   3.343  0.6552 -0.5599  1.9916
13746SOL     OW42050   7.224   1.164   2.006 -0.5997  0.0578 -0.0537
13746SOL    HW142051   7.129   1.160   2.015 -0.9331  0.3375 -2.9751
13746SOL    HW242052   7.256   1.080   2.038 -1.8870 -0.3221  0.2268
13747SOL     OW42053   3.822   2.667   3.554 -0.0673  0.2082 -0.2071
13747SOL    HW142054   3.862   2.582   3.533  1.4169  0.5700  1.1196
13747SOL    HW242055   3.821   2.670   3.649 -1.8956  0.8620 -0.2293
13748SOL     OW42056   3.370   3.574   4.060 -0.1202 -0.0060  0.1330
13748SOL    HW142057   3.449   3.520   4.059 -0.1057  0.0216 -0.2759
13748SOL    HW242058   3.384   3.638   3.990  0.5020  1.4636  1.5864
13749SOL     OW42059   3.449   1.488   6.185 -0.2727 -0.0361 -0.4401
13749SOL    HW142060   3.461   1.393   6.184 -1.3768 -0.1774 -1.8956
13749SOL    HW242061   3.399   1.506   6.106  2.0178  2.0462 -1.4801
13750SOL     OW42062   4.460   3.012   0.708 -0.2778  0.1634  0.0745
13750SOL    HW142063   4.487   2.925   0.678  1.4943  0.5570  0.4791
13750SOL    HW242064   4.489   3.016   0.799 -0.2884  1.2075  0.0387
13751SOL     OW42065   7.524   2.056   1.959  0.2200 -0.0077 -0.2768
13751SOL    HW142066   7.543   2.148   1.981  1.3291 -0.8366  2.3944
13751SOL    HW242067   7.600   2.027   1.910  1.0475 -0.2227  1.1125
13752SOL     OW42068   5.913   1.207   5.355  0.1379  0.0809  0.4927
13752SOL    HW142069   5.879   1.236   5.270  1.1085 -1.1862 -0.3377
13752SOL    HW242070   5.914   1.112   5.349  1.8193  0.0325  1.2922
13753SOL     OW42071   6.921   0.475   0.802  0.3559  0.2464 -0.5320
13753SOL    HW142072   6.911   0.396   0.749  0.4857  0.6158 -1.1082
13753SOL    HW242073   6.961   0.444   0.883 -1.0003 -0.5117 -0.1335
13754SOL     OW42074   3.621   4.178   1.195  0.1367  0.1991 -0.1774
13754SOL    HW142075   3.566   4.246   1.156  0.9742  1.3521  0.6038
13754SOL    HW242076   3.708   4.193   1.156 -0.0601 -1.5243 -1.3080
13755SOL     OW42077   3.152   2.741   3.352 -0.2736  0.1498 -0.5441
13755SOL    HW142078   3.247   2.733   3.354 -0.0667  2.4730  0.5601
13755SOL    HW242079   3.121   2.663   3.398  1.1500  0.1720  0.4948
13756SOL     OW42080   5.037   3.584   3.974  0.1637 -0.5060  0.4382
13756SOL    HW142081   4.965   3.521   3.977 -0.6883  0.3601 -1.3021
13756SOL    HW242082   5.038   3.622   4.062  0.1485 -2.3336  1.2510
13757SOL     OW42083   5.635   5.812   2.977  0.2957  0.3053 -0.4484
13757SOL    HW142084   5.578   5.739   3.000 -0.6876  1.1767 -0.0335
13757SOL    HW242085   5.645   5.807   2.882 -0.5763  0.2123 -0.5362
13758SOL     OW42086   0.877   2.548   5.903 -0.2724 -0.3541  0.3711
13758SOL    HW142087   0.913   2.478   5.848 -0.4667 -1.5025  1.6623
13758SOL    HW242088   0.937   2.621   5.892 -0.6877 -0.3183 -1.9042
13759SOL     OW42089   7.941   7.854   4.184 -0.2153 -0.3910 -0.1997
13759SOL    HW142090   7.969   7.829   4.272 -0.7629  0.8563  0.3386
13759SOL    HW242091   7.939   7.772   4.135  0.3150 -1.0599  0.8881
13760SOL     OW42092   7.402   4.541   0.254 -0.1646 -0.0892  0.7231
13760SOL    HW142093   7.405   4.571   0.345 -0.3083  2.5124 -0.0883
13760SOL    HW242094   7.358   4.611   0.207 -0.4400 -1.5830 -1.3113
13761SOL     OW42095   4.881   4.394   2.675 -0.6760  0.1801  0.2667
13761SOL    HW142096   4.846   4.483   2.667 -0.2012  0.2054 -2.1953
13761SOL    HW242097   4.852   4.364   2.761  0.3091  3.2011  1.7337
13762SOL     OW42098   5.586   5.984   6.912 -0.0011 -0.1112 -0.6410
13762SOL    HW142099   5.542   5.914   6.960 -0.0567  0.8229  0.7109
13762SOL    HW242100   5.676   5.983   6.944 -0.7186  2.3520  1.6851
13763SOL     OW42101   7.687   2.932   3.774 -0.1854  0.5060  0.6932
13763SOL    HW142102   7.695   2.929   3.679  0.8823  0.0968  0.7843
13763SOL    HW242103   7.619   2.869   3.796 -0.7013  0.8854  0.1698
13764SOL     OW42104   1.869   1.002   7.291  0.7706  0.0561  0.0851
13764SOL    HW142105   1.878   1.053   7.371 -2.4273  0.3114  0.3454
13764SOL    HW242106   1.856   0.912   7.321 -3.4685  0.5549  0.0978
13765SOL     OW42107   2.577   7.462   6.590 -0.2611  0.6557 -0.3405
13765SOL    HW142108   2.522   7.442   6.666  1.3510 -0.8077  0.4680
13765SOL    HW242109   2.538   7.413   6.518 -2.5041  2.9742 -0.7910
13766SOL     OW42110   7.227   5.424   2.063  0.6490 -0.1185 -0.2293
13766SOL    HW142111   7.249   5.488   1.996  1.4957  0.1615  0.3032
13766SOL    HW242112   7.308   5.412   2.112 -0.2966  0.7166  1.5997
13767SOL     OW42113   1.343   6.898   0.334  0.2808 -0.0058 -0.2754
13767SOL    HW142114   1.280   6.834   0.302  0.3469 -0.3603  0.2938
13767SOL    HW242115   1.427   6.851   0.335  0.3279  0.0774  0.1514
13768SOL     OW42116   6.175   2.477   5.081  0.5546 -0.1172 -0.4073
13768SOL    HW142117   6.174   2.469   4.985 -4.2082 -0.9688 -0.4202
13768SOL    HW242118   6.175   2.571   5.097  0.6689  0.0311 -1.2222
13769SOL     OW42119   1.354   5.204   5.451  0.0193  0.1800 -0.1535
13769SOL    HW142120   1.394   5.162   5.526 -1.4209 -1.2620 -0.1784
13769SOL    HW242121   1.268   5.163   5.442  0.5532 -0.4564 -3.2106
13770SOL     OW42122   6.576   0.941   0.735  0.3017 -0.5532  0.3251
13770SOL    HW142123   6.558   0.981   0.650 -1.7102  0.9990  1.4405
13770SOL    HW242124   6.599   1.014   0.792 -0.2988 -1.3396  1.6100
13771SOL     OW42125   1.206   1.386   4.137 -0.3266 -0.0711 -0.4642
13771SOL    HW142126   1.188   1.339   4.219  1.5533  0.5708  0.3474
13771SOL    HW242127   1.256   1.324   4.084  0.1455  0.1984 -0.3346
13772SOL     OW42128   4.629   0.807   2.568 -0.0464 -0.1184  0.7015
13772SOL    HW142129   4.698   0.748   2.599  0.7333  0.7983  0.7562
13772SOL    HW242130   4.603   0.856   2.646  0.5454  0.8291  0.3090
13773SOL     OW42131   5.752   2.410   3.043  0.2809  0.6984  0.2760
13773SOL    HW142132   5.751   2.320   3.077 -1.3611  0.8776  0.7232
13773SOL    HW242133   5.842   2.422   3.012  0.6534 -0.9357  0.6473
13774SOL     OW42134   1.085   0.529   4.275 -0.0802 -0.3929  0.7369
13774SOL    HW142135   1.074   0.456   4.336  2.7202  0.1036  1.9203
13774SOL    HW242136   1.172   0.516   4.237 -0.2357  1.3879 -0.3158
13775SOL     OW42137   2.920   7.538   5.397  0.6015 -0.0858 -0.9267
13775SOL    HW142138   2.941   7.595   5.323 -0.4952 -0.3937 -1.4825
13775SOL    HW242139   2.985   7.560   5.464  0.8367  1.0641 -1.5284
13776SOL     OW42140   7.063   6.513   3.669 -0.2631  0.6746  0.7108
13776SOL    HW142141   7.073   6.420   3.691 -1.6105  0.5819  1.0038
13776SOL    HW242142   6.971   6.521   3.644 -0.1776  1.9576  0.8077
13777SOL     OW42143   2.498   0.285   0.365 -0.3420 -0.2013  0.2679
13777SOL    HW142144   2.501   0.362   0.422  0.7836 -0.3151  0.3835
13777SOL    HW242145   2.590   0.258   0.357 -0.4523 -0.0836 -1.7104
13778SOL     OW42146   3.421   0.240   4.413 -0.0131  0.5265 -0.2623
13778SOL    HW142147   3.507   0.232   4.372 -0.3570 -0.1478 -0.8471
13778SOL    HW242148   3.374   0.162   4.386 -0.4893  0.4236  0.8391
13779SOL     OW42149   3.765   5.432   3.204 -0.1786  0.3879 -0.0517
13779SOL    HW142150   3.710   5.444   3.282  0.2388  3.7549 -0.2175
13779SOL    HW242151   3.703   5.435   3.131 -0.0939  1.5477 -0.0835
13780SOL     OW42152   6.831   7.920   7.621 -0.4128 -0.4412 -0.0102
13780SOL    HW142153   6.901   7.854   7.613 -0.3715 -0.4076  0.0716
13780SOL    HW242154   6.878   8.001   7.639 -0.4204 -0.2639 -0.7518
13781SOL     OW42155   2.179   5.534   4.003  0.1424  0.0775 -0.4216
13781SOL    HW142156   2.096   5.500   3.971  0.6047 -1.4841 -0.0332
13781SOL    HW242157   2.238   5.459   3.999  1.2899  0.9393  0.1561
13782SOL     OW42158   6.247   1.605   0.188  0.3724 -0.2132  0.3660
13782SOL    HW142159   6.317   1.659   0.227  0.1832  1.8961 -2.0890
13782SOL    HW242160   6.290   1.561   0.115 -0.4997 -0.0715 -0.2331
13783SOL     OW42161   1.399   6.831   1.626  0.0485  0.0702 -0.2200
13783SOL    HW142162   1.469   6.820   1.562 -0.3618 -1.5195 -0.4085
13783SOL    HW242163   1.322   6.855   1.574  0.5782  2.5522  0.0508
13784SOL     OW42164   5.200   5.784   0.963  0.1673 -0.5005  0.0621
13784SOL    HW142165   5.144   5.862   0.962 -1.5856 -1.7143 -1.5666
13784SOL    HW242166   5.242   5.785   1.049 -0.5844  1.6988  0.4343
13785SOL     OW42167   4.015   4.946   0.471  0.1194 -0.5662  0.2083
13785SOL    HW142168   3.962   4.933   0.392  1.7986 -0.4483 -0.9453
13785SOL    HW242169   4.067   5.023   0.452 -0.4838  0.2989  2.0038
13786SOL     OW42170   6.555   3.024   5.351 -0.1380 -0.0449 -0.0561
13786SOL    HW142171   6.499   2.949   5.331  1.1957 -0.9806 -0.2832
13786SOL    HW242172   6.601   3.043   5.270 -2.0741  2.4349 -0.6515
13787SOL     OW42173   5.752   5.211   6.515  0.4294  0.3684 -0.6220
13787SOL    HW142174   5.729   5.303   6.504 -0.1511  0.2973 -0.0493
13787SOL    HW242175   5.763   5.200   6.609  1.9860  0.1983 -0.8148
13788SOL     OW42176   1.754   4.622   6.206  0.1509 -0.4794  0.3097
13788SOL    HW142177   1.776   4.529   6.208  1.7496 -0.0875  1.9604
13788SOL    HW242178   1.735   4.640   6.114 -0.7135 -2.5421  0.0497
13789SOL     OW42179   4.387   4.831   1.381 -0.6050  0.1903 -0.0903
13789SOL    HW142180   4.356   4.766   1.317  0.6743 -0.5145 -0.0245
13789SOL    HW242181   4.482   4.831   1.370 -0.3730  0.0778  1.8110
13790SOL     OW42182   7.135   6.978   2.465  0.4099 -0.9649 -0.3733
13790SOL    HW142183   7.132   7.009   2.375 -0.2707  1.1459  0.3506
13790SOL    HW242184   7.043   6.960   2.487  0.2493  1.0954  0.7395
13791SOL     OW42185   3.774   4.812   4.822 -0.0244 -0.0292  0.2778
13791SOL    HW142186   3.789   4.832   4.915 -1.3110  0.5968  0.3712
13791SOL    HW242187   3.717   4.735   4.823  1.3646 -1.0811 -0.0325
13792SOL     OW42188   6.429   3.795   6.397 -0.3354 -0.2747 -0.0734
13792SOL    HW142189   6.470   3.826   6.316  1.4193 -0.2250  0.8094
13792SOL    HW242190   6.485   3.830   6.467 -1.2585 -1.1549  1.1246
13793SOL     OW42191   2.990   6.330   2.749 -0.2692 -0.2992  0.1635
13793SOL    HW142192   2.995   6.425   2.741  0.7322 -0.2964  0.6720
13793SOL    HW242193   3.001   6.298   2.660  1.1110  0.0156  0.2112
13794SOL     OW42194   6.788   0.491   5.457 -0.0729  0.1205 -0.5990
13794SOL    HW142195   6.763   0.519   5.369  0.4208  1.5506 -0.2918
13794SOL    HW242196   6.820   0.570   5.499 -1.3086 -0.3416  1.2404
13795SOL     OW42197   3.740   0.860   3.519  0.8975 -0.1689  0.2436
13795SOL    HW142198   3.809   0.806   3.558  0.7605 -0.0482  0.6454
13795SOL    HW242199   3.665   0.850   3.577  0.9158  0.5707  0.3973
13796SOL     OW42200   5.695   2.272   1.049  0.3877 -0.0597 -0.4925
13796SOL    HW142201   5.634   2.289   0.977 -0.5197 -0.1622  0.2480
13796SOL    HW242202   5.673   2.337   1.116 -0.0870 -1.2121  0.4917
13797SOL     OW42203   0.076   7.058   7.350  0.1783  0.5497  0.4726
13797SOL    HW142204   0.072   7.062   7.254 -0.5337 -0.8041  0.4326
13797SOL    HW242205   0.022   7.132   7.379 -1.0333 -0.0720 -0.1702
13798SOL     OW42206   4.210   4.452   6.417  0.5184 -0.0332 -0.1505
13798SOL    HW142207   4.178   4.362   6.410  0.4100 -0.0806  0.8302
13798SOL    HW242208   4.254   4.455   6.502  0.6172  0.8082 -0.2268
13799SOL     OW42209   6.629   3.171   5.602  0.3155  0.0267  0.3502
13799SOL    HW142210   6.712   3.141   5.639  0.4913  0.2799  0.1658
13799SOL    HW242211   6.606   3.106   5.536  1.2271  0.8531 -0.7830
13800SOL     OW42212   1.051   3.638   5.778  0.0530 -0.2425  0.1286
13800SOL    HW142213   1.050   3.555   5.732 -0.0096 -1.0942  1.6136
13800SOL    HW242214   1.014   3.618   5.865 -1.3686  1.6224  0.0107
13801SOL     OW42215   2.757   2.742   2.246  0.1994 -0.2525 -0.1063
13801SOL    HW142216   2.823   2.811   2.255  0.4970 -0.3592 -1.4882
13801SOL    HW242217   2.675   2.784   2.274  0.6906  0.1122  0.8334
13802SOL     OW42218   3.584   7.001   0.505  0.2128  0.1773  0.7674
13802SOL    HW142219   3.623   6.936   0.447  0.5175  0.5159  0.5870
13802SOL    HW242220   3.495   6.970   0.520 -0.4377  0.9817 -1.2729
13803SOL     OW42221   4.828   5.353   5.360 -0.1028  0.3869  0.1654
13803SOL    HW142222   4.856   5.389   5.276  0.3155  2.0786  1.0106
13803SOL    HW242223   4.896   5.379   5.422 -0.6537 -0.4187  1.1364
13804SOL     OW42224   2.214   3.867   5.759  0.2395 -0.4438 -0.4159
13804SOL    HW142225   2.272   3.882   5.833  0.0188  1.6723 -0.6627
13804SOL    HW242226   2.175   3.781   5.777  1.2808 -0.6023  1.1819
13805SOL     OW42227   3.123   6.971   5.414  0.1019 -0.2455 -0.5494
13805SOL    HW142228   3.140   6.896   5.471  2.7910 -0.2851 -1.3504
13805SOL    HW242229   3.038   6.953   5.375  0.4234 -2.5556 -0.2308
13806SOL     OW42230   6.616   3.595   2.312 -0.5627 -0.2389 -0.1893
13806SOL    HW142231   6.531   3.627   2.340 -1.3247 -2.1822 -0.1785
13806SOL    HW242232   6.600   3.557   2.225 -0.0636 -2.0176  0.4671
13807SOL     OW42233   5.185   6.472   5.614 -0.4298 -0.3003  0.5256
13807SOL    HW142234   5.152   6.499   5.700 -0.8889 -0.7822  0.4945
13807SOL    HW242235   5.230   6.389   5.630  2.6544  1.3654  0.9810
13808SOL     OW42236   4.250   3.056   2.306  0.1267 -1.0732  0.4904
13808SOL    HW142237   4.186   3.127   2.308 -0.0485 -1.2230  0.2221
13808SOL    HW242238   4.317   3.083   2.369  0.4935 -0.2632 -0.2321
13809SOL     OW42239   6.200   7.786   5.972  0.2780  0.0944  0.0487
13809SOL    HW142240   6.145   7.800   5.895  0.1007  1.5959  0.4322
13809SOL    HW242241   6.150   7.822   6.044  0.0986 -2.0021  1.0206
13810SOL     OW42242   2.901   1.517   2.518 -0.2640  0.0166  0.5770
13810SOL    HW142243   2.975   1.530   2.578  0.9230  0.1685 -0.8600
13810SOL    HW242244   2.931   1.449   2.458 -0.1397  2.0376 -1.7644
13811SOL     OW42245   6.363   6.615   2.036 -0.3492 -0.2325 -0.2395
13811SOL    HW142246   6.433   6.626   1.971 -0.7614 -0.0219 -0.6448
13811SOL    HW242247   6.325   6.702   2.045  0.2865 -0.0617  0.9438
13812SOL     OW42248   7.024   2.242   2.253  0.8161 -0.3323 -0.7680
13812SOL    HW142249   6.958   2.260   2.319  0.1892  1.4048 -1.8261
13812SOL    HW242250   7.029   2.147   2.249  0.4529 -0.4587  1.3503
13813SOL     OW42251   1.613   6.447   2.435 -0.1685 -0.2806  0.0575
13813SOL    HW142252   1.677   6.503   2.391 -1.0006  0.0336 -0.7632
13813SOL    HW242253   1.641   6.358   2.413  0.7967 -0.1918  0.8600
13814SOL     OW42254   7.812   7.362   3.155  0.1091  0.1267 -0.2978
13814SOL    HW142255   7.804   7.280   3.204 -0.0662  0.0119 -0.5145
13814SOL    HW242256   7.842   7.335   3.068  1.6912  0.4466  0.1317
13815SOL     OW42257   2.891   6.253   5.624  0.0512 -0.1711  0.3296
13815SOL    HW142258   2.855   6.199   5.694  0.2970  0.1565  0.7087
13815SOL    HW242259   2.830   6.243   5.551 -1.1111  0.8285  1.1588
13816SOL     OW42260   6.982   1.047   6.647 -0.1613 -0.2967  0.0695
13816SOL    HW142261   6.894   1.022   6.617 -0.1299  0.1672 -0.4212
13816SOL    HW242262   7.041   1.010   6.582 -0.0773  0.5038 -0.3132
13817SOL     OW42263   2.306   2.590   5.967 -0.0148 -0.0327  0.9889
13817SOL    HW142264   2.354   2.673   5.965 -0.6102  0.3062  0.3768
13817SOL    HW242265   2.265   2.588   6.053  0.3532  0.1045  1.1686
13818SOL     OW42266   0.516   6.606   1.557 -0.0581 -0.0263 -0.1413
13818SOL    HW142267   0.476   6.599   1.644 -0.3383 -0.7166 -0.3210
13818SOL    HW242268   0.508   6.518   1.520 -0.3994  0.3891 -1.0702
13819SOL     OW42269   4.798   0.996   1.893 -0.5682 -0.2925  0.3825
13819SOL    HW142270   4.755   0.963   1.814  1.0248 -0.5084 -0.3928
13819SOL    HW242271   4.891   0.993   1.874 -0.2538  2.1089  1.2936
13820SOL     OW42272   4.680   0.867   7.128 -0.0772  0.3490 -0.3195
13820SOL    HW142273   4.719   0.898   7.210  1.9648 -2.0092 -0.3562
13820SOL    HW242274   4.594   0.833   7.153  0.6215 -0.5505  0.8766
13821SOL     OW42275   4.420   2.870   5.525  0.4939 -0.3952  0.6692
13821SOL    HW142276   4.377   2.812   5.463  3.8477 -1.9910 -0.2549
13821SOL    HW242277   4.387   2.957   5.502 -0.5032 -1.2855 -1.4662
13822SOL     OW42278   7.601   6.529   1.808 -0.3298 -0.1691  0.2594
13822SOL    HW142279   7.687   6.524   1.766 -1.0397 -1.9741 -1.0071
13822SOL    HW242280   7.544   6.568   1.741 -0.8307 -0.3681  0.5683
13823SOL     OW42281   2.463   4.266   3.915 -0.1403  0.3909 -0.0256
13823SOL    HW142282   2.439   4.321   3.990  0.7350  0.3591  0.2919
13823SOL    HW242283   2.404   4.293   3.845  0.0977  1.5580  0.2093
13824SOL     OW42284   3.758   1.746   1.165  0.2394  0.5089 -0.5584
13824SOL    HW142285   3.763   1.652   1.178 -0.8975  0.4133 -0.8267
13824SOL    HW242286   3.833   1.766   1.107  1.0938 -0.0597  0.3401
13825SOL     OW42287   5.808   0.697   5.977  0.4220  0.4110  0.5712
13825SOL    HW142288   5.823   0.752   6.054 -0.4801  0.8363  0.4535
13825SOL    HW242289   5.859   0.739   5.908  1.9420 -0.4706  1.1374
13826SOL     OW42290   0.959   4.096   7.353 -0.4359 -0.2754 -0.3322
13826SOL    HW142291   0.888   4.088   7.290  0.2447  0.8948 -1.2471
13826SOL    HW242292   1.002   4.179   7.332  1.8411 -1.4406 -0.4585
13827SOL     OW42293   2.036   6.772   1.134 -0.5503  0.3090 -0.1595
13827SOL    HW142294   2.116   6.819   1.157 -0.8369  0.0498  1.4304
13827SOL    HW242295   2.065   6.706   1.071  0.2330  1.1879 -0.7162
13828SOL     OW42296   7.249   3.758   5.295  0.2731 -0.3851 -0.2408
13828SOL    HW142297   7.286   3.827   5.350  1.7322  1.0174 -2.8976
13828SOL    HW242298   7.323   3.724   5.245 -1.3083 -0.3785 -2.6600
13829SOL     OW42299   6.639   2.775   0.417 -0.0185  0.1790 -0.1701
13829SOL    HW142300   6.618   2.722   0.340 -0.9361  0.3540 -0.0392
13829SOL    HW242301   6.608   2.863   0.395 -0.3220  0.2196  0.4188
13830SOL     OW42302   2.029   5.808   6.191 -0.3289 -0.5982  0.5995
13830SOL    HW142303   2.076   5.803   6.274  0.9707 -0.0858 -0.0876
13830SOL    HW242304   2.056   5.730   6.143  0.2952 -0.0070 -0.0295
13831SOL     OW42305   6.708   7.820   2.710  0.0324 -0.3763  0.3328
13831SOL    HW142306   6.674   7.909   2.703 -2.4966 -1.1818  1.6293
13831SOL    HW242307   6.750   7.816   2.795 -2.4411 -1.1867  1.5785
13832SOL     OW42308   6.469   5.174   7.763  0.1557 -0.1296 -0.0167
13832SOL    HW142309   6.377   5.190   7.788  0.1474  0.4941 -0.4522
13832SOL    HW242310   6.502   5.117   7.833 -1.2846 -2.4550 -1.1621
13833SOL     OW42311   0.896   6.313   1.777 -0.1014 -0.4448 -0.2098
13833SOL    HW142312   0.978   6.321   1.728 -0.0123  0.0882  0.0210
13833SOL    HW242313   0.922   6.274   1.860 -0.0373 -0.0261 -0.0303
13834SOL     OW42314   5.578   3.029   6.188  0.3508 -0.1347  0.0424
13834SOL    HW142315   5.599   3.083   6.112 -2.6982  0.1376 -0.6568
13834SOL    HW242316   5.578   3.090   6.261  1.8594 -0.1401  0.0746
13835SOL     OW42317   3.646   7.757   2.946  0.1457 -0.5104  0.1036
13835SOL    HW142318   3.572   7.728   2.999  0.4337  0.9847  1.3603
13835SOL    HW242319   3.630   7.851   2.933  1.6339 -0.2467  0.0951
13836SOL     OW42320   5.155   7.601   3.232 -0.3228 -0.1697  0.3010
13836SOL    HW142321   5.123   7.531   3.289  3.2782 -0.8224  1.6174
13836SOL    HW242322   5.213   7.557   3.170 -1.1542  1.1179 -1.4438
13837SOL     OW42323   0.178   1.340   5.393  0.8145 -0.3968 -0.3666
13837SOL    HW142324   0.265   1.322   5.357  0.1408  0.9229 -2.8107
13837SOL    HW242325   0.136   1.254   5.399  2.8487 -1.2442  2.4661
13838SOL     OW42326   3.075   1.766   0.152 -0.4366 -0.0449 -0.1438
13838SOL    HW142327   3.012   1.705   0.114 -0.2129 -1.2170  1.3065
13838SOL    HW242328   3.159   1.722   0.143 -0.0835  0.6788 -0.3725
13839SOL     OW42329   7.674   0.519   0.257 -0.2531  0.1782  0.4878
13839SOL    HW142330   7.719   0.567   0.325 -1.6239 -1.1142  2.3570
13839SOL    HW242331   7.714   0.432   0.258  1.0143  0.7003 -1.6668
13840SOL     OW42332   1.436   7.148   0.046 -0.1648  0.5668  0.1523
13840SOL    HW142333   1.386   7.166  -0.033 -1.9703 -5.1075 -0.2331
13840SOL    HW242334   1.383   7.184   0.118 -1.9687 -0.3421 -0.7071
13841SOL     OW42335   6.617   2.376   1.029  0.5785  0.1574 -0.5663
13841SOL    HW142336   6.668   2.455   1.012  0.1734  0.3330 -0.9693
13841SOL    HW242337   6.640   2.316   0.959 -1.3584  1.0126 -1.9880
13842SOL     OW42338   7.817   3.631   4.286  0.0365  0.1189 -0.2851
13842SOL    HW142339   7.796   3.712   4.240 -1.9530  0.9843  2.0503
13842SOL    HW242340   7.884   3.656   4.349  1.3605 -0.6510 -1.3638
13843SOL     OW42341   1.420   5.932   3.100  0.2660 -0.2814 -0.2172
13843SOL    HW142342   1.453   6.006   3.151 -1.2048  1.3969 -1.6139
13843SOL    HW242343   1.384   5.872   3.165  1.7071  0.0895  0.9625
13844SOL     OW42344   1.987   4.376   7.119  1.0188  0.1087 -0.2756
13844SOL    HW142345   1.905   4.351   7.078  0.5952 -0.5839  0.9749
13844SOL    HW242346   2.054   4.353   7.055  0.4134 -1.5149 -0.3481
13845SOL     OW42347   4.715   0.094   1.714 -0.1570 -0.5196  0.4659
13845SOL    HW142348   4.685   0.084   1.804  1.0448 -0.7763  0.8446
13845SOL    HW242349   4.776   0.021   1.701  1.0600  0.5676  0.0238
13846SOL     OW42350   7.561   1.667   1.189  0.2185  0.2253  0.8730
13846SOL    HW142351   7.535   1.752   1.224  1.1098  0.2935  1.3805
13846SOL    HW242352   7.652   1.656   1.217  0.9788  0.2898 -1.4217
13847SOL     OW42353   6.707   7.665   4.637  0.0245  0.0984  0.5084
13847SOL    HW142354   6.798   7.641   4.655 -0.0211 -0.4998 -0.0477
13847SOL    HW242355   6.658   7.632   4.712  0.0319 -1.1189 -0.0154
13848SOL     OW42356   1.063   1.530   7.474  0.1214  0.5172  0.2126
13848SOL    HW142357   1.156   1.553   7.481  0.6359 -0.8433 -1.6351
13848SOL    HW242358   1.049   1.517   7.380 -2.1673  1.5850  0.3837
13849SOL     OW42359   3.958   6.101   3.277  0.0061  0.5514  0.1738
13849SOL    HW142360   4.047   6.121   3.248  0.6043 -0.4985  1.2842
13849SOL    HW242361   3.941   6.013   3.244  0.0723  0.0072  1.5876
13850SOL     OW42362   0.224   4.779   1.040 -0.1606 -0.7324  0.1335
13850SOL    HW142363   0.193   4.767   0.950 -0.3909 -1.0074  0.2491
13850SOL    HW242364   0.159   4.836   1.080 -0.8233 -1.7617  0.5401
13851SOL     OW42365   4.943   2.714   6.271  0.1622 -0.2450 -0.4300
13851SOL    HW142366   5.020   2.663   6.243 -0.3552 -1.2784 -0.0174
13851SOL    HW242367   4.869   2.668   6.232 -0.3921 -0.4172  0.7808
13852SOL     OW42368   5.705   0.183   2.776  0.4906 -0.4537 -0.2636
13852SOL    HW142369   5.618   0.162   2.743  0.3721  0.2706 -0.4411
13852SOL    HW242370   5.714   0.277   2.759  0.9089 -0.3219  0.6711
13853SOL     OW42371   0.866   0.630   7.392  0.1432 -0.4062 -0.2479
13853SOL    HW142372   0.842   0.716   7.357  1.8261 -0.0081 -0.4456
13853SOL    HW242373   0.790   0.604   7.445  1.0154  2.7847  2.7530
13854SOL     OW42374   6.047   7.106   0.277 -0.5219  0.4147 -0.7136
13854SOL    HW142375   6.122   7.165   0.271 -0.5778  0.5201 -0.3726
13854SOL    HW242376   5.980   7.156   0.324 -1.2149  0.7376 -2.0134
13855SOL     OW42377   1.215   0.063   7.979  0.0998  0.0617 -0.2848
13855SOL    HW142378   1.182   0.136   7.927  0.4854  0.7336  0.4122
13855SOL    HW242379   1.168  -0.014   7.945 -2.5560  1.0561  1.0200
13856SOL     OW42380   4.109   3.087   5.920 -0.1673 -0.5478  0.5698
13856SOL    HW142381   4.160   3.133   5.854 -0.9044 -2.7653 -1.6060
13856SOL    HW242382   4.019   3.090   5.887 -0.9297  0.2687  2.6170
13857SOL     OW42383   0.264   7.933   4.282  0.1038 -0.0029  0.1630
13857SOL    HW142384   0.271   7.908   4.374  1.0908  1.0911  0.3956
13857SOL    HW242385   0.355   7.937   4.251 -0.1857  0.3691 -0.6528
13858SOL     OW42386   2.430   6.660   0.124  0.2959 -0.3499 -0.3960
13858SOL    HW142387   2.395   6.734   0.075 -0.9941 -0.8464 -0.2411
13858SOL    HW242388   2.503   6.697   0.174  0.0944  0.6736 -0.8417
13859SOL     OW42389   5.281   3.205   7.043  0.7801  0.4930  0.0594
13859SOL    HW142390   5.341   3.132   7.055  0.7356  0.2753 -0.9803
13859SOL    HW242391   5.218   3.174   6.979 -0.6684  0.5866  1.4092
13860SOL     OW42392   1.253   4.963   1.904  0.0675 -0.7010  0.2759
13860SOL    HW142393   1.328   4.987   1.959 -0.4894  0.0472  0.7189
13860SOL    HW242394   1.265   5.013   1.824 -0.0701 -0.4167  0.4321
13861SOL     OW42395   5.806   3.179   0.404 -0.4027  0.2875  0.1800
13861SOL    HW142396   5.745   3.159   0.333 -0.5218 -3.1561  1.1451
13861SOL    HW242397   5.760   3.240   0.460 -2.7323 -1.7042  0.5106
13862SOL     OW42398   0.687   7.820   0.070  0.1602 -0.6248 -0.1101
13862SOL    HW142399   0.608   7.847   0.023 -1.6816 -0.8897  2.6478
13862SOL    HW242400   0.711   7.897   0.122  1.7977 -0.5141 -1.0190
13863SOL     OW42401   6.596   4.290   3.113  0.3405  0.3712  0.0787
13863SOL    HW142402   6.607   4.377   3.075  1.9050 -0.1572 -0.7125
13863SOL    HW242403   6.683   4.264   3.141  0.0238 -1.2264 -0.3356
13864SOL     OW42404   6.685   0.604   6.673 -0.1385 -0.4497  0.2609
13864SOL    HW142405   6.600   0.585   6.713 -0.2966 -1.7082 -0.6301
13864SOL    HW242406   6.670   0.682   6.620 -0.6242 -0.4127  0.4505
13865SOL     OW42407   7.492   5.962   0.021 -0.8897 -0.4776 -0.2597
13865SOL    HW142408   7.534   6.041  -0.012  0.2574 -1.6878 -1.7975
13865SOL    HW242409   7.531   5.949   0.108  0.5749 -0.5403 -0.9033
13866SOL     OW42410   5.507   4.905   1.006 -0.6789 -0.0110  0.0988
13866SOL    HW142411   5.544   4.966   0.942 -1.1144 -0.3525 -0.4786
13866SOL    HW242412   5.544   4.933   1.090 -1.4959  1.5513 -0.0375
13867SOL     OW42413   4.704   5.096   2.280  0.2371  0.5360 -0.0332
13867SOL    HW142414   4.738   5.023   2.332  0.5223  1.2460  0.7812
13867SOL    HW242415   4.657   5.150   2.343 -0.9307  0.4738 -0.8367
13868SOL     OW42416   2.851   0.037   5.481  0.0946  0.4756  0.4950
13868SOL    HW142417   2.874   0.059   5.391  1.5540 -0.0261  0.7358
13868SOL    HW242418   2.913  -0.032   5.506 -2.2892 -1.6054  0.8514
13869SOL     OW42419   5.875   4.509   4.482  0.3266 -0.4218 -0.3027
13869SOL    HW142420   5.959   4.504   4.436  0.6447  0.1753  0.1915
13869SOL    HW242421   5.879   4.592   4.529 -0.8862  0.0088 -0.9306
13870SOL     OW42422   7.268   5.452   5.717 -0.1763 -0.1646 -0.1711
13870SOL    HW142423   7.295   5.510   5.646 -2.2628  0.4422 -0.4948
13870SOL    HW242424   7.350   5.429   5.761  0.8966  1.3600 -1.3040
13871SOL     OW42425   3.243   3.693   5.318  0.5194 -0.1969  0.2024
13871SOL    HW142426   3.181   3.718   5.387  0.9140 -0.5591  0.6896
13871SOL    HW242427   3.203   3.727   5.238 -0.1855 -0.2016  0.5416
13872SOL     OW42428   4.761   7.134   2.911 -0.1627  0.4069 -0.3854
13872SOL    HW142429   4.842   7.186   2.911  0.4233 -0.4991  0.1979
13872SOL    HW242430   4.774   7.070   2.980 -1.5205  0.4510 -0.0890
13873SOL     OW42431   0.184   5.890   7.526 -0.9665  0.5966 -0.2424
13873SOL    HW142432   0.211   5.977   7.498 -2.9170  1.7518  1.3342
13873SOL    HW242433   0.118   5.906   7.593 -2.3019 -2.1146 -0.8565
13874SOL     OW42434   6.589   7.286   1.897  0.5894  0.1236 -0.3354
13874SOL    HW142435   6.676   7.264   1.862 -0.2805 -0.7565 -2.0148
13874SOL    HW242436   6.607   7.325   1.982  2.5762 -1.2050 -0.0938
13875SOL     OW42437   5.991   2.763   1.966  0.3439  0.4912  0.0666
13875SOL    HW142438   5.906   2.804   1.983 -0.2880 -0.5036 -0.6251
13875SOL    HW242439   6.022   2.804   1.886  0.1256  0.2656 -0.1357
13876SOL     OW42440   5.480   7.083   7.815 -0.5222  0.2414  0.0659
13876SOL    HW142441   5.513   7.049   7.731 -1.4766  1.3911 -0.7866
13876SOL    HW242442   5.425   7.157   7.791 -0.1710  1.0703  1.7871
13877SOL     OW42443   0.498   1.547   6.942 -0.1436  0.4797 -0.2434
13877SOL    HW142444   0.470   1.626   6.896 -1.5429  0.2115  0.1242
13877SOL    HW242445   0.572   1.514   6.891  1.0693  2.5460  0.1407
13878SOL     OW42446   1.802   6.251   6.506  0.5489 -0.0772 -0.8515
13878SOL    HW142447   1.708   6.232   6.508  0.5512 -0.2224 -1.7581
13878SOL    HW242448   1.835   6.196   6.434  1.1691  0.6583 -1.1242
13879SOL     OW42449   2.269   7.379   7.544  0.2665  0.2272 -0.0198
13879SOL    HW142450   2.268   7.451   7.480  0.5690  1.5220  1.3969
13879SOL    HW242451   2.179   7.375   7.576 -0.0073 -0.7667 -0.8820
13880SOL     OW42452   4.398   6.764   2.539  0.0089  0.2242 -0.1517
13880SOL    HW142453   4.390   6.729   2.451  0.3681 -0.3425  0.0357
13880SOL    HW242454   4.466   6.830   2.533  0.8897 -0.6640 -0.0519
13881SOL     OW42455   6.915   2.440   3.298  0.0228 -0.2420  0.4742
13881SOL    HW142456   6.910   2.362   3.352 -0.4934 -0.0318  0.7307
13881SOL    HW242457   6.956   2.506   3.355 -1.3719  0.2482  0.9215
13882SOL     OW42458   6.700   7.392   3.328 -0.2822  0.2169 -0.1198
13882SOL    HW142459   6.708   7.406   3.234 -2.6231  0.6071 -0.2896
13882SOL    HW242460   6.725   7.475   3.367  0.0564  0.2573 -0.4201
13883SOL     OW42461   7.937   4.092   5.421 -0.2319 -0.4562 -0.2973
13883SOL    HW142462   7.852   4.049   5.415 -0.8819  0.5547  1.4062
13883SOL    HW242463   7.966   4.077   5.511  0.8002  0.2861 -0.4992
13884SOL     OW42464   3.897   6.904   2.452 -0.2531 -0.4018 -0.3311
13884SOL    HW142465   3.811   6.904   2.492  0.1036 -1.1343  0.4612
13884SOL    HW242466   3.881   6.905   2.357 -1.1187 -1.1220 -0.1836
13885SOL     OW42467   4.502   4.719   4.529 -0.0463  0.1797 -0.0572
13885SOL    HW142468   4.488   4.721   4.624 -3.5230  1.2397 -0.5086
13885SOL    HW242469   4.492   4.626   4.506  0.8295 -0.0856  0.6066
13886SOL     OW42470   4.569   5.921   5.513  0.3792  0.0243  0.8958
13886SOL    HW142471   4.648   5.876   5.543  0.3116 -0.3926  0.4652
13886SOL    HW242472   4.520   5.940   5.592  0.8074  0.0865  1.1480
13887SOL     OW42473   0.634   6.402   1.790 -0.0037 -0.6516  0.1154
13887SOL    HW142474   0.709   6.352   1.760 -0.3711  0.0648 -2.0739
13887SOL    HW242475   0.562   6.373   1.734 -0.5608  1.1845 -0.1571
13888SOL     OW42476   1.362   4.729   1.684 -0.5083 -0.7378  0.0386
13888SOL    HW142477   1.362   4.824   1.673  2.8487 -0.7082 -0.0507
13888SOL    HW242478   1.307   4.697   1.612 -1.7640  1.1049  0.1334
13889SOL     OW42479   0.870   7.146   6.178 -0.2972 -0.0342  0.4288
13889SOL    HW142480   0.957   7.110   6.159 -0.3245 -0.5765  1.3002
13889SOL    HW242481   0.881   7.240   6.169 -0.7484 -0.3346 -4.0005
13890SOL     OW42482   6.168   1.429   3.212 -0.0398 -0.5845  0.4881
13890SOL    HW142483   6.091   1.473   3.176  1.0790  2.1733  1.3992
13890SOL    HW242484   6.196   1.370   3.141 -2.2297 -0.7260 -0.3103
13891SOL     OW42485   3.178   3.220   5.075  0.2434 -0.1910  0.0045
13891SOL    HW142486   3.091   3.197   5.042 -0.8010  1.4940  1.4605
13891SOL    HW242487   3.181   3.182   5.163  0.2110  1.3876  0.7084
13892SOL     OW42488   1.790   6.141   5.794  0.2305  0.1396 -0.0137
13892SOL    HW142489   1.839   6.070   5.836 -0.3188 -0.4868 -0.4082
13892SOL    HW242490   1.837   6.157   5.712  0.0197 -0.1779 -0.1994
13893SOL     OW42491   3.603   6.137   3.540  0.0685  0.4116 -0.0549
13893SOL    HW142492   3.554   6.218   3.555  0.9477  1.4879 -2.6143
13893SOL    HW242493   3.681   6.166   3.491 -0.2764 -2.1447 -2.2051
13894SOL     OW42494   7.246   1.372   7.117 -0.6235  0.4646 -0.7623
13894SOL    HW142495   7.302   1.326   7.054  0.8353  0.0698  0.7794
13894SOL    HW242496   7.211   1.302   7.172 -3.4544  0.6075 -2.2912
13895SOL     OW42497   3.472   0.174   6.880 -0.3000 -0.0255  0.9577
13895SOL    HW142498   3.523   0.132   6.949  1.2973 -0.2601 -0.3277
13895SOL    HW242499   3.387   0.130   6.883  0.5291 -1.6438  1.2617
13896SOL     OW42500   2.940   0.985   5.926 -0.3449 -0.1045 -0.1395
13896SOL    HW142501   2.909   0.950   6.010  0.4358  0.8073  0.5454
13896SOL    HW242502   2.962   0.908   5.874  0.9664 -0.6444  1.1972
13897SOL     OW42503   6.778   7.613   7.943 -0.0177  0.0149 -0.0256
13897SOL    HW142504   6.712   7.566   7.892 -0.2675  0.1426  0.1796
13897SOL    HW242505   6.851   7.625   7.882  0.0307 -0.5958 -0.0956
13898SOL     OW42506   0.379   5.233   1.753  0.5605  0.2791 -0.2479
13898SOL    HW142507   0.295   5.210   1.792  1.9290 -3.2421  0.8170
13898SOL    HW242508   0.403   5.316   1.795 -1.3217  0.1993  1.0732
13899SOL     OW42509   4.452   5.020   3.676 -0.2382  0.1570 -0.2193
13899SOL    HW142510   4.485   4.941   3.718  0.1513  0.0969 -0.6290
13899SOL    HW242511   4.524   5.083   3.684 -0.9999  0.8637  1.1766
13900SOL     OW42512   7.735   3.231   7.640 -0.2139 -0.6451  0.7275
13900SOL    HW142513   7.805   3.291   7.615 -0.5802  0.1445  1.5678
13900SOL    HW242514   7.779   3.158   7.684  0.0756 -0.1337  1.2841
13901SOL     OW42515   0.820   7.661   0.959 -0.0587 -0.3271  0.0410
13901SOL    HW142516   0.895   7.673   1.017 -0.2641 -2.6340  0.8466
13901SOL    HW242517   0.746   7.645   1.018 -0.6077 -0.9310 -0.8015
13902SOL     OW42518   0.425   2.443   3.120  0.5897 -0.0277  0.3517
13902SOL    HW142519   0.339   2.484   3.122  0.0993 -0.9197 -1.3354
13902SOL    HW242520   0.485   2.512   3.150 -0.7367  0.4904  1.8549
13903SOL     OW42521   7.642   0.776   7.759 -0.4913  1.0853 -0.0346
13903SOL    HW142522   7.593   0.757   7.678 -2.1293  0.3958  1.0917
13903SOL    HW242523   7.664   0.690   7.794  0.3192  1.3896  0.1929
13904SOL     OW42524   0.225   4.528   4.640  0.0357  0.2589 -0.7196
13904SOL    HW142525   0.269   4.547   4.723  0.1738 -1.3332 -0.4096
13904SOL    HW242526   0.136   4.503   4.666  0.1838 -0.5920 -1.0145
13905SOL     OW42527   5.458   0.003   3.424  0.2183 -0.4499  0.0514
13905SOL    HW142528   5.523  -0.048   3.376  0.0078 -1.3878  0.7378
13905SOL    HW242529   5.376  -0.044   3.410 -0.4676  1.1647 -1.4557
13906SOL     OW42530   0.025   3.539   3.680 -0.2388  0.2424 -0.0694
13906SOL    HW142531   0.024   3.537   3.584  0.8463 -1.0494 -0.0649
13906SOL    HW242532   0.109   3.578   3.703  0.1374 -0.7867  0.3548
13907SOL     OW42533   7.247   7.336   7.471  0.3706  0.1555 -0.0751
13907SOL    HW142534   7.204   7.336   7.386  0.5389  0.6586 -0.1584
13907SOL    HW242535   7.301   7.256   7.470 -1.3565 -1.0388  0.4464
13908SOL     OW42536   6.927   2.410   4.674 -0.9263 -0.3432  0.2814
13908SOL    HW142537   6.848   2.432   4.625 -0.6461  1.3431  0.5452
13908SOL    HW242538   6.906   2.329   4.719 -1.9738 -0.7122 -0.8585
13909SOL     OW42539   2.866   3.996   2.257  0.0328  0.4836 -0.0870
13909SOL    HW142540   2.876   3.977   2.164 -0.9260 -0.5126  0.0026
13909SOL    HW242541   2.774   3.975   2.276 -0.1493  1.9957  0.7806
13910SOL     OW42542   6.953   1.500   4.426 -0.2371 -0.1851 -0.2654
13910SOL    HW142543   7.033   1.551   4.440 -0.0825  0.3690 -2.8743
13910SOL    HW242544   6.958   1.429   4.489  0.4097  2.0423  2.2715
13911SOL     OW42545   2.422   0.183   6.135 -0.2133 -0.5095 -0.1844
13911SOL    HW142546   2.377   0.141   6.061 -0.5883  0.5814 -0.5841
13911SOL    HW242547   2.353   0.197   6.200 -0.2653  0.2946 -0.4112
13912SOL     OW42548   6.651   0.959   2.006  0.6040 -0.1677  0.4455
13912SOL    HW142549   6.711   0.895   2.044 -0.2186 -1.1182  0.1373
13912SOL    HW242550   6.574   0.957   2.063  0.8798  1.1067  0.8850
13913SOL     OW42551   2.130   1.076   6.565 -0.1703  0.7219 -0.1345
13913SOL    HW142552   2.174   0.991   6.569 -0.5638  0.5147 -0.1729
13913SOL    HW242553   2.169   1.127   6.636 -0.9255  0.0290  0.7952
13914SOL     OW42554   1.553   4.892   4.452 -0.0560  0.2414  0.0287
13914SOL    HW142555   1.555   4.987   4.464 -0.9627  0.1564  0.9573
13914SOL    HW242556   1.461   4.868   4.466  0.0733 -0.7115 -0.7037
13915SOL     OW42557   5.761   1.369   0.315 -0.5239 -0.2331  0.4076
13915SOL    HW142558   5.793   1.458   0.330  0.6705  0.3150 -4.6969
13915SOL    HW242559   5.683   1.379   0.260 -1.5548 -2.2863  1.4107
13916SOL     OW42560   6.861   5.836   2.008  0.4487  0.4162 -0.5676
13916SOL    HW142561   6.885   5.779   2.081 -2.6829 -0.5643 -0.2032
13916SOL    HW242562   6.912   5.803   1.934  2.3596  0.3250  0.7595
13917SOL     OW42563   6.440   7.505   0.142 -0.2538  0.0927  0.5252
13917SOL    HW142564   6.364   7.449   0.127  0.7843 -1.2760  0.2486
13917SOL    HW242565   6.468   7.484   0.231  0.2577  0.0257  0.3483
13918SOL     OW42566   3.640   0.734   4.751 -0.0538  0.3174 -0.0505
13918SOL    HW142567   3.571   0.672   4.774  0.5859  0.1891  1.6159
13918SOL    HW242568   3.595   0.818   4.743 -0.5272  0.1091  0.3531
13919SOL     OW42569   7.035   1.777   7.596 -0.0958  0.3871  0.2498
13919SOL    HW142570   6.945   1.756   7.620 -0.5366 -0.3595 -1.9733
13919SOL    HW242571   7.089   1.717   7.648 -0.9547 -0.2282  0.4354
13920SOL     OW42572   7.243   0.383   3.408 -0.0675  0.4616 -0.3735
13920SOL    HW142573   7.188   0.308   3.384  1.0653 -0.5790  0.1993
13920SOL    HW242574   7.251   0.434   3.327  0.3922 -0.8437 -1.1698
13921SOL     OW42575   4.971   5.276   0.036  0.1968 -0.4841  0.3720
13921SOL    HW142576   4.975   5.344  -0.031 -1.5503 -1.2799 -0.5597
13921SOL    HW242577   5.062   5.248   0.047  0.9345  1.8761  0.6802
13922SOL     OW42578   0.239   7.450   5.327 -0.5499 -0.0844  0.1517
13922SOL    HW142579   0.202   7.414   5.408 -1.0437 -1.3057 -0.5993
13922SOL    HW242580   0.276   7.534   5.353 -2.8210  0.6620  1.1814
13923SOL     OW42581   0.775   5.925   1.324  0.6292 -0.3213  0.4538
13923SOL    HW142582   0.839   5.976   1.373 -0.7997  1.3384  0.6101
13923SOL    HW242583   0.782   5.837   1.361  0.8348  0.4817  2.3993
13924SOL     OW42584   6.591   5.488   3.701  0.3103  0.1235 -0.3826
13924SOL    HW142585   6.580   5.437   3.621 -0.6027 -0.9382  0.3794
13924SOL    HW242586   6.508   5.534   3.712 -0.9524 -2.5128  1.7853
13925SOL     OW42587   2.120   3.499   0.049 -0.9954 -0.2645 -0.1346
13925SOL    HW142588   2.173   3.500   0.129 -1.5246 -0.3041  0.2235
13925SOL    HW242589   2.144   3.418   0.005  1.2207  0.9887 -1.3388
13926SOL     OW42590   2.090   7.435   2.456 -0.4392 -0.3968  0.3834
13926SOL    HW142591   2.025   7.422   2.525  0.8480 -0.5033  1.6004
13926SOL    HW242592   2.132   7.350   2.447  0.0218 -0.1380  0.1039
13927SOL     OW42593   7.580   1.855   7.121  0.3841 -0.2388 -0.1121
13927SOL    HW142594   7.562   1.778   7.067 -1.1938  0.8227 -1.1608
13927SOL    HW242595   7.535   1.837   7.203  0.6174 -0.7439 -0.0952
13928SOL     OW42596   5.409   3.996   2.852  0.0472 -0.1258  0.3238
13928SOL    HW142597   5.340   3.953   2.902  0.2644 -1.1098 -0.2140
13928SOL    HW242598   5.486   3.941   2.867  0.0446 -0.5869 -1.3158
13929SOL     OW42599   4.586   5.780   6.266 -0.0077  0.0291 -0.8093
13929SOL    HW142600   4.509   5.835   6.275 -0.1159 -0.0054 -1.4637
13929SOL    HW242601   4.578   5.715   6.336 -0.2477  0.4096 -0.4850
13930SOL     OW42602   3.160   6.025   3.986  0.2975  0.0971 -0.0454
13930SOL    HW142603   3.126   6.114   3.990 -0.3386 -0.1889  1.3036
13930SOL    HW242604   3.122   5.988   3.907  0.2954  0.9221 -0.4323
13931SOL     OW42605   6.408   1.639   3.057  0.5100 -0.3161  0.0772
13931SOL    HW142606   6.379   1.722   3.094 -0.7408 -1.4762  1.7753
13931SOL    HW242607   6.329   1.600   3.019  0.7646 -1.4059  0.6245
13932SOL     OW42608   5.928   2.630   1.610  0.1488 -0.4746  0.0535
13932SOL    HW142609   5.938   2.539   1.637 -1.1549 -0.5146  0.4460
13932SOL    HW242610   6.015   2.668   1.621  1.0389 -2.0226 -1.4779
13933SOL     OW42611   2.713   0.264   4.111  0.4240 -0.3183 -0.1198
13933SOL    HW142612   2.777   0.212   4.161  0.5490  0.4047  0.4802
13933SOL    HW242613   2.755   0.280   4.027  1.7681  1.6483  0.9030
13934SOL     OW42614   4.120   2.978   4.309  0.0758 -0.1577 -0.1793
13934SOL    HW142615   4.034   2.936   4.302  0.2605 -0.4440 -0.8036
13934SOL    HW242616   4.101   3.072   4.311 -0.3198 -0.2557  0.8004
13935SOL     OW42617   3.373   3.278   6.874  0.1134  0.0791  0.4899
13935SOL    HW142618   3.384   3.370   6.849 -0.2868 -0.0809 -0.2978
13935SOL    HW242619   3.279   3.268   6.888  0.1533 -0.2211  0.5464
13936SOL     OW42620   1.793   0.002   1.487 -0.0600 -0.6797  0.5531
13936SOL    HW142621   1.745  -0.080   1.474 -0.5955 -0.3318  0.3238
13936SOL    HW242622   1.880  -0.015   1.449 -0.9081 -0.3951 -1.6218
13937SOL     OW42623   6.272   0.505   1.214  0.3794  0.3083  0.6184
13937SOL    HW142624   6.215   0.582   1.224  0.0308 -0.1948  2.9206
13937SOL    HW242625   6.358   0.536   1.241  0.4704  0.1913  0.4588
13938SOL     OW42626   1.844   7.741   5.512  0.2783  0.4332  0.0932
13938SOL    HW142627   1.927   7.702   5.538  0.3198 -1.1141 -2.2334
13938SOL    HW242628   1.864   7.834   5.499  1.4683  0.2049  0.2969
13939SOL     OW42629   2.382   4.218   2.817  0.1957 -0.3475 -0.3646
13939SOL    HW142630   2.476   4.226   2.832  0.2094 -0.7081 -0.2590
13939SOL    HW242631   2.368   4.126   2.795  0.1342  0.1037 -2.2966
13940SOL     OW42632   2.539   2.710   4.014  0.2850  0.0281 -0.4327
13940SOL    HW142633   2.605   2.776   3.993  0.2856  0.0707 -0.2981
13940SOL    HW242634   2.551   2.642   3.948 -0.7566  0.8934 -1.5391
13941SOL     OW42635   5.822   6.439   3.765  0.5590 -0.6762  0.0582
13941SOL    HW142636   5.858   6.461   3.851 -1.1744 -0.6027  0.7758
13941SOL    HW242637   5.727   6.446   3.775  0.2943 -1.3709 -1.6671
13942SOL     OW42638   3.929   7.194   6.692 -0.8143  0.9520 -0.1850
13942SOL    HW142639   3.925   7.110   6.647 -3.0004  1.7796 -1.6308
13942SOL    HW242640   4.022   7.216   6.696  0.0650 -2.8108  2.7012
13943SOL     OW42641   0.209   4.853   2.694  0.8038  0.0924  0.9083
13943SOL    HW142642   0.162   4.803   2.761  2.3447 -4.0086 -0.8655
13943SOL    HW242643   0.269   4.909   2.743 -1.2561  0.4651  3.0309
13944SOL     OW42644   1.051   3.866   5.071  0.4056 -0.0436  0.2831
13944SOL    HW142645   1.095   3.854   5.156  1.0632  1.5091  0.1745
13944SOL    HW242646   1.108   3.925   5.023 -0.7147  0.2537 -0.6941
13945SOL     OW42647   5.880   7.683   4.813  0.2523 -0.6391  0.4240
13945SOL    HW142648   5.963   7.729   4.830  0.1504 -0.4782  0.4966
13945SOL    HW242649   5.877   7.614   4.880  0.2245 -0.5034  0.5648
13946SOL     OW42650   1.128   3.661   6.076 -0.2735 -0.3750 -0.2970
13946SOL    HW142651   1.170   3.578   6.101  0.7067 -0.0356 -0.7786
13946SOL    HW242652   1.036   3.638   6.062 -0.0477 -1.3478 -0.2482
13947SOL     OW42653   7.929   5.031   7.825 -0.2158  0.9947 -0.4639
13947SOL    HW142654   7.873   4.991   7.759 -1.7948 -0.5152  1.7154
13947SOL    HW242655   7.867   5.073   7.885  1.1535  1.7739  0.4172
13948SOL     OW42656   1.607   3.784   7.831 -0.7088  0.8213 -0.4055
13948SOL    HW142657   1.559   3.757   7.752 -0.2182  0.0645 -0.4535
13948SOL    HW242658   1.629   3.701   7.874  0.2454  1.1849 -0.1999
13949SOL     OW42659   1.241   5.461   1.143 -0.2137  0.3903 -0.2328
13949SOL    HW142660   1.328   5.422   1.136 -0.4456  0.0301 -1.2200
13949SOL    HW242661   1.206   5.426   1.225  0.4624  0.3326  0.0385
13950SOL     OW42662   1.506   4.602   7.474  0.2830 -0.4681  0.2514
13950SOL    HW142663   1.442   4.631   7.539  1.3801  0.6730  0.8427
13950SOL    HW242664   1.531   4.514   7.503 -1.3749 -1.1277 -0.2711
13951SOL     OW42665   7.391   2.667   5.161 -0.2471 -0.5638 -0.1367
13951SOL    HW142666   7.461   2.643   5.221 -1.5782  1.6240  2.4067
13951SOL    HW242667   7.435   2.710   5.087  1.0466  1.5317  1.8093
13952SOL     OW42668   3.590   5.729   4.662  0.1744 -0.3462  0.0793
13952SOL    HW142669   3.557   5.653   4.710  0.1612 -1.3502 -1.4486
13952SOL    HW242670   3.516   5.788   4.656 -0.5789 -1.3664 -0.9279
13953SOL     OW42671   0.712   0.962   5.928  0.0791  0.1686 -0.5643
13953SOL    HW142672   0.683   0.999   5.845  0.3832  1.2360 -0.2063
13953SOL    HW242673   0.636   0.969   5.985 -0.2889 -1.0379 -0.8986
13954SOL     OW42674   4.760   6.843   4.101  0.4846  0.0143 -0.2730
13954SOL    HW142675   4.677   6.799   4.117  0.4607 -0.4876 -1.7865
13954SOL    HW242676   4.826   6.774   4.107  0.7530  0.3289  0.4544
13955SOL     OW42677   6.847   4.583   1.803  0.6828 -0.0757  0.1325
13955SOL    HW142678   6.790   4.509   1.781 -0.4275  0.2121  1.9478
13955SOL    HW242679   6.913   4.545   1.861  0.1996  0.3012  0.9417
13956SOL     OW42680   1.399   0.351   2.845  0.0392 -0.2708 -0.0446
13956SOL    HW142681   1.453   0.391   2.776  1.4540  0.5275  1.4852
13956SOL    HW242682   1.348   0.424   2.880 -2.0032 -1.0039 -1.4102
13957SOL     OW42683   6.568   6.543   6.019 -0.6108 -0.0805 -0.4289
13957SOL    HW142684   6.482   6.516   6.053 -0.8578  0.2534 -0.7878
13957SOL    HW242685   6.553   6.560   5.926 -0.2177  0.2648 -0.4314
13958SOL     OW42686   2.671   5.454   6.300  0.1748 -0.3152 -0.4276
13958SOL    HW142687   2.714   5.474   6.217  1.7755  1.1456  0.6958
13958SOL    HW242688   2.716   5.511   6.364 -1.6885 -0.6697  1.2459
13959SOL     OW42689   4.356   3.800   7.542  1.1758 -0.8368  0.2027
13959SOL    HW142690   4.397   3.791   7.628  1.2064  0.2207  0.3057
13959SOL    HW242691   4.280   3.856   7.557  0.6568 -1.4081 -0.2902
13960SOL     OW42692   0.432   4.390   3.119  0.4419  0.1245 -0.0801
13960SOL    HW142693   0.400   4.450   3.186 -0.5338  0.5309 -0.8990
13960SOL    HW242694   0.395   4.305   3.143  0.0824  0.2704 -0.1271
13961SOL     OW42695   6.469   7.079   1.774 -0.3069 -0.3249  0.2512
13961SOL    HW142696   6.384   7.114   1.751  1.0339  1.7524 -1.7246
13961SOL    HW242697   6.513   7.149   1.822  0.4102 -1.2901  1.0595
13962SOL     OW42698   2.152   4.336   2.679  0.4357 -0.2281  0.1741
13962SOL    HW142699   2.237   4.325   2.723  1.1306 -1.8046 -1.5081
13962SOL    HW242700   2.092   4.284   2.732  0.2970  1.6880  1.9395
13963SOL     OW42701   1.716   6.898   4.268  0.7246 -0.3193 -0.4957
13963SOL    HW142702   1.807   6.923   4.251  0.4238  1.0074 -0.1860
13963SOL    HW242703   1.716   6.866   4.358  0.9771 -0.8170 -0.6694
13964SOL     OW42704   5.627   1.655   4.220  0.3269 -0.0780  0.8785
13964SOL    HW142705   5.653   1.702   4.300  1.5084 -1.7377  1.5001
13964SOL    HW242706   5.638   1.563   4.242 -2.3030 -0.6908 -0.2043
13965SOL     OW42707   7.447   1.126   7.691 -0.6483  0.1121 -0.3204
13965SOL    HW142708   7.389   1.174   7.750  1.9004  1.2973  1.3094
13965SOL    HW242709   7.500   1.193   7.649 -0.1678 -0.9773 -1.4911
13966SOL     OW42710   3.649   3.815   4.990 -0.3047 -0.5789  0.3597
13966SOL    HW142711   3.706   3.851   5.058 -0.3401 -1.7835  1.0526
13966SOL    HW242712   3.691   3.732   4.966 -0.0792  0.0216 -1.3828
13967SOL     OW42713   0.288   1.173   2.079  0.4372 -0.1617 -0.2361
13967SOL    HW142714   0.225   1.145   2.012  2.3460 -1.4856 -1.5074
13967SOL    HW242715   0.369   1.189   2.032  1.4825  0.0752  1.5879
13968SOL     OW42716   3.793   3.464   5.464  0.3713 -0.1048 -0.9498
13968SOL    HW142717   3.796   3.527   5.392  2.0509  2.3643  1.1844
13968SOL    HW242718   3.723   3.496   5.521  2.1183  0.6745  0.8290
13969SOL     OW42719   6.666   7.340   2.160 -0.1712  0.7589  0.8268
13969SOL    HW142720   6.574   7.357   2.182 -0.4557 -0.1030  0.3319
13969SOL    HW242721   6.716   7.400   2.216 -0.9996  0.5385  1.8058
13970SOL     OW42722   6.269   1.049   0.438 -0.1193  0.7180  0.8345
13970SOL    HW142723   6.217   0.977   0.473 -0.6320  0.4235 -0.5148
13970SOL    HW242724   6.350   1.008   0.408  0.8365  1.1452  2.7411
13971SOL     OW42725   4.578   1.999   1.022 -0.0816  0.3160  0.4438
13971SOL    HW142726   4.508   2.034   1.077  2.1669  1.9069  2.4219
13971SOL    HW242727   4.603   2.072   0.966 -0.2644 -0.3826 -0.5710
13972SOL     OW42728   2.417   0.721   2.512  0.0230  0.1985  0.2415
13972SOL    HW142729   2.387   0.802   2.472  2.6562  1.5616  0.9092
13972SOL    HW242730   2.428   0.660   2.439  0.3126  1.2046 -0.5627
13973SOL     OW42731   5.840   6.976   6.203 -0.2194  0.4869 -0.1077
13973SOL    HW142732   5.763   6.936   6.163 -1.2855  1.3181  1.0845
13973SOL    HW242733   5.885   6.903   6.246 -0.6506  0.0931 -0.3253
13974SOL     OW42734   5.945   3.099   3.394 -0.2564 -0.3310 -0.5254
13974SOL    HW142735   5.896   3.176   3.421  1.9607  1.0335 -0.2842
13974SOL    HW242736   5.991   3.127   3.314  0.8447 -1.2552 -0.2369
13975SOL     OW42737   4.117   5.288   0.732 -0.2816  0.6583 -0.0787
13975SOL    HW142738   4.188   5.323   0.787  1.7802  1.1498 -2.8955
13975SOL    HW242739   4.049   5.355   0.735  0.0371  0.9468  1.3494
13976SOL     OW42740   0.577   4.078   5.096 -0.0578  0.0715 -0.3322
13976SOL    HW142741   0.562   4.095   5.189 -1.2772 -0.4414 -0.4195
13976SOL    HW242742   0.605   3.987   5.092 -2.5163 -0.7117 -0.6723
13977SOL     OW42743   7.666   5.996   5.817  0.1869  0.4653  0.2143
13977SOL    HW142744   7.661   6.061   5.746 -0.9978 -1.0826 -1.1472
13977SOL    HW242745   7.716   5.924   5.780 -0.7301 -0.5049  0.8471
13978SOL     OW42746   4.105   5.714   5.303 -0.3172  0.9176  0.0479
13978SOL    HW142747   4.177   5.656   5.276 -0.3469 -0.7343  3.2725
13978SOL    HW242748   4.030   5.683   5.252  0.3105 -0.0921 -0.2922
13979SOL     OW42749   4.609   2.891   3.378  0.1259  0.3758 -0.6325
13979SOL    HW142750   4.631   2.798   3.380  2.3847  0.8951  1.2920
13979SOL    HW242751   4.665   2.927   3.308 -1.4388  0.1503 -2.0214
13980SOL     OW42752   1.071   4.037   6.030 -0.1565 -0.7281  0.4644
13980SOL    HW142753   1.023   3.984   5.967 -2.2477  0.8906  0.6076
13980SOL    HW242754   1.047   4.127   6.009  4.1736  0.2961 -0.4722
13981SOL     OW42755   7.358   1.230   1.420 -0.3724  0.2212 -0.3868
13981SOL    HW142756   7.431   1.259   1.365 -0.3280  1.0990  0.1309
13981SOL    HW242757   7.305   1.308   1.433 -0.9584 -0.2271 -0.0564
13982SOL     OW42758   7.075   6.633   0.301 -0.0916  0.4577  0.1547
13982SOL    HW142759   6.993   6.679   0.281 -1.0281 -0.8278  0.9607
13982SOL    HW242760   7.121   6.690   0.362  0.0194  1.5808 -0.9532
13983SOL     OW42761   5.145   6.592   1.310 -0.3250 -0.3513 -0.3912
13983SOL    HW142762   5.148   6.564   1.402  0.9200 -0.0049 -0.3223
13983SOL    HW242763   5.232   6.573   1.276 -0.1993  1.2315 -0.9955
13984SOL     OW42764   6.714   7.471   1.037 -0.1863 -0.1095 -0.3382
13984SOL    HW142765   6.717   7.564   1.017 -0.0350 -0.0049  0.1784
13984SOL    HW242766   6.709   7.466   1.132  0.1159 -0.6312 -0.3430
13985SOL     OW42767   2.957   2.535   1.316  0.1214  0.2349 -0.1076
13985SOL    HW142768   2.913   2.496   1.240 -1.0795 -0.7113  1.0397
13985SOL    HW242769   2.976   2.624   1.289 -0.9286  0.1293 -1.2869
13986SOL     OW42770   6.468   5.939   6.291  0.1140  0.2004 -0.1480
13986SOL    HW142771   6.487   5.946   6.197 -1.0428  0.8504 -0.3343
13986SOL    HW242772   6.477   6.028   6.324 -1.5362  0.3329 -0.0403
13987SOL     OW42773   5.510   6.091   3.972  0.1772  0.4310  0.3157
13987SOL    HW142774   5.539   6.165   4.024 -0.6668  1.4677 -0.6490
13987SOL    HW242775   5.432   6.123   3.925  1.4340 -0.1465 -2.2863
13988SOL     OW42776   2.728   5.139   7.308 -0.3876 -0.3467 -0.6742
13988SOL    HW142777   2.672   5.148   7.385  1.1933  0.3894  0.4268
13988SOL    HW242778   2.700   5.209   7.249 -3.0575 -2.2366 -1.7446
13989SOL     OW42779   3.337   7.367   2.075  0.2855 -0.0153  0.0510
13989SOL    HW142780   3.287   7.427   2.130  0.8047 -0.0030  0.5153
13989SOL    HW242781   3.429   7.387   2.095  0.4763 -0.1318 -0.6863
13990SOL     OW42782   3.466   5.138   5.871  0.1288 -0.3276 -0.4876
13990SOL    HW142783   3.404   5.206   5.842 -0.7059 -0.8570  0.0114
13990SOL    HW242784   3.519   5.118   5.794 -1.2954 -0.8969 -1.3411
13991SOL     OW42785   1.547   2.783   6.626  0.0173  0.3714  0.3406
13991SOL    HW142786   1.555   2.698   6.582 -0.5785  0.6312 -0.2777
13991SOL    HW242787   1.564   2.764   6.719  2.7627  0.0668 -0.1949
13992SOL     OW42788   0.478   1.987   6.073  0.0453 -0.1710  0.0515
13992SOL    HW142789   0.508   1.946   6.154  0.6485 -1.3913 -0.7821
13992SOL    HW242790   0.446   1.915   6.020  1.3656  0.4018 -1.5445
13993SOL     OW42791   7.205   4.632   1.055  0.2625  0.1543 -0.5775
13993SOL    HW142792   7.111   4.622   1.071  0.3067 -2.5637 -1.6713
13993SOL    HW242793   7.211   4.657   0.963  0.5434  2.3229  0.0204
13994SOL     OW42794   6.506   5.130   4.689  0.3908  0.0871  0.1735
13994SOL    HW142795   6.537   5.068   4.622  0.6396 -0.1040  0.4642
13994SOL    HW242796   6.530   5.216   4.655  0.5146 -0.0091  0.0136
13995SOL     OW42797   4.307   1.175   3.639 -0.0107  0.2129  0.0068
13995SOL    HW142798   4.391   1.194   3.595 -0.1159  0.4392 -0.0986
13995SOL    HW242799   4.321   1.201   3.730 -0.0454  0.4785 -0.0645
13996SOL     OW42800   7.575   0.214   0.122 -0.0174  0.1857  0.2094
13996SOL    HW142801   7.654   0.237   0.172 -0.3255 -2.5771  2.1042
13996SOL    HW242802   7.606   0.159   0.051 -0.1207 -0.0999  0.3837
13997SOL     OW42803   0.607   7.162   7.722 -0.1521  0.0116 -0.0587
13997SOL    HW142804   0.681   7.161   7.663 -0.4026  0.2300 -0.3771
13997SOL    HW242805   0.532   7.187   7.668 -0.3770  0.2476  0.3554
13998SOL     OW42806   5.634   5.063   0.517 -0.5696  0.2909 -0.0074
13998SOL    HW142807   5.553   5.024   0.486 -0.1742 -1.0733  0.6198
13998SOL    HW242808   5.670   5.107   0.440 -1.0702 -0.5328 -0.7280
13999SOL     OW42809   5.361   5.530   0.611 -0.2586  0.1737  0.0095
13999SOL    HW142810   5.408   5.600   0.565 -1.5707  0.0143 -1.6198
13999SOL    HW242811   5.319   5.479   0.541 -0.5146 -1.3720  1.2684
14000SOL     OW42812   6.322   1.882   3.142  0.3139 -0.1382  0.1248
14000SOL    HW142813   6.384   1.947   3.111 -0.0303  0.5455  0.8658
14000SOL    HW242814   6.238   1.910   3.105 -0.1231  0.7542  1.7709
14001SOL     OW42815   3.122   2.955   6.977  0.7888  0.0745  0.0427
14001SOL    HW142816   3.153   3.008   7.050  2.8579  0.0975 -0.7860
14001SOL    HW242817   3.200   2.905   6.950 -0.4465 -1.3852 -0.8732
14002SOL     OW42818   1.650   4.748   1.296  0.2724  0.0719 -0.1585
14002SOL    HW142819   1.634   4.662   1.334 -0.1937  0.6908  1.0786
14002SOL    HW242820   1.659   4.732   1.202  2.2747 -1.6032  0.2761
14003SOL     OW42821   7.923   0.858   3.242  0.6124  0.5520  0.1502
14003SOL    HW142822   7.844   0.909   3.262  1.1805  0.9629  1.4193
14003SOL    HW242823   7.967   0.907   3.174 -1.1588 -0.6471 -1.9294
14004SOL     OW42824   0.254   4.630   6.304  0.9669  0.1104  0.5329
14004SOL    HW142825   0.311   4.579   6.362  0.4924 -0.2436  0.6846
14004SOL    HW242826   0.313   4.665   6.237  1.2397 -0.9014  0.2457
14005SOL     OW42827   4.326   1.927   4.960  0.2426 -0.5390  0.2917
14005SOL    HW142828   4.252   1.985   4.943  2.3147  1.7012 -1.5024
14005SOL    HW242829   4.339   1.879   4.878  1.5755  0.0448  0.1421
14006SOL     OW42830   7.251   4.908   4.085  0.1933 -0.5157 -0.0116
14006SOL    HW142831   7.334   4.941   4.118  0.1950  0.3488 -0.8421
14006SOL    HW242832   7.225   4.972   4.018 -1.6817 -0.1556  1.0289
14007SOL     OW42833   0.866   1.360   3.127  0.1676  0.3382 -0.4209
14007SOL    HW142834   0.918   1.438   3.149  2.5422 -1.2619 -0.1170
14007SOL    HW242835   0.891   1.339   3.037 -0.2941 -0.1865 -0.4276
14008SOL     OW42836   7.725   3.257   2.737  0.2250  0.3430  0.1803
14008SOL    HW142837   7.740   3.204   2.815 -1.8609 -0.3451  0.1267
14008SOL    HW242838   7.727   3.348   2.770 -0.1816  0.0788  0.9635
14009SOL     OW42839   5.145   6.487   0.822  0.2493  0.4170 -0.0830
14009SOL    HW142840   5.123   6.577   0.798  0.3711  0.1002 -1.3776
14009SOL    HW242841   5.232   6.493   0.862 -0.0586  0.9746  0.5071
14010SOL     OW42842   7.716   7.628   3.123 -0.2001  0.4033  0.4270
14010SOL    HW142843   7.759   7.543   3.129 -1.5154 -0.2224  1.4048
14010SOL    HW242844   7.755   7.670   3.046  0.3003 -1.1836 -0.2045
14011SOL     OW42845   3.060   2.044   0.115  0.4339 -0.2402 -0.1724
14011SOL    HW142846   3.070   1.953   0.141  0.7600 -0.7072 -1.9369
14011SOL    HW242847   2.969   2.053   0.090  0.3608 -0.0319  0.1585
14012SOL     OW42848   6.565   2.623   4.718 -0.0435  0.1588  0.4508
14012SOL    HW142849   6.525   2.708   4.701 -1.5043 -0.7541 -0.8438
14012SOL    HW242850   6.491   2.564   4.735  0.9081 -0.9630  0.8041
14013SOL     OW42851   2.787   0.821   5.399  0.3431 -0.4984  0.2997
14013SOL    HW142852   2.838   0.814   5.319 -0.9506 -0.2027 -0.5760
14013SOL    HW242853   2.740   0.905   5.390 -2.5440 -2.1009 -0.3041
14014SOL     OW42854   1.005   4.386   3.719  0.0392  0.4140 -0.1207
14014SOL    HW142855   1.016   4.291   3.711  1.6157  0.6520 -1.0167
14014SOL    HW242856   0.974   4.414   3.633 -1.6500  0.5681  0.5190
14015SOL     OW42857   2.127   0.003   5.409 -0.2607 -0.1984 -0.0566
14015SOL    HW142858   2.132  -0.074   5.353 -2.0817 -2.3671  2.6559
14015SOL    HW242859   2.034   0.023   5.414  0.0727  1.3373  0.4691
14016SOL     OW42860   6.476   5.962   4.184 -0.1511  0.2731 -0.5016
14016SOL    HW142861   6.425   6.029   4.230  0.4561  1.4305 -1.4863
14016SOL    HW242862   6.562   5.964   4.225  0.5335  1.6313 -1.9672
14017SOL     OW42863   6.536   3.716   1.299 -0.4792  0.4182 -0.6071
14017SOL    HW142864   6.596   3.789   1.315  0.2012 -0.3656  0.4845
14017SOL    HW242865   6.449   3.751   1.321 -0.3419  1.2937 -1.3852
14018SOL     OW42866   0.224   1.281   7.475  0.3157 -0.5272 -0.1677
14018SOL    HW142867   0.212   1.370   7.441  2.1576 -1.0484 -2.3045
14018SOL    HW242868   0.250   1.294   7.566  3.1545  1.2803 -1.1596
14019SOL     OW42869   5.804   2.037   1.129  0.1406  0.0181  0.8910
14019SOL    HW142870   5.757   2.119   1.141 -1.0228 -0.4511 -0.3280
14019SOL    HW242871   5.735   1.972   1.117  1.0755 -0.9711  0.8434
14020SOL     OW42872   0.832   5.014   6.803 -0.2095  0.3285 -0.3794
14020SOL    HW142873   0.903   4.970   6.755  0.0766  0.7259 -0.3204
14020SOL    HW242874   0.806   4.951   6.870  1.0196  0.7276  0.4787
14021SOL     OW42875   7.273   3.821   1.218 -0.4134 -0.2564  0.1215
14021SOL    HW142876   7.222   3.855   1.144 -0.8033 -2.0572 -0.4601
14021SOL    HW242877   7.363   3.818   1.184 -0.5615 -0.9010 -0.2129
14022SOL     OW42878   2.789   7.077   3.017 -0.9999  0.2753 -0.3995
14022SOL    HW142879   2.847   7.001   3.021 -0.9891  0.2277 -1.5139
14022SOL    HW242880   2.703   7.040   2.997 -1.4349  0.3463  1.2519
14023SOL     OW42881   7.937   5.488   5.094  0.7377  0.4593  0.2287
14023SOL    HW142882   7.846   5.488   5.122  0.2319  1.2812 -1.3267
14023SOL    HW242883   7.973   5.570   5.127  0.6680  0.5521  0.0729
14024SOL     OW42884   4.992   1.241   5.557 -0.2716  0.0913 -0.5325
14024SOL    HW142885   4.917   1.300   5.561 -0.3082  0.0115  0.1407
14024SOL    HW242886   4.997   1.213   5.466 -1.8339 -0.9066 -0.3249
14025SOL     OW42887   1.090   3.253   7.134 -0.5505 -0.1006 -0.6782
14025SOL    HW142888   1.002   3.276   7.162 -0.8366 -1.5042 -0.3712
14025SOL    HW242889   1.082   3.230   7.042  0.0860  2.8323 -1.5339
14026SOL     OW42890   1.177   0.372   2.479  0.2355  0.0199  0.4413
14026SOL    HW142891   1.217   0.302   2.531  1.8687  0.6157  0.0115
14026SOL    HW242892   1.171   0.336   2.390 -1.0385 -0.3965  0.6852
14027SOL     OW42893   4.993   4.154   6.774  0.3834  0.5769  0.0329
14027SOL    HW142894   5.056   4.218   6.806  1.3184 -0.1236 -0.3620
14027SOL    HW242895   4.998   4.082   6.837 -2.5991  1.9828  1.9665
14028SOL     OW42896   4.382   4.418   1.437 -0.3373  0.0291  0.1522
14028SOL    HW142897   4.463   4.452   1.401 -1.2299 -0.0543 -2.0187
14028SOL    HW242898   4.375   4.329   1.401 -2.1009  0.5656 -0.9028
14029SOL     OW42899   0.754   1.702   0.346 -0.3077  0.4134 -0.0585
14029SOL    HW142900   0.766   1.607   0.338  2.4090  0.6154  0.9892
14029SOL    HW242901   0.718   1.714   0.434  2.7763  0.5306  1.2700
14030SOL     OW42902   1.619   6.629   2.011  0.0332 -0.1296 -0.9416
14030SOL    HW142903   1.562   6.610   2.085 -0.1465  1.1387 -0.7559
14030SOL    HW242904   1.565   6.613   1.934 -0.0833 -0.4792 -0.7864
14031SOL     OW42905   3.662   7.548   6.185 -0.0580  0.0538 -0.8592
14031SOL    HW142906   3.630   7.636   6.163  0.0057  0.0268 -1.0646
14031SOL    HW242907   3.739   7.536   6.129  0.5235  0.2605 -0.1202
14032SOL     OW42908   5.085   5.946   2.771  0.0484 -0.5981 -0.0662
14032SOL    HW142909   5.150   5.980   2.709 -0.5184 -0.3927 -0.5561
14032SOL    HW242910   5.028   6.022   2.789 -1.1202 -1.2217 -1.0265
14033SOL     OW42911   6.517   0.642   2.424  0.1534 -0.3159  0.1317
14033SOL    HW142912   6.492   0.623   2.334  0.2937 -0.2503  0.0790
14033SOL    HW242913   6.608   0.671   2.418  0.4217 -1.1024  0.3848
14034SOL     OW42914   5.908   5.050   4.212 -0.0358  0.3821 -0.2518
14034SOL    HW142915   5.896   5.002   4.294 -1.8956  0.6700 -0.3178
14034SOL    HW242916   5.977   5.113   4.231  1.5844 -1.4816  0.2051
14035SOL     OW42917   2.115   2.276   3.565  0.1901 -0.1339  0.0498
14035SOL    HW142918   2.137   2.234   3.482  1.0467  0.7373 -0.1774
14035SOL    HW242919   2.035   2.232   3.594  0.3559 -1.0183 -0.8160
14036SOL     OW42920   4.799   5.441   0.333 -0.6551 -0.4320  0.5861
14036SOL    HW142921   4.783   5.357   0.289  1.7526 -0.8494  0.3865
14036SOL    HW242922   4.890   5.434   0.363 -1.3827  0.9691  3.1780
14037SOL     OW42923   2.749   0.546   2.330 -0.1497  0.3462 -0.1025
14037SOL    HW142924   2.818   0.510   2.387  0.8503  0.6804 -1.0764
14037SOL    HW242925   2.731   0.632   2.367  0.6513  0.6514 -0.4119
14038SOL     OW42926   0.797   7.495   3.085  0.5293  0.0126 -0.0102
14038SOL    HW142927   0.793   7.470   2.992  0.7049  2.2593 -0.6576
14038SOL    HW242928   0.707   7.483   3.117  0.2465  0.1520 -0.7386
14039SOL     OW42929   1.872   3.025   1.457  0.3881  0.2800  0.6789
14039SOL    HW142930   1.922   2.943   1.465  0.2905  0.3282  1.7570
14039SOL    HW242931   1.867   3.039   1.362  2.8858  0.5499  0.5349
14040SOL     OW42932   6.305   0.511   3.460  0.1475  0.1621 -0.4287
14040SOL    HW142933   6.320   0.605   3.449  0.4450  0.3980  1.6800
14040SOL    HW242934   6.276   0.502   3.551  0.9487 -1.8792 -0.3407
14041SOL     OW42935   2.642   1.882   6.079  0.2431  0.1393 -0.5237
14041SOL    HW142936   2.618   1.813   6.142  1.1777  1.9782  1.9550
14041SOL    HW242937   2.558   1.916   6.048 -0.2764  0.1672  0.8613
14042SOL     OW42938   5.042   4.392   1.838 -0.2963 -0.2654 -0.3009
14042SOL    HW142939   5.053   4.340   1.758 -1.8699 -0.1438 -0.6221
14042SOL    HW242940   4.969   4.350   1.884 -1.1264  1.2207 -0.2296
14043SOL     OW42941   7.377   3.532   3.203  0.0618  0.7731 -0.2863
14043SOL    HW142942   7.350   3.599   3.140  0.0295  0.0768 -1.0153
14043SOL    HW242943   7.295   3.504   3.244 -0.4086 -1.5667 -2.7234
14044SOL     OW42944   3.285   4.583   6.313  0.0310 -0.4058  0.1732
14044SOL    HW142945   3.274   4.671   6.349 -0.3253 -0.4079  0.0648
14044SOL    HW242946   3.203   4.538   6.333  0.2594 -0.7523  0.3353
14045SOL     OW42947   7.458   1.136   6.408  0.4304  0.5096  0.2700
14045SOL    HW142948   7.460   1.080   6.331  1.9609  1.7867 -0.6399
14045SOL    HW242949   7.524   1.099   6.466  1.6552  1.5312 -0.4578
14046SOL     OW42950   2.923   6.090   2.498 -0.1031  0.3522  0.2691
14046SOL    HW142951   2.879   6.047   2.425 -0.8420  0.4078  0.6811
14046SOL    HW242952   3.012   6.106   2.466 -0.0955 -0.6300 -0.2213
14047SOL     OW42953   4.289   5.937   6.586 -0.0169  0.3979 -0.0222
14047SOL    HW142954   4.196   5.934   6.607  0.1883 -1.9992  0.7007
14047SOL    HW242955   4.301   5.870   6.519  1.3516 -0.0116  0.6145
14048SOL     OW42956   7.520   4.683   3.147  0.8804  0.3831  0.3829
14048SOL    HW142957   7.596   4.690   3.204  0.5639 -0.5294  0.9377
14048SOL    HW242958   7.445   4.701   3.204  0.5854 -0.1899  0.1837
14049SOL     OW42959   4.195   6.304   1.855  0.2649 -0.1622  0.3444
14049SOL    HW142960   4.236   6.324   1.770 -2.3156 -2.4866 -1.5448
14049SOL    HW242961   4.256   6.245   1.898  0.5123 -0.9072 -0.9799
14050SOL     OW42962   6.667   7.584   2.328 -0.0126 -0.3582  0.0925
14050SOL    HW142963   6.725   7.640   2.380 -0.1674 -0.4087  0.3204
14050SOL    HW242964   6.619   7.645   2.272  0.7581 -0.3727 -0.5939
14051SOL     OW42965   0.263   5.537   2.791  0.3911  0.2624 -0.3355
14051SOL    HW142966   0.268   5.467   2.727 -0.8225 -0.6987  0.5802
14051SOL    HW242967   0.293   5.497   2.873 -1.6906  0.3435  0.5168
14052SOL     OW42968   7.868   3.369   5.990  0.4394 -0.1333  0.0332
14052SOL    HW142969   7.916   3.371   5.907  1.2815  3.4596  0.4951
14052SOL    HW242970   7.778   3.392   5.966 -0.2332 -3.0323 -0.3440
14053SOL     OW42971   2.847   4.813   3.802  0.6098 -0.1612  0.3876
14053SOL    HW142972   2.802   4.875   3.745  0.2217 -1.6942 -1.0417
14053SOL    HW242973   2.804   4.729   3.783  2.2439 -1.1550  1.0188
14054SOL     OW42974   4.827   0.772   6.097  0.2593  0.1915 -0.8504
14054SOL    HW142975   4.855   0.841   6.035 -0.3664  0.5860 -0.7002
14054SOL    HW242976   4.816   0.694   6.042  0.2779  0.3913 -1.1430
14055SOL     OW42977   4.678   0.776   5.561  0.5216 -0.3445  0.0726
14055SOL    HW142978   4.620   0.837   5.517 -1.4250 -1.6216  0.7819
14055SOL    HW242979   4.659   0.787   5.654  0.3862 -1.7620  0.2283
14056SOL     OW42980   5.774   4.264   5.940  0.4842  0.1869 -0.1758
14056SOL    HW142981   5.781   4.223   6.026  1.7610  1.1867  0.2170
14056SOL    HW242982   5.847   4.228   5.890  0.1205  0.0864 -0.6457
14057SOL     OW42983   6.470   0.413   6.128  0.1071 -0.0051 -0.1545
14057SOL    HW142984   6.467   0.366   6.045  0.4755 -0.0598 -0.1381
14057SOL    HW242985   6.539   0.478   6.116 -0.9118  1.0329 -0.4373
14058SOL     OW42986   5.526   7.458   2.904 -0.2037 -0.3854  0.0961
14058SOL    HW142987   5.599   7.461   2.966  0.2446  0.4716 -0.4611
14058SOL    HW242988   5.527   7.544   2.862  0.3521 -1.4217 -2.0646
14059SOL     OW42989   2.209   5.806   6.395 -0.1111 -1.1145 -0.3477
14059SOL    HW142990   2.244   5.811   6.484 -2.1657 -0.3826  0.4479
14059SOL    HW242991   2.274   5.754   6.347  1.8175 -0.1784  1.1615
14060SOL     OW42992   4.993   2.876   0.004 -0.1523  0.3390  0.3704
14060SOL    HW142993   4.940   2.915  -0.065  1.0149  2.6183  0.6882
14060SOL    HW242994   5.064   2.939   0.018  2.3801 -2.3521  0.2792
14061SOL     OW42995   3.596   5.425   6.805  0.1183  0.3759 -0.3369
14061SOL    HW142996   3.602   5.348   6.861  0.7855  0.8982  0.3292
14061SOL    HW242997   3.561   5.494   6.862  4.9088  2.0934  0.7402
14062SOL     OW42998   4.443   4.840   3.320  0.2393 -0.2441  0.3978
14062SOL    HW142999   4.537   4.827   3.312 -0.0913 -1.3849 -2.3440
14062SOL    HW243000   4.425   4.920   3.269 -0.1117  0.7002  1.9824
14063SOL     OW43001   2.374   7.549   2.017 -0.4217  0.7025  0.0498
14063SOL    HW143002   2.425   7.566   2.096 -0.2911 -0.7368  0.2900
14063SOL    HW243003   2.435   7.563   1.945  0.0583 -0.0970  0.2977
14064SOL     OW43004   0.063   5.698   6.567 -0.2963  0.2351 -0.1433
14064SOL    HW143005   0.104   5.757   6.504 -0.2369  0.2173 -0.1211
14064SOL    HW243006   0.112   5.616   6.559  0.0977  0.4260  0.3619
14065SOL     OW43007   2.421   1.508   3.331  0.1511 -0.6711 -0.2129
14065SOL    HW143008   2.493   1.453   3.363  0.8312 -0.8127 -1.9294
14065SOL    HW243009   2.453   1.543   3.248 -0.9464  0.9774  0.0446
14066SOL     OW43010   1.789   5.539   6.142  0.2564 -0.5432  0.2774
14066SOL    HW143011   1.735   5.596   6.087 -0.7144  0.9358  2.6752
14066SOL    HW243012   1.807   5.463   6.087  0.2143  1.3287 -2.4498
14067SOL     OW43013   6.186   0.917   3.103  0.5957  0.3973  0.2310
14067SOL    HW143014   6.113   0.959   3.147 -0.4239  0.4999 -1.5414
14067SOL    HW243015   6.251   0.986   3.093  0.6979  0.4602  1.2285
14068SOL     OW43016   2.904   4.608   4.284 -0.3535 -0.1173  0.6377
14068SOL    HW143017   2.855   4.538   4.327 -0.7363 -0.2208  0.0442
14068SOL    HW243018   2.930   4.667   4.355  0.4733 -1.1692  1.1988
14069SOL     OW43019   4.249   0.584   6.864  0.1697 -0.7419  0.8211
14069SOL    HW143020   4.235   0.491   6.843  0.8054 -0.8529  0.8828
14069SOL    HW243021   4.161   0.617   6.883 -0.1462 -1.1783  0.1714
14070SOL     OW43022   2.475   5.088   0.137  0.5221  0.0492  0.4221
14070SOL    HW143023   2.386   5.069   0.168  1.3660  0.1185  2.9466
14070SOL    HW243024   2.524   5.009   0.157  1.5407  0.8300  0.9911
14071SOL     OW43025   4.511   2.586   7.100  0.4695  0.0125  0.1381
14071SOL    HW143026   4.428   2.630   7.114  0.1250 -0.6648  0.2287
14071SOL    HW243027   4.529   2.541   7.182  0.5939 -0.3910 -0.1090
14072SOL     OW43028   5.541   5.558   5.973  0.6254  0.6046 -0.0713
14072SOL    HW143029   5.572   5.479   5.930 -0.0069  0.2554  0.1108
14072SOL    HW243030   5.500   5.609   5.904  1.5669  1.0523 -0.3076
14073SOL     OW43031   1.425   3.742   7.642  0.2715 -0.3536  1.1970
14073SOL    HW143032   1.353   3.692   7.602  0.2179 -0.8355  1.8848
14073SOL    HW243033   1.470   3.782   7.568 -2.2419  2.1047  0.9172
14074SOL     OW43034   4.358   5.544   2.604 -0.1125 -0.0869  0.2295
14074SOL    HW143035   4.358   5.452   2.628  0.6065 -0.3686 -0.7977
14074SOL    HW243036   4.283   5.581   2.650  0.6299 -0.7947  2.0640
14075SOL     OW43037   0.748   6.471   3.987 -0.5847 -0.1603  0.2950
14075SOL    HW143038   0.705   6.488   4.071  0.2398 -1.2489  0.9471
14075SOL    HW243039   0.820   6.412   4.008 -0.2492 -0.2907 -1.1539
14076SOL     OW43040   5.425   7.510   3.785  0.4040  0.3714  0.0788
14076SOL    HW143041   5.378   7.555   3.715  1.4139 -0.3636 -1.0894
14076SOL    HW243042   5.377   7.534   3.865 -0.2498  1.9010 -0.7453
14077SOL     OW43043   1.038   3.464   0.187  0.0766  0.8836  0.5315
14077SOL    HW143044   1.075   3.378   0.168 -0.5663  0.7262 -0.0242
14077SOL    HW243045   1.027   3.465   0.282  0.1009  0.3628  0.5374
14078SOL     OW43046   4.709   5.543   4.308  0.4153  0.0550 -0.1439
14078SOL    HW143047   4.789   5.514   4.263  0.1675  0.8878 -1.1329
14078SOL    HW243048   4.682   5.622   4.261 -0.7677  0.0101  0.4381
14079SOL     OW43049   3.864   1.263   4.268 -0.2277  0.4110  0.0741
14079SOL    HW143050   3.936   1.209   4.299 -1.7553 -1.4020  0.5802
14079SOL    HW243051   3.877   1.348   4.310  0.1965 -0.6741  2.1935
14080SOL     OW43052   3.991   5.057   7.243 -0.6684 -0.1737 -0.2135
14080SOL    HW143053   3.945   5.056   7.159  2.9206  0.0760 -2.3210
14080SOL    HW243054   4.034   4.971   7.247  0.9049  0.6066  0.2768
14081SOL     OW43055   5.897   1.568   4.496  0.4173 -0.3625 -0.5886
14081SOL    HW143056   5.841   1.644   4.484  0.0922 -0.4525  0.3613
14081SOL    HW243057   5.975   1.587   4.443  0.6101  0.9173  0.1325
14082SOL     OW43058   2.581   1.932   4.080 -0.2115  0.0684 -0.6782
14082SOL    HW143059   2.496   1.975   4.069 -0.6998 -1.1825 -2.0353
14082SOL    HW243060   2.636   1.968   4.011  0.6663  1.5619  0.7775
14083SOL     OW43061   5.894   0.118   3.839  0.4468 -0.7066  0.0403
14083SOL    HW143062   5.888   0.113   3.935  0.1158  1.3554  0.1377
14083SOL    HW243063   5.978   0.159   3.822  1.2253 -2.5121 -0.6300
14084SOL     OW43064   0.324   5.092   7.502 -0.2551  0.0554  0.0857
14084SOL    HW143065   0.318   5.095   7.597 -1.5653  0.3266  0.0046
14084SOL    HW243066   0.417   5.104   7.483  0.1336 -0.8932  1.3546
14085SOL     OW43067   2.412   7.858   5.069 -0.0436 -0.1649  0.4260
14085SOL    HW143068   2.379   7.813   5.147  0.5870 -0.1013  0.7311
14085SOL    HW243069   2.507   7.857   5.079  0.0329 -0.0593 -0.2904
14086SOL     OW43070   3.060   5.658   3.338 -0.0865  0.5704 -0.1843
14086SOL    HW143071   3.037   5.748   3.360  0.4373  0.9328 -1.1359
14086SOL    HW243072   3.124   5.632   3.405  1.0360  1.4621 -0.9185
14087SOL     OW43073   5.485   3.508   6.148 -0.1717 -0.1181  0.2639
14087SOL    HW143074   5.560   3.449   6.152  2.2369  2.8191 -0.0664
14087SOL    HW243075   5.425   3.467   6.085  1.9464 -1.6106 -0.8139
14088SOL     OW43076   3.557   5.551   2.269  0.1828 -0.0243 -0.3152
14088SOL    HW143077   3.518   5.477   2.223 -0.9115  1.3609 -1.6582
14088SOL    HW243078   3.610   5.511   2.338 -2.0494 -1.9912  0.3085
14089SOL     OW43079   4.873   2.852   6.653  0.1369 -0.5592 -0.2917
14089SOL    HW143080   4.788   2.855   6.698 -0.6305 -1.7037 -1.6371
14089SOL    HW243081   4.933   2.819   6.720 -0.8784 -1.6970  0.0817
14090SOL     OW43082   6.601   2.359   3.485  0.2090  0.5320  0.8266
14090SOL    HW143083   6.584   2.437   3.431  1.2398 -0.4500 -0.9567
14090SOL    HW243084   6.605   2.287   3.422 -0.6065 -0.9574  2.4561
14091SOL     OW43085   1.006   1.591   4.782 -0.7336 -0.0413  0.2660
14091SOL    HW143086   1.096   1.572   4.808 -0.7383  0.8962  0.9598
14091SOL    HW243087   0.964   1.505   4.780 -0.0727 -0.3855  0.8734
14092SOL     OW43088   1.973   4.613   5.372  0.3288 -0.0920  0.1275
14092SOL    HW143089   2.023   4.563   5.436 -0.0409  0.3241  0.7369
14092SOL    HW243090   2.012   4.589   5.288  0.6370 -0.8366  0.4821
14093SOL     OW43091   1.919   0.567   1.599 -0.6021 -0.5642  0.1359
14093SOL    HW143092   1.833   0.548   1.637  0.1888 -1.0103  1.7193
14093SOL    HW243093   1.976   0.584   1.674  0.2511  1.7256 -0.9715
14094SOL     OW43094   3.229   2.141   6.489 -0.5226 -0.0505 -0.0978
14094SOL    HW143095   3.259   2.212   6.546 -0.3644 -0.6593  0.5859
14094SOL    HW243096   3.264   2.163   6.403 -2.5571  2.0115 -0.4427
14095SOL     OW43097   1.686   3.378   1.885  0.9590  0.3280  0.2840
14095SOL    HW143098   1.692   3.443   1.955 -1.4404  1.1583 -0.2127
14095SOL    HW243099   1.656   3.428   1.809 -0.9881 -1.3377 -0.0972
14096SOL     OW43100   4.120   2.094   7.498  0.1499 -0.7046  0.1510
14096SOL    HW143101   4.050   2.097   7.563 -0.1374 -0.8962 -0.1443
14096SOL    HW243102   4.170   2.174   7.512 -0.6371 -0.1434 -0.1961
14097SOL     OW43103   6.263   2.667   4.187  0.2182 -0.0833  0.0870
14097SOL    HW143104   6.247   2.611   4.111 -1.6913 -0.9913  1.1221
14097SOL    HW243105   6.230   2.753   4.161 -1.9694 -0.7890  0.4467
14098SOL     OW43106   7.122   4.740   2.689  0.0327  0.3426  0.1485
14098SOL    HW143107   7.148   4.760   2.779  1.3874 -0.5063 -0.0498
14098SOL    HW243108   7.062   4.666   2.698 -0.8882  1.0986  0.4413
14099SOL     OW43109   6.582   1.192   1.904 -0.2134  0.1062 -0.1360
14099SOL    HW143110   6.613   1.101   1.911 -1.9541 -0.7374 -2.5989
14099SOL    HW243111   6.643   1.232   1.842 -0.3893  0.1744 -0.2639
14100SOL     OW43112   1.858   6.199   2.050 -0.4698  0.2000 -0.2704
14100SOL    HW143113   1.848   6.120   2.102 -1.3822  0.4079 -0.1124
14100SOL    HW243114   1.774   6.245   2.060 -0.5492  0.3829 -1.6928
14101SOL     OW43115   4.991   0.637   2.069  0.3100  0.2750 -0.3687
14101SOL    HW143116   4.996   0.543   2.057 -0.6605  0.1765 -0.0518
14101SOL    HW243117   4.920   0.650   2.132  1.7249  1.0999  1.1025
14102SOL     OW43118   6.436   3.972   6.158 -0.1247  0.6772  0.0005
14102SOL    HW143119   6.393   4.037   6.213  0.4372  0.8177  0.2772
14102SOL    HW243120   6.523   3.961   6.197 -0.6307 -1.1127  0.6697
14103SOL     OW43121   3.567   4.720   6.048 -0.4566  0.2969  0.5354
14103SOL    HW143122   3.527   4.763   5.973 -0.9370 -1.0390  0.0105
14103SOL    HW243123   3.542   4.628   6.039  1.5179 -0.3046  1.0116
14104SOL     OW43124   4.997   1.779   0.386 -0.6530 -0.2839 -0.4377
14104SOL    HW143125   5.010   1.839   0.460  1.5787 -1.5054  0.2019
14104SOL    HW243126   5.070   1.799   0.327  0.5057 -2.7897  0.0871
14105SOL     OW43127   6.009   5.433   1.734 -0.4318 -0.5319 -0.3963
14105SOL    HW143128   6.036   5.461   1.647  1.2328  0.9441  0.5736
14105SOL    HW243129   5.973   5.345   1.720  2.2988 -1.4377 -2.1758
14106SOL     OW43130   7.332   6.238   6.640  0.0568 -0.2529 -0.1056
14106SOL    HW143131   7.388   6.175   6.685  1.8237  1.2146 -0.1729
14106SOL    HW243132   7.245   6.223   6.675  0.8000 -1.4733  1.2454
14107SOL     OW43133   5.766   6.607   1.736  0.0792  0.3336 -0.1461
14107SOL    HW143134   5.752   6.674   1.803 -0.9510  1.4481 -1.4539
14107SOL    HW243135   5.860   6.591   1.737  0.4830  2.5922 -0.5771
14108SOL     OW43136   4.456   5.687   3.966  0.1376 -0.2543  0.1231
14108SOL    HW143137   4.409   5.604   3.957 -0.0865 -0.1782  0.5958
14108SOL    HW243138   4.388   5.754   3.963  0.2644 -0.1170  0.2805
14109SOL     OW43139   3.430   7.965   1.324  0.0883  0.2055 -0.3784
14109SOL    HW143140   3.414   7.984   1.417 -0.9230 -3.3037  0.2648
14109SOL    HW243141   3.349   7.991   1.280  0.4114  1.4866 -0.2234
14110SOL     OW43142   7.576   1.667   3.639  0.1506 -0.4057  0.6152
14110SOL    HW143143   7.610   1.681   3.550 -1.3559 -1.0746 -0.0918
14110SOL    HW243144   7.493   1.716   3.640 -0.6400 -1.7408  1.1159
14111SOL     OW43145   5.590   4.001   4.567  0.4167 -0.5561  0.1167
14111SOL    HW143146   5.601   3.908   4.589  0.6294 -0.7330 -0.7398
14111SOL    HW243147   5.517   4.002   4.506  1.9280 -0.4148 -1.7141
14112SOL     OW43148   6.652   7.159   1.473 -0.8634 -0.4614 -0.6677
14112SOL    HW143149   6.613   7.073   1.490 -0.5442 -0.2064  1.5209
14112SOL    HW243150   6.703   7.179   1.553 -0.3499  1.4313 -1.4314
14113SOL     OW43151   4.418   4.623   2.944  0.8853  0.2348  0.1969
14113SOL    HW143152   4.351   4.556   2.961 -0.7564  1.8418  0.2161
14113SOL    HW243153   4.436   4.614   2.850 -1.7621  1.9195 -0.5150
14114SOL     OW43154   4.933   7.267   4.023 -0.4030 -0.6571  0.0383
14114SOL    HW143155   4.842   7.259   3.994  0.3611 -0.7921 -2.3749
14114SOL    HW243156   4.979   7.303   3.948  2.0121 -2.8839  0.3995
14115SOL     OW43157   7.171   1.547   5.361 -0.5824  0.2107 -0.4295
14115SOL    HW143158   7.165   1.639   5.383 -0.1881  0.0409  0.3878
14115SOL    HW243159   7.198   1.504   5.442 -0.6289 -0.6044 -0.8377
14116SOL     OW43160   4.661   0.472   4.215 -0.0918  0.0543  0.3237
14116SOL    HW143161   4.624   0.552   4.176  1.2681  0.9488  0.8374
14116SOL    HW243162   4.701   0.502   4.297  0.4291 -1.1587  0.5198
14117SOL     OW43163   6.432   2.633   1.349 -0.2193  0.4644 -0.1391
14117SOL    HW143164   6.343   2.668   1.342 -0.8466 -1.1182 -0.4121
14117SOL    HW243165   6.465   2.634   1.259 -0.3100  0.1825 -0.1764
14118SOL     OW43166   3.391   2.199   5.791  0.1971 -0.3532  0.1325
14118SOL    HW143167   3.477   2.158   5.781  0.2803 -0.5625  1.6221
14118SOL    HW243168   3.369   2.186   5.883 -0.4984  1.5466  0.2447
14119SOL     OW43169   6.750   6.514   3.268 -0.0443 -0.1802  0.4268
14119SOL    HW143170   6.764   6.420   3.278 -0.0272 -0.2825 -0.5177
14119SOL    HW243171   6.826   6.555   3.309  1.2135 -0.6386 -1.4230
14120SOL     OW43172   1.491   5.263   3.740 -0.2423 -0.1358 -0.1874
14120SOL    HW143173   1.562   5.207   3.708 -0.9033 -1.2312  0.2266
14120SOL    HW243174   1.534   5.346   3.761  0.8347 -0.6207 -0.4100
14121SOL     OW43175   1.580   4.421   5.990 -0.2503  0.3907  0.3940
14121SOL    HW143176   1.530   4.477   6.049  2.2116  2.7016  0.4033
14121SOL    HW243177   1.615   4.482   5.925  2.6403 -1.1164  0.4845
14122SOL     OW43178   0.896   3.348   6.223  0.3404 -0.0302 -0.0442
14122SOL    HW143179   0.931   3.266   6.188  2.5029  1.1520 -0.7365
14122SOL    HW243180   0.946   3.364   6.302  0.2737  0.8697 -0.1736
14123SOL     OW43181   3.704   2.153   4.731  0.0395 -0.2153  0.2830
14123SOL    HW143182   3.639   2.133   4.798 -0.1193  0.7075  0.4146
14123SOL    HW243183   3.745   2.235   4.761  0.8434 -0.4732 -0.0997
14124SOL     OW43184   4.071   5.745   3.708 -0.1573  0.0937  0.4727
14124SOL    HW143185   4.000   5.799   3.673  0.1112 -0.6150 -1.1820
14124SOL    HW243186   4.151   5.782   3.670  0.1989 -0.2721  0.8552
14125SOL     OW43187   0.099   3.924   2.653  0.0292  0.3461  0.1661
14125SOL    HW143188   0.053   3.841   2.667  0.0725  0.6196  2.0780
14125SOL    HW243189   0.174   3.921   2.713  2.5375 -0.0676 -2.8846
14126SOL     OW43190   6.501   3.825   3.882 -0.0562 -0.1253  0.2401
14126SOL    HW143191   6.479   3.851   3.793  2.5603  1.4515  0.0113
14126SOL    HW243192   6.528   3.906   3.925  0.7176 -1.2111  1.8580
14127SOL     OW43193   1.076   6.827   7.301 -0.8451  0.3635  0.4714
14127SOL    HW143194   1.136   6.785   7.238 -1.3793 -0.0664  0.2498
14127SOL    HW243195   1.121   6.908   7.325 -0.5693  0.4754 -0.3748
14128SOL     OW43196   4.990   3.759   0.966  0.0741  0.1650 -0.0582
14128SOL    HW143197   5.016   3.845   0.999  0.1142  0.4872 -0.9127
14128SOL    HW243198   4.953   3.777   0.880  0.6693 -0.7556 -0.5102
14129SOL     OW43199   2.336   2.587   7.131 -0.2961  0.0702  0.1110
14129SOL    HW143200   2.398   2.654   7.158 -0.6399  0.4120  0.0528
14129SOL    HW243201   2.350   2.515   7.192 -0.8723  0.7221  1.0173
14130SOL     OW43202   6.627   4.753   7.712 -0.4643 -0.0502  0.1453
14130SOL    HW143203   6.593   4.802   7.787 -0.7288  0.0882 -0.0639
14130SOL    HW243204   6.700   4.702   7.748  1.3198  2.2477 -0.0850
14131SOL     OW43205   0.652   2.591   6.781 -0.2343 -0.2374  0.1046
14131SOL    HW143206   0.623   2.577   6.871  0.5644  3.0942  0.9495
14131SOL    HW243207   0.682   2.682   6.779  0.6937 -0.5381 -3.2887
14132SOL     OW43208   4.734   0.930   4.537  0.3414  0.3738 -0.2663
14132SOL    HW143209   4.749   0.983   4.615  0.2931 -1.6477  1.1691
14132SOL    HW243210   4.642   0.904   4.543 -0.1562  1.6346 -1.9442
14133SOL     OW43211   0.476   2.881   2.494  0.4195 -0.3132 -0.1307
14133SOL    HW143212   0.408   2.947   2.507  0.3940 -0.2932 -0.3635
14133SOL    HW243213   0.550   2.912   2.547  0.7908  0.4669 -1.0824
14134SOL     OW43214   1.699   1.017   3.062  0.1383 -0.4908 -0.1086
14134SOL    HW143215   1.737   1.071   3.132  0.4549 -0.1755 -0.5252
14134SOL    HW243216   1.689   1.077   2.988 -1.3577 -0.5239  0.0607
14135SOL     OW43217   3.037   6.436   7.326 -0.0477  0.4448  0.0874
14135SOL    HW143218   3.056   6.430   7.233 -0.3826  0.4015  0.0193
14135SOL    HW243219   2.961   6.494   7.332 -0.4005 -0.0246  0.2789
14136SOL     OW43220   0.740   3.529   2.931 -0.0718 -0.3896  0.0567
14136SOL    HW143221   0.658   3.548   2.978 -0.1637 -1.2271  0.2457
14136SOL    HW243222   0.715   3.463   2.867  0.5197 -0.8665  0.3172
14137SOL     OW43223   4.258   4.022   6.664  0.2777  0.1062  0.2602
14137SOL    HW143224   4.318   4.095   6.654  1.1063 -0.7136 -0.9975
14137SOL    HW243225   4.208   4.041   6.743  0.7369  1.8328  0.1384
14138SOL     OW43226   3.990   5.538   1.073  0.6104 -0.3342  0.5743
14138SOL    HW143227   4.031   5.592   1.141  3.0515 -0.0801 -1.0550
14138SOL    HW243228   3.991   5.594   0.995 -0.3230 -1.3726 -0.1929
14139SOL     OW43229   7.578   3.360   0.630 -0.0529  0.0960 -0.0105
14139SOL    HW143230   7.571   3.436   0.688  1.3499  1.1402 -1.1789
14139SOL    HW243231   7.665   3.324   0.648 -0.3761 -0.7387 -0.0811
14140SOL     OW43232   1.091   5.663   5.563 -0.0436  0.9260  0.0500
14140SOL    HW143233   1.004   5.703   5.556 -1.0196 -1.1512 -0.2704
14140SOL    HW243234   1.096   5.603   5.488  1.8762  1.3802 -0.2186
14141SOL     OW43235   1.019   4.245   6.639 -0.0063 -0.6625  0.1156
14141SOL    HW143236   1.023   4.194   6.558 -2.0668 -1.1958  0.3056
14141SOL    HW243237   0.995   4.333   6.611 -1.0380 -0.9227  0.1473
14142SOL     OW43238   1.242   6.218   7.208 -0.2193 -0.3218  0.6477
14142SOL    HW143239   1.251   6.311   7.231  1.6180 -0.1873 -0.5451
14142SOL    HW243240   1.147   6.203   7.207 -0.6490  2.1257 -1.3198
14143SOL     OW43241   6.827   7.133   0.134 -0.2527 -0.1865 -0.3385
14143SOL    HW143242   6.842   7.209   0.078 -0.5242 -0.4648 -0.7906
14143SOL    HW243243   6.732   7.121   0.135 -0.2827  0.0999  0.5588
14144SOL     OW43244   5.503   2.202   1.226  0.6001  0.2635  0.0802
14144SOL    HW143245   5.547   2.199   1.311  1.2174  0.6556 -0.2282
14144SOL    HW243246   5.524   2.288   1.191  0.1959  0.1689 -0.3937
14145SOL     OW43247   7.959   3.682   1.028 -0.0761  0.5341  0.0770
14145SOL    HW143248   8.009   3.638   1.096  0.4188 -0.2048 -0.7625
14145SOL    HW243249   7.934   3.766   1.068 -0.9746 -0.4578  1.6536
14146SOL     OW43250   1.610   0.042   4.281  0.4030  0.5007  0.4265
14146SOL    HW143251   1.612  -0.021   4.353  0.6002  0.8599  0.7389
14146SOL    HW243252   1.673   0.008   4.218 -1.2642 -0.9039 -0.5054
14147SOL     OW43253   1.848   2.909   7.107  0.3497 -0.3161  0.0598
14147SOL    HW143254   1.820   2.822   7.078 -0.9284  0.4858 -1.1641
14147SOL    HW243255   1.786   2.932   7.177  0.3439 -0.1678  0.0073
14148SOL     OW43256   3.602   5.488   2.531 -0.6915  0.4060 -0.2851
14148SOL    HW143257   3.530   5.433   2.561  0.7597 -0.3154  2.0093
14148SOL    HW243258   3.570   5.577   2.540 -0.5233  0.1985  3.0456
14149SOL     OW43259   3.913   6.658   4.626  0.0106  0.1120  0.2527
14149SOL    HW143260   3.912   6.672   4.531  1.0441  1.3864  0.4071
14149SOL    HW243261   3.831   6.613   4.645 -0.2663 -0.0332 -1.2352
14150SOL     OW43262   6.516   7.701   6.625  0.1356 -0.3851  0.4100
14150SOL    HW143263   6.508   7.630   6.688 -2.3061 -0.4529  0.0846
14150SOL    HW243264   6.555   7.773   6.675 -0.0452 -1.0338  1.5013
14151SOL     OW43265   0.087   1.054   1.933 -0.3759 -0.1436  0.1834
14151SOL    HW143266   0.058   1.076   1.845  1.6769 -2.7088 -1.2208
14151SOL    HW243267   0.022   0.991   1.965 -1.0417  0.6781  0.4593
14152SOL     OW43268   6.589   1.175   6.286  0.3147  0.0869 -0.1362
14152SOL    HW143269   6.507   1.225   6.290  0.8980  1.2670 -2.3343
14152SOL    HW243270   6.586   1.131   6.201  1.0864 -1.4441  0.6082
14153SOL     OW43271   5.187   1.639   7.592  0.3240  0.0067 -0.4470
14153SOL    HW143272   5.172   1.720   7.542  1.2089 -0.7580 -1.9911
14153SOL    HW243273   5.202   1.572   7.525 -0.4706 -1.4635  0.8157
14154SOL     OW43274   5.978   5.722   3.796  0.9138 -0.3643  0.4123
14154SOL    HW143275   5.884   5.704   3.800  0.9965 -0.5904  1.5241
14154SOL    HW243276   5.991   5.760   3.710 -0.1507 -0.6241  0.1234
14155SOL     OW43277   4.426   4.684   5.368  0.0398 -0.2015 -0.0090
14155SOL    HW143278   4.407   4.727   5.451 -1.3489 -1.0611  0.1266
14155SOL    HW243279   4.506   4.727   5.337 -0.1545  1.0209  1.1282
14156SOL     OW43280   0.694   6.022   5.755 -0.4140 -0.5003 -0.1658
14156SOL    HW143281   0.735   5.946   5.714 -1.2525 -0.2624 -1.4914
14156SOL    HW243282   0.738   6.097   5.714 -1.7084 -0.2537 -1.1294
14157SOL     OW43283   5.449   4.033   7.937 -0.4441 -0.8469  0.1221
14157SOL    HW143284   5.423   3.942   7.952 -1.2377 -0.9289 -1.5640
14157SOL    HW243285   5.502   4.029   7.857  0.5004  0.0170  0.7028
14158SOL     OW43286   3.103   5.635   1.495  0.0636  0.3436  0.0169
14158SOL    HW143287   3.086   5.668   1.406 -0.5519 -0.6463 -0.2417
14158SOL    HW243288   3.171   5.693   1.529  0.5769  0.5068 -1.2417
14159SOL     OW43289   0.786   0.404   4.050  0.3885 -0.6145  0.1914
14159SOL    HW143290   0.719   0.410   3.982  0.2304 -0.0223  0.3983
14159SOL    HW243291   0.791   0.492   4.087  2.1784 -0.2993 -0.6984
14160SOL     OW43292   7.196   3.625   1.372 -0.0599 -0.0120 -0.3093
14160SOL    HW143293   7.237   3.544   1.342 -0.3544 -0.1982 -0.2063
14160SOL    HW243294   7.231   3.693   1.313  0.9843 -0.0475  0.2614
14161SOL     OW43295   3.090   5.057   1.468  0.1592 -0.2201  0.0173
14161SOL    HW143296   3.016   5.097   1.422 -1.0572  0.5118  2.5481
14161SOL    HW243297   3.161   5.121   1.460 -0.2643  0.2261 -0.2029
14162SOL     OW43298   4.084   1.360   1.121 -0.2033 -0.6294 -0.0838
14162SOL    HW143299   4.102   1.272   1.087 -1.4752 -0.5313 -1.0688
14162SOL    HW243300   4.111   1.419   1.051 -1.7503 -0.3683 -0.4733
14163SOL     OW43301   7.656   7.639   4.214 -0.1222  0.1865 -0.8813
14163SOL    HW143302   7.680   7.623   4.122 -1.1639  1.5421 -1.3915
14163SOL    HW243303   7.570   7.680   4.210 -0.8323 -1.0922  0.7839
14164SOL     OW43304   5.581   5.177   7.363  0.1625  0.1228  0.3614
14164SOL    HW143305   5.567   5.237   7.436 -0.2069  0.3515  0.1026
14164SOL    HW243306   5.529   5.100   7.384 -0.8712  0.6579 -0.2223
14165SOL     OW43307   2.495   5.475   0.887  0.0381 -0.3330  0.1051
14165SOL    HW143308   2.518   5.395   0.840  0.4372 -0.9138  1.2606
14165SOL    HW243309   2.578   5.510   0.919 -0.2312 -0.0127  0.4726
14166SOL     OW43310   0.013   2.117   6.260  0.4150  0.1572 -0.4929
14166SOL    HW143311  -0.053   2.119   6.330  1.0229  2.7866  0.0500
14166SOL    HW243312   0.092   2.085   6.304  0.3287  0.0644 -0.4032
14167SOL     OW43313   1.662   4.279   1.697  0.0744 -0.0184  0.1891
14167SOL    HW143314   1.601   4.211   1.723 -1.2223  0.8015 -0.6538
14167SOL    HW243315   1.639   4.299   1.606  0.9605  0.9812  0.1705
14168SOL     OW43316   4.048   3.623   3.519 -0.2509 -0.0116 -0.0924
14168SOL    HW143317   4.033   3.681   3.593 -0.3256 -0.8344  0.5425
14168SOL    HW243318   4.076   3.681   3.448  2.6145  0.4923  1.3646
14169SOL     OW43319   5.542   6.798   3.801 -0.3779 -0.6852  0.2156
14169SOL    HW143320   5.468   6.858   3.805  0.7395  0.8109 -1.0884
14169SOL    HW243321   5.506   6.714   3.830 -2.5618  0.0198 -0.3597
14170SOL     OW43322   0.868   5.100   0.054 -0.0981 -0.3680  0.1134
14170SOL    HW143323   0.870   5.168   0.121 -0.5458 -0.7187  0.4921
14170SOL    HW243324   0.909   5.024   0.096  0.1349 -0.4179 -0.2035
14171SOL     OW43325   3.885   4.587   5.530  0.3626  0.3324  0.2322
14171SOL    HW143326   3.895   4.495   5.553  0.6961  0.3949  0.3485
14171SOL    HW243327   3.906   4.635   5.611  1.1355  0.5367 -0.0779
14172SOL     OW43328   5.565   1.865   1.395  0.4351 -0.0881  0.6313
14172SOL    HW143329   5.599   1.954   1.404  0.9893 -0.1799 -0.4369
14172SOL    HW243330   5.470   1.876   1.389  0.5864  0.5452 -0.7617
14173SOL     OW43331   5.607   7.411   5.729  0.3034  0.3534  0.3681
14173SOL    HW143332   5.633   7.502   5.711  2.1402  0.0035  1.0721
14173SOL    HW243333   5.689   7.369   5.756 -0.6176 -1.4172  0.4148
14174SOL     OW43334   5.718   4.191   2.802 -0.8088  0.0358  0.1640
14174SOL    HW143335   5.628   4.204   2.834 -0.8805  1.5303 -0.5919
14174SOL    HW243336   5.764   4.271   2.827 -0.1683  0.0634 -1.0818
14175SOL     OW43337   0.094   3.015   1.143  0.3214  0.9241  0.1321
14175SOL    HW143338   0.108   3.051   1.056 -0.6107 -0.3061 -0.5448
14175SOL    HW243339   0.002   3.035   1.163 -0.4936 -1.7939 -0.6410
14176SOL     OW43340   1.637   1.285   6.862  0.3858  0.1820  0.4910
14176SOL    HW143341   1.667   1.356   6.919 -0.7920 -0.9648  2.5901
14176SOL    HW243342   1.701   1.215   6.876  1.1972  0.5661 -1.1165
14177SOL     OW43343   1.338   1.876   2.908  0.3848  0.4179  0.1142
14177SOL    HW143344   1.330   1.793   2.954  0.1940 -0.5705 -1.6832
14177SOL    HW243345   1.255   1.921   2.924  0.5146  0.3114  1.1348
14178SOL     OW43346   2.764   5.322   1.140  0.1581  0.6503  0.0302
14178SOL    HW143347   2.763   5.409   1.181  1.9676  0.4043  0.6568
14178SOL    HW243348   2.794   5.339   1.050 -0.0531  0.7487 -0.0205
14179SOL     OW43349   5.231   6.275   6.926  0.3062 -0.2347 -0.0860
14179SOL    HW143350   5.277   6.242   6.848  0.8397 -0.0403  0.1408
14179SOL    HW243351   5.176   6.347   6.893  1.0387  0.2917 -0.1819
14180SOL     OW43352   4.738   3.122   5.110 -0.0808 -0.0322  0.5056
14180SOL    HW143353   4.755   3.030   5.128  0.2279  0.0884  0.8535
14180SOL    HW243354   4.823   3.158   5.083 -0.2616  0.0850  0.0894
14181SOL     OW43355   2.191   6.015   7.225  0.3601  0.0480 -0.0927
14181SOL    HW143356   2.214   6.046   7.312  2.9741 -1.1359 -0.3178
14181SOL    HW243357   2.218   6.085   7.166  2.0604 -0.6647 -0.2141
14182SOL     OW43358   0.576   4.271   6.275 -0.0012 -0.3556  0.1203
14182SOL    HW143359   0.665   4.272   6.240  0.0140 -1.9912  0.0650
14182SOL    HW243360   0.545   4.182   6.259 -1.2838 -0.0959  1.0732
14183SOL     OW43361   0.275   2.654   2.217  0.0412 -0.5065 -0.4424
14183SOL    HW143362   0.280   2.562   2.242  3.5551 -0.3855 -0.3268
14183SOL    HW243363   0.251   2.653   2.124  1.2042 -1.6332 -0.7442
14184SOL     OW43364   7.287   3.181   3.919 -0.0818  0.1416  0.1431
14184SOL    HW143365   7.307   3.136   4.001  0.8356  0.6773  0.2144
14184SOL    HW243366   7.362   3.164   3.863 -0.1442  0.8326 -0.1495
14185SOL     OW43367   6.965   4.115   7.785 -0.0848 -1.0963  0.4678
14185SOL    HW143368   6.970   4.024   7.814 -1.5388 -1.8399 -1.5192
14185SOL    HW243369   7.051   4.132   7.747  0.5500 -1.2871  1.7789
14186SOL     OW43370   3.630   7.062   3.264 -0.3693 -0.4298  0.4380
14186SOL    HW143371   3.577   7.042   3.187 -1.7590  1.7920  0.7499
14186SOL    HW243372   3.708   7.105   3.230 -1.0036  0.5900  0.2395
14187SOL     OW43373   4.189   6.678   0.216  0.2182 -0.4838  0.1116
14187SOL    HW143374   4.261   6.654   0.157  1.2090  0.3938  0.9221
14187SOL    HW243375   4.171   6.770   0.194  0.9439  0.0080  1.5013
14188SOL     OW43376   7.246   7.139   1.258 -0.5563  0.6134 -0.3615
14188SOL    HW143377   7.233   7.176   1.170 -2.4832  1.7914  0.3937
14188SOL    HW243378   7.185   7.065   1.262 -0.8177  0.8544  0.1458
14189SOL     OW43379   0.874   4.064   5.282  0.2587  0.3246 -0.0663
14189SOL    HW143380   0.854   3.974   5.307  0.8309 -0.2125 -1.5223
14189SOL    HW243381   0.924   4.099   5.356  0.6496 -0.7775  0.1936
14190SOL     OW43382   2.093   4.781   1.248 -0.0699  0.0655 -0.0136
14190SOL    HW143383   2.041   4.859   1.227  1.6875  1.2687  0.0056
14190SOL    HW243384   2.141   4.762   1.167 -0.2349 -0.8246  0.0857
14191SOL     OW43385   0.796   1.986   3.946 -0.6966 -0.0969  0.1926
14191SOL    HW143386   0.835   1.936   3.874  0.8269 -0.6599  1.3584
14191SOL    HW243387   0.801   2.077   3.919  2.5590 -0.0420  0.7546
14192SOL     OW43388   5.517   0.009   7.036  0.3824  0.4851 -0.6639
14192SOL    HW143389   5.459   0.008   6.960  0.6558  0.3367 -0.8713
14192SOL    HW243390   5.606   0.005   6.999  0.4791 -1.3630 -0.3002
14193SOL     OW43391   5.099   4.189   7.608  0.4836  0.1143  0.0323
14193SOL    HW143392   5.189   4.208   7.634  0.1308  3.0955 -0.8181
14193SOL    HW243393   5.049   4.267   7.631 -1.4742 -0.5988 -1.5700
14194SOL     OW43394   3.146   0.793   7.930  0.4282 -0.2805  0.4501
14194SOL    HW143395   3.050   0.798   7.932  0.3469 -0.2175 -1.8218
14194SOL    HW243396   3.170   0.839   7.850  2.3958 -0.0166  1.1748
14195SOL     OW43397   3.935   5.224   1.975  0.2917 -0.0183 -0.2192
14195SOL    HW143398   3.975   5.147   2.016  0.2585  0.0254 -0.1061
14195SOL    HW243399   3.841   5.211   1.987  0.2416 -0.3913 -0.9573
14196SOL     OW43400   6.237   1.756   2.273 -0.1964  0.4506  0.7262
14196SOL    HW143401   6.251   1.731   2.182  1.8367  2.2904  0.4794
14196SOL    HW243402   6.169   1.697   2.304  0.0407 -1.1156 -1.5865
14197SOL     OW43403   4.577   0.350   1.682 -0.1786 -0.0938  0.0548
14197SOL    HW143404   4.589   0.257   1.697  0.0788 -0.0578  0.0685
14197SOL    HW243405   4.651   0.376   1.627  0.6102  0.4116  1.3284
14198SOL     OW43406   0.057   5.757   4.198  0.0030 -0.0034 -0.1549
14198SOL    HW143407   0.061   5.809   4.278  0.2708  0.1575 -0.2728
14198SOL    HW243408  -0.032   5.721   4.198  0.7493 -1.9055  1.3924
14199SOL     OW43409   1.662   6.340   3.725 -0.9507 -0.0558  0.2477
14199SOL    HW143410   1.644   6.426   3.765 -0.7465 -0.5737  1.4826
14199SOL    HW243411   1.757   6.334   3.724 -0.9710 -0.5890  0.8873
14200SOL     OW43412   5.814   6.281   7.647  0.2056 -0.3474 -0.1460
14200SOL    HW143413   5.878   6.234   7.700 -0.2995  0.1703  0.9354
14200SOL    HW243414   5.805   6.366   7.690 -3.3715 -1.4431  1.4426
14201SOL     OW43415   5.736   1.610   1.794  0.3408  0.5194  0.1509
14201SOL    HW143416   5.785   1.638   1.716  0.6334 -0.2194  0.0621
14201SOL    HW243417   5.776   1.526   1.818  0.1535  0.6769  1.0123
14202SOL     OW43418   6.566   1.974   5.236 -0.1656 -0.1443  0.1439
14202SOL    HW143419   6.557   1.925   5.317 -0.4713 -1.5458 -0.7191
14202SOL    HW243420   6.477   1.988   5.205 -0.0867  0.9833  0.3733
14203SOL     OW43421   1.216   5.186   4.888  0.6406  0.0416 -0.0874
14203SOL    HW143422   1.134   5.189   4.938 -0.8817 -1.3127 -2.3879
14203SOL    HW243423   1.210   5.261   4.828  0.4815 -0.7744 -1.1115
14204SOL     OW43424   1.874   7.126   1.624 -0.2449  0.1391 -0.3956
14204SOL    HW143425   1.912   7.140   1.711 -0.1805  0.6133 -0.5011
14204SOL    HW243426   1.934   7.170   1.564 -0.5635  0.2460 -0.6351
14205SOL     OW43427   1.502   4.953   1.414 -0.3892  0.5823  0.1000
14205SOL    HW143428   1.543   4.875   1.378  0.2233  0.1545  1.6879
14205SOL    HW243429   1.410   4.947   1.387 -0.7254 -1.5560  1.6306
14206SOL     OW43430   3.974   4.665   6.793 -0.1508  0.0954  0.2629
14206SOL    HW143431   3.997   4.573   6.782  0.5334  0.4348 -1.4147
14206SOL    HW243432   3.974   4.680   6.887  1.8454 -1.1043  0.4822
14207SOL     OW43433   3.070   6.885   7.823 -0.2269 -0.1946  0.5207
14207SOL    HW143434   3.135   6.828   7.863 -0.3664 -1.0447 -0.4414
14207SOL    HW243435   3.120   6.961   7.794 -0.2131  0.6720  2.7588
14208SOL     OW43436   1.266   1.420   5.444 -0.1320  0.8871 -0.1202
14208SOL    HW143437   1.213   1.410   5.365  0.4638  1.0691 -0.5483
14208SOL    HW243438   1.355   1.435   5.412  0.3562 -0.3758  0.6007
14209SOL     OW43439   4.688   3.547   2.479 -0.0150 -0.4074 -0.3731
14209SOL    HW143440   4.627   3.476   2.456 -0.4370  0.0800 -0.7721
14209SOL    HW243441   4.647   3.625   2.443  0.0250  0.1623  0.8100
14210SOL     OW43442   3.102   6.097   6.977 -0.4493  0.1278  0.1707
14210SOL    HW143443   3.161   6.085   7.052 -1.8570  0.2510  1.3309
14210SOL    HW243444   3.041   6.165   7.006 -0.2460  1.0747 -1.5866
14211SOL     OW43445   7.356   5.112   4.832 -0.5427 -0.0302  0.1039
14211SOL    HW143446   7.397   5.041   4.783 -1.9447 -0.1413 -0.9458
14211SOL    HW243447   7.262   5.094   4.827 -0.8081  0.9236  1.3448
14212SOL     OW43448   2.752   0.267   5.792  0.0394 -0.1293  0.2868
14212SOL    HW143449   2.690   0.240   5.724  0.4165 -0.4308  0.0562
14212SOL    HW243450   2.728   0.357   5.812  0.9119  0.5135 -1.3957
14213SOL     OW43451   1.135   1.221   0.637 -0.0181  0.5716  0.2610
14213SOL    HW143452   1.041   1.203   0.639 -0.0240  0.5042 -0.7271
14213SOL    HW243453   1.143   1.315   0.654 -0.2940  0.6973 -0.3249
14214SOL     OW43454   1.699   7.869   7.922  0.1586  0.7442  0.3506
14214SOL    HW143455   1.656   7.792   7.883  0.7521  0.9132 -0.6737
14214SOL    HW243456   1.782   7.876   7.874  0.7514  1.1667  1.4418
14215SOL     OW43457   3.650   5.003   1.001 -0.1256  0.2541  0.3294
14215SOL    HW143458   3.576   5.045   1.045  0.7438  0.6026  1.4747
14215SOL    HW243459   3.624   4.911   0.992 -0.4648  0.2570  1.2491
14216SOL     OW43460   3.469   2.177   6.896 -0.4153  0.0475  0.1955
14216SOL    HW143461   3.422   2.214   6.971 -0.1619 -0.7143  0.7395
14216SOL    HW243462   3.420   2.097   6.875  0.8597 -0.9624  1.0145
14217SOL     OW43463   2.907   7.181   7.406 -0.2467 -0.2972  0.5745
14217SOL    HW143464   2.885   7.226   7.488  0.5891 -2.1172  1.8271
14217SOL    HW243465   2.835   7.203   7.346 -1.5590 -0.0531  2.2141
14218SOL     OW43466   2.207   3.425   1.426  0.3048 -0.1485 -0.2501
14218SOL    HW143467   2.171   3.484   1.360 -1.1242  0.5199  1.0959
14218SOL    HW243468   2.179   3.462   1.509  2.2984 -0.8514  0.7492
14219SOL     OW43469   4.596   2.625   1.530  0.0670 -0.1624 -0.1904
14219SOL    HW143470   4.676   2.638   1.479  1.4882 -1.2959  1.6807
14219SOL    HW243471   4.618   2.659   1.617 -1.6359 -0.0885  0.2196
14220SOL     OW43472   5.303   3.625   3.859  0.7153 -0.4434 -0.9130
14220SOL    HW143473   5.330   3.534   3.874  1.0403 -0.1270  0.4575
14220SOL    HW243474   5.212   3.628   3.889  0.5739 -0.4101 -1.3406
14221SOL     OW43475   5.349   3.063   6.696  0.3148 -0.3343  0.2048
14221SOL    HW143476   5.375   3.155   6.701 -0.9436  0.1401 -1.4810
14221SOL    HW243477   5.299   3.049   6.777  0.7516  0.3762  0.6075
14222SOL     OW43478   0.421   0.239   5.322 -0.3399 -0.0305 -0.0812
14222SOL    HW143479   0.338   0.199   5.298 -0.9067  0.0494  1.6329
14222SOL    HW243480   0.444   0.196   5.405  1.0717  0.3090 -0.2929
14223SOL     OW43481   6.892   4.238   2.080 -0.0865  0.0819  0.0217
14223SOL    HW143482   6.896   4.330   2.054 -0.3731  0.1479  0.2061
14223SOL    HW243483   6.975   4.223   2.125  0.4813 -0.0827 -1.0663
14224SOL     OW43484   3.279   0.464   1.863  0.0794  0.5293  0.3616
14224SOL    HW143485   3.320   0.467   1.777  0.6798 -2.2510  0.5318
14224SOL    HW243486   3.195   0.421   1.849 -1.1456  2.7268  0.6889
14225SOL     OW43487   3.285   6.454   2.224  0.3805  0.0509 -0.1219
14225SOL    HW143488   3.358   6.508   2.193  0.4868 -0.0048  0.0330
14225SOL    HW243489   3.287   6.462   2.319  1.2045 -1.2571 -0.0056
14226SOL     OW43490   0.560   3.373   4.683 -0.5830 -0.3128  0.0347
14226SOL    HW143491   0.556   3.283   4.715  1.0921 -0.4845 -0.1921
14226SOL    HW243492   0.593   3.364   4.593  2.4955  0.6933  0.9885
14227SOL     OW43493   1.890   1.684   2.247  0.3488 -0.0483 -0.0136
14227SOL    HW143494   1.894   1.594   2.215 -0.9472 -0.0290 -0.2547
14227SOL    HW243495   1.843   1.678   2.330 -0.9094  0.5684 -0.6715
14228SOL     OW43496   7.554   7.206   4.459 -0.3200  0.0355  0.3339
14228SOL    HW143497   7.520   7.125   4.421 -1.9654  0.9707 -0.2396
14228SOL    HW243498   7.625   7.232   4.401  0.4727 -1.1718  0.7308
14229SOL     OW43499   2.852   4.674   6.565  0.2732 -0.2108  0.4232
14229SOL    HW143500   2.919   4.694   6.499 -0.0347  0.0159  0.1768
14229SOL    HW243501   2.800   4.605   6.525  1.4945 -1.7192  1.3784
14230SOL     OW43502   6.522   2.700   1.876 -0.3224 -0.0819  0.1585
14230SOL    HW143503   6.601   2.649   1.857 -0.2391  0.1391 -0.1059
14230SOL    HW243504   6.454   2.661   1.821 -0.0288  0.6971 -0.7691
14231SOL     OW43505   2.263   6.543   1.137 -0.5959  0.4572  0.7401
14231SOL    HW143506   2.345   6.528   1.092 -2.0771 -0.1002 -1.8746
14231SOL    HW243507   2.264   6.637   1.158 -0.4090  1.0126 -1.6169
14232SOL     OW43508   2.865   4.407   0.328  0.6014 -0.4622 -0.3258
14232SOL    HW143509   2.896   4.480   0.382  0.1461  1.0586 -2.0706
14232SOL    HW243510   2.793   4.369   0.379  0.4578  0.6817  0.3482
14233SOL     OW43511   5.034   0.746   0.934 -0.1257  0.2168 -0.3442
14233SOL    HW143512   5.119   0.703   0.921 -0.0972  0.3852 -0.7157
14233SOL    HW243513   4.983   0.722   0.857 -0.4213  0.1082 -0.1150
14234SOL     OW43514   3.437   3.509   6.070 -0.5696  0.2949 -0.0468
14234SOL    HW143515   3.500   3.456   6.119 -0.5347  0.9094  0.5833
14234SOL    HW243516   3.351   3.478   6.100 -0.5503  0.4623  0.1872
14235SOL     OW43517   4.849   2.210   7.011 -0.8981  0.5785  0.1023
14235SOL    HW143518   4.763   2.182   6.980 -0.3726 -0.2366 -0.6310
14235SOL    HW243519   4.831   2.289   7.063 -2.1319  0.1586  0.3323
14236SOL     OW43520   3.445   2.615   5.609 -0.1407  0.5028 -0.3305
14236SOL    HW143521   3.528   2.658   5.627  0.1216 -0.1489  0.0218
14236SOL    HW243522   3.383   2.655   5.670  0.3087 -0.2870  0.6537
14237SOL     OW43523   3.993   5.396   6.834  0.3040 -0.6665 -0.3965
14237SOL    HW143524   3.999   5.314   6.785 -0.5419 -0.7992 -0.2862
14237SOL    HW243525   3.999   5.464   6.766 -2.0501 -0.8570 -0.8645
14238SOL     OW43526   7.309   1.606   2.149 -0.9529  0.3977 -0.9440
14238SOL    HW143527   7.386   1.589   2.094 -1.1668  1.2140 -1.5032
14238SOL    HW243528   7.278   1.518   2.173 -0.6274  0.0342 -1.8139
14239SOL     OW43529   0.742   5.705   1.860 -0.4204  0.3111  0.2012
14239SOL    HW143530   0.826   5.727   1.820 -0.1407 -0.9333  0.1128
14239SOL    HW243531   0.748   5.613   1.883 -2.2298 -0.1305 -0.9510
14240SOL     OW43532   2.965   5.841   5.577  0.1137  0.0749  0.5190
14240SOL    HW143533   2.882   5.889   5.578  0.0211 -0.0024 -1.3476
14240SOL    HW243534   3.003   5.857   5.663 -2.2552 -0.6092  1.7440
14241SOL     OW43535   7.767   6.177   6.165  0.2536  0.0078  0.0778
14241SOL    HW143536   7.836   6.177   6.099 -2.0587  1.2713 -2.4677
14241SOL    HW243537   7.702   6.239   6.131 -2.1311 -1.1512  2.3508
14242SOL     OW43538   7.369   2.279   6.253 -0.9340 -0.3504 -0.3099
14242SOL    HW143539   7.325   2.339   6.194  1.5929  1.4316 -0.4821
14242SOL    HW243540   7.428   2.229   6.196 -2.8534 -2.9124 -0.1421
14243SOL     OW43541   7.501   6.137   1.330  0.5992  0.0110  0.0785
14243SOL    HW143542   7.573   6.156   1.389 -0.1358  0.7136  0.7674
14243SOL    HW243543   7.446   6.074   1.377  0.2128  0.2839 -0.0028
14244SOL     OW43544   4.093   2.527   7.075 -0.2563 -0.3166 -0.0843
14244SOL    HW143545   4.056   2.546   6.989  1.3085  0.6432 -0.5769
14244SOL    HW243546   4.146   2.604   7.095 -0.1636 -0.7760  1.5002
14245SOL     OW43547   1.698   1.422   3.828 -0.0660 -0.6482  0.3449
14245SOL    HW143548   1.691   1.370   3.748  0.3981 -0.0889 -0.0615
14245SOL    HW243549   1.607   1.430   3.859 -0.2232 -1.0279 -0.0201
14246SOL     OW43550   3.930   3.181   1.841 -0.2570  0.1172 -0.4976
14246SOL    HW143551   3.926   3.117   1.770 -2.7835  0.2506 -0.5057
14246SOL    HW243552   3.949   3.129   1.919  1.1849 -0.1938 -1.0431
14247SOL     OW43553   4.130   0.991   7.096 -0.2005  0.0788  0.1485
14247SOL    HW143554   4.147   1.060   7.161  0.8686  1.0674 -1.1434
14247SOL    HW243555   4.089   1.037   7.023 -0.9943 -0.9553 -0.0563
14248SOL     OW43556   3.941   7.185   2.743 -0.1912  0.2994  0.6020
14248SOL    HW143557   3.875   7.251   2.720 -0.9217 -0.4727  0.4345
14248SOL    HW243558   3.983   7.164   2.660 -1.3713 -0.9342  0.2927
14249SOL     OW43559   0.045   0.828   1.663  0.1922  0.1749 -0.6269
14249SOL    HW143560   0.076   0.916   1.683 -2.0918  0.4812  1.7884
14249SOL    HW243561   0.070   0.814   1.571  1.1518  3.0565 -0.8436
14250SOL     OW43562   2.321   0.867   6.882 -0.1195  0.4140 -0.2960
14250SOL    HW143563   2.272   0.831   6.808  0.8892 -2.2389  0.2790
14250SOL    HW243564   2.264   0.854   6.958 -0.2195  1.0975 -0.2459
14251SOL     OW43565   4.932   2.891   1.899  0.1198 -0.5506  0.4291
14251SOL    HW143566   4.892   2.921   1.980 -0.8978 -0.0246 -0.2523
14251SOL    HW243567   4.961   2.802   1.918  1.0637  0.0331  1.7607
14252SOL     OW43568   1.676   3.341   2.326 -0.0634  0.2453  0.1498
14252SOL    HW143569   1.639   3.393   2.397 -2.4369  0.4498 -1.1855
14252SOL    HW243570   1.684   3.403   2.253 -0.7755 -0.7227 -0.7588
14253SOL     OW43571   6.266   0.345   2.718 -0.0138  0.1414  0.2133
14253SOL    HW143572   6.297   0.361   2.807 -0.6747 -0.2220  0.5174
14253SOL    HW243573   6.206   0.417   2.699  1.0121  0.8497 -0.3768
14254SOL     OW43574   2.120   6.846   3.854 -0.5164 -0.0196  0.2189
14254SOL    HW143575   2.071   6.861   3.773 -0.2095 -0.2058 -0.0028
14254SOL    HW243576   2.203   6.808   3.825  0.0334  0.9259  0.5522
14255SOL     OW43577   6.735   0.502   0.398  0.4731  0.4275  0.1740
14255SOL    HW143578   6.660   0.476   0.451  1.4344 -0.8580  0.9358
14255SOL    HW243579   6.715   0.592   0.370 -2.8294 -0.9756 -2.3337
14256SOL     OW43580   4.821   0.529   1.256 -0.6170  0.1205 -0.0836
14256SOL    HW143581   4.817   0.625   1.261 -1.2363  0.2017 -1.7079
14256SOL    HW243582   4.733   0.503   1.229 -0.4599 -0.9162  0.3679
14257SOL     OW43583   2.130   5.009   2.598 -0.8963  0.6487  0.1886
14257SOL    HW143584   2.127   4.992   2.504 -3.4456 -0.4930  0.4249
14257SOL    HW243585   2.186   5.087   2.606  0.0695  0.2505 -2.1639
14258SOL     OW43586   7.313   2.224   6.678  0.1763 -0.3884 -0.3975
14258SOL    HW143587   7.387   2.215   6.618 -0.1354 -0.9940 -0.6932
14258SOL    HW243588   7.266   2.141   6.671 -0.2211 -0.2185  0.2061
14259SOL     OW43589   0.819   7.870   2.522 -0.3737 -0.3100  0.4351
14259SOL    HW143590   0.871   7.849   2.599  0.3229  1.1111  0.3801
14259SOL    HW243591   0.776   7.953   2.544 -0.3875 -0.0314 -0.5963
14260SOL     OW43592   0.727   0.681   6.580  0.5660 -0.1109  0.6002
14260SOL    HW143593   0.678   0.664   6.661  1.8803 -1.4564  1.1254
14260SOL    HW243594   0.723   0.599   6.532 -0.1175  0.6562 -0.6799
14261SOL     OW43595   2.246   0.690   2.723  0.6179 -0.0129  0.2078
14261SOL    HW143596   2.310   0.718   2.659  1.0903 -1.3203  0.1018
14261SOL    HW243597   2.228   0.769   2.775  2.1272  0.4092  0.1007
14262SOL     OW43598   3.327   2.373   7.097  0.2064  0.0775  0.0430
14262SOL    HW143599   3.319   2.467   7.078  0.6931  0.0715 -0.2072
14262SOL    HW243600   3.381   2.369   7.176 -1.5204  0.0858  1.2391
14263SOL     OW43601   2.033   2.472   3.775 -0.2306 -0.3906 -0.3360
14263SOL    HW143602   2.021   2.501   3.685 -0.7770  0.4684  0.0041
14263SOL    HW243603   2.076   2.387   3.768 -0.1691 -0.2729 -1.4006
14264SOL     OW43604   4.736   2.075   3.039 -0.0968 -0.0670 -0.2057
14264SOL    HW143605   4.817   2.095   2.993  0.1855  0.6887  0.5872
14264SOL    HW243606   4.760   2.079   3.132 -0.5804 -1.8892  0.0063
14265SOL     OW43607   2.781   0.925   4.071  0.4455 -0.5973  0.2237
14265SOL    HW143608   2.811   0.918   3.981 -3.1761 -0.4801 -1.0651
14265SOL    HW243609   2.758   0.836   4.096 -0.2525 -0.3746  0.3964
14266SOL     OW43610   1.619   0.299   6.965  0.0750  0.2492  0.0388
14266SOL    HW143611   1.607   0.263   6.878 -0.2055 -0.1981  0.2612
14266SOL    HW243612   1.544   0.267   7.015  2.3719 -3.0101  1.6086
14267SOL     OW43613   7.194   5.607   3.160 -0.3080  0.1987  0.7286
14267SOL    HW143614   7.232   5.523   3.133 -0.4942  0.6984 -1.1732
14267SOL    HW243615   7.230   5.622   3.247  0.1133 -1.6234  0.8908
14268SOL     OW43616   1.432   7.631   7.113  0.5532  0.4816  0.0835
14268SOL    HW143617   1.516   7.586   7.119  0.0839 -0.2771  1.1614
14268SOL    HW243618   1.439   7.703   7.176  0.6159  0.7855 -0.2703
14269SOL     OW43619   6.859   4.351   5.261  0.3091 -0.2086  0.6107
14269SOL    HW143620   6.793   4.308   5.207 -1.3694  0.0564  2.3811
14269SOL    HW243621   6.838   4.323   5.351  0.0068  3.1406  1.6735
14270SOL     OW43622   0.792   1.020   1.642 -0.2831  0.1523 -0.6552
14270SOL    HW143623   0.810   1.113   1.653 -1.3282  0.1967  0.6933
14270SOL    HW243624   0.819   1.002   1.552  0.9150  1.5151 -0.5906
14271SOL     OW43625   5.257   5.489   3.704 -0.2927  0.2480  0.3275
14271SOL    HW143626   5.218   5.410   3.742  1.8848 -0.3688  1.3767
14271SOL    HW243627   5.222   5.561   3.756  0.3169 -0.3465  1.5909
14272SOL     OW43628   0.446   2.940   7.295 -0.1136 -0.0988 -0.0991
14272SOL    HW143629   0.431   2.925   7.202  0.0607 -0.3395 -0.0890
14272SOL    HW243630   0.477   2.856   7.329  0.1449  0.0788  0.1098
14273SOL     OW43631   1.210   5.199   4.040  0.4807 -0.0839 -0.3662
14273SOL    HW143632   1.213   5.280   4.093 -0.4676 -1.1600  1.3822
14273SOL    HW243633   1.120   5.168   4.049  1.2353 -2.1494  0.2228
14274SOL     OW43634   4.111   5.175   3.551  0.0062  0.0653  0.3371
14274SOL    HW143635   4.181   5.159   3.614  0.2200  0.8064  0.2892
14274SOL    HW243636   4.069   5.089   3.540  0.5029 -0.2469  0.8403
14275SOL     OW43637   5.089   7.200   6.767 -0.0834 -0.6089  0.2229
14275SOL    HW143638   5.110   7.259   6.839  0.3785  0.3210 -0.6758
14275SOL    HW243639   5.001   7.225   6.740  0.3009  0.0051 -0.4797
14276SOL     OW43640   4.272   0.662   1.271  0.4770  0.3824  0.4839
14276SOL    HW143641   4.253   0.751   1.301  0.2590  0.2781  0.6596
14276SOL    HW243642   4.198   0.610   1.303  0.8393  0.0508  0.7783
14277SOL     OW43643   4.574   5.722   6.717 -0.0090  0.4035 -0.3165
14277SOL    HW143644   4.503   5.702   6.656 -0.3360  1.0874 -0.1653
14277SOL    HW243645   4.556   5.811   6.746  2.3249  1.5734 -2.2484
14278SOL     OW43646   2.952   2.555   6.474 -0.2561 -0.0057 -0.0533
14278SOL    HW143647   3.008   2.586   6.544 -0.7535 -1.2112  0.8945
14278SOL    HW243648   2.866   2.544   6.515 -1.2555  1.9935 -1.5175
14279SOL     OW43649   6.457   3.936   0.127  0.1131  0.1608  0.3543
14279SOL    HW143650   6.477   3.960   0.218  0.0419  0.6698  0.2347
14279SOL    HW243651   6.498   3.850   0.116 -0.1218 -0.0341  0.9567
14280SOL     OW43652   5.629   3.056   1.399 -0.3871  0.1070  0.1564
14280SOL    HW143653   5.681   3.011   1.466  0.8098 -0.6724 -1.2830
14280SOL    HW243654   5.662   3.146   1.400 -0.4974  0.1479  0.7207
14281SOL     OW43655   6.090   4.289   4.638 -0.8690  0.1089  0.0943
14281SOL    HW143656   6.013   4.241   4.607 -0.8817 -0.0772  0.4158
14281SOL    HW243657   6.083   4.374   4.595 -1.9719  0.5773  1.1575
14282SOL     OW43658   6.038   1.310   5.570  0.2533  0.3269  0.1242
14282SOL    HW143659   6.100   1.360   5.516  1.4145 -1.1786  0.0121
14282SOL    HW243660   5.980   1.268   5.507 -0.4360  1.1684  0.1972
14283SOL     OW43661   4.643   6.233   7.703  0.0465  0.1109 -0.4668
14283SOL    HW143662   4.595   6.184   7.637  0.3541  1.6535 -1.8679
14283SOL    HW243663   4.727   6.252   7.663  0.2232  1.0941  0.3414
14284SOL     OW43664   3.827   3.328   6.256 -0.1325  0.1219 -0.2228
14284SOL    HW143665   3.838   3.415   6.217  3.1021 -0.1326 -0.0394
14284SOL    HW243666   3.779   3.278   6.190 -0.7523  1.6232 -0.9460
14285SOL     OW43667   4.925   3.248   7.318 -0.3355  0.5832 -0.6322
14285SOL    HW143668   4.941   3.302   7.395  1.6815 -0.5227 -0.2528
14285SOL    HW243669   4.843   3.203   7.337 -0.5245  1.2959  0.2853
14286SOL     OW43670   3.612   1.383   2.869 -0.0646 -0.5554 -0.2561
14286SOL    HW143671   3.653   1.468   2.879 -0.6273 -0.4102  0.8463
14286SOL    HW243672   3.665   1.339   2.802  1.5654 -0.1803  0.7596
14287SOL     OW43673   5.859   2.452   4.497  0.3082  0.1976 -0.2816
14287SOL    HW143674   5.816   2.527   4.539  1.2081 -0.1134  1.2546
14287SOL    HW243675   5.922   2.491   4.436 -0.3036  0.6786 -0.6039
14288SOL     OW43676   6.182   1.547   5.847  1.1002 -0.5440  0.4042
14288SOL    HW143677   6.199   1.588   5.762  0.8528  0.3087  0.7630
14288SOL    HW243678   6.109   1.488   5.831 -2.2185  3.1701  1.0419
14289SOL     OW43679   2.223   5.720   2.854  0.8338 -0.1913  0.5390
14289SOL    HW143680   2.309   5.753   2.827  1.2525 -0.0922  1.9399
14289SOL    HW243681   2.241   5.633   2.888  0.2916 -0.3784  0.3495
14290SOL     OW43682   0.231   6.215   4.885  0.3034  0.4297 -0.1781
14290SOL    HW143683   0.256   6.288   4.827  1.8841  0.1602  0.1685
14290SOL    HW243684   0.254   6.245   4.973  0.5290 -0.3142  0.0175
14291SOL     OW43685   3.396   2.904   6.838  0.5821  0.3671 -0.5128
14291SOL    HW143686   3.425   2.919   6.928  0.3684 -0.2848 -0.3287
14291SOL    HW243687   3.401   2.809   6.827 -1.8157  0.2108 -0.3643
14292SOL     OW43688   2.706   7.280   7.219 -0.1689  0.0940 -0.3559
14292SOL    HW143689   2.676   7.191   7.201  0.9133 -0.3016 -0.2554
14292SOL    HW243690   2.632   7.336   7.195 -0.6265 -0.7862 -1.0268
14293SOL     OW43691   5.660   2.413   1.694 -0.2322 -0.1197  0.4578
14293SOL    HW143692   5.649   2.407   1.789  1.8672  0.1547  0.7498
14293SOL    HW243693   5.585   2.465   1.665 -0.4015  0.6116  2.0878
14294SOL     OW43694   6.203   0.711   4.849  0.0494 -0.5496 -0.5065
14294SOL    HW143695   6.108   0.698   4.847 -0.0476  0.0712  0.0261
14294SOL    HW243696   6.233   0.663   4.926  0.1682 -0.7340 -0.6674
14295SOL     OW43697   1.908   4.424   2.251  0.0907 -0.6759  0.3436
14295SOL    HW143698   1.891   4.358   2.318  0.2072  0.9402  1.9901
14295SOL    HW243699   1.845   4.494   2.270  0.5058  0.0566 -0.9033
14296SOL     OW43700   4.757   5.338   4.594  0.1994  0.2747 -0.5309
14296SOL    HW143701   4.679   5.384   4.564  1.1852  0.6938 -2.5124
14296SOL    HW243702   4.784   5.384   4.673 -0.6846  1.0778 -0.7011
14297SOL     OW43703   4.831   7.462   6.623  0.2134 -0.2617 -0.1228
14297SOL    HW143704   4.909   7.490   6.576 -0.1390  0.0062 -0.5631
14297SOL    HW243705   4.810   7.376   6.587  0.9336 -0.8208  0.7791
14298SOL     OW43706   7.249   0.142   4.807  0.3344  0.5232 -0.4290
14298SOL    HW143707   7.292   0.215   4.850  0.4150 -0.1563  0.6629
14298SOL    HW243708   7.268   0.154   4.714  0.9758  1.4645 -0.1791
14299SOL     OW43709   3.633   0.619   1.569  0.2543 -0.4181 -0.3038
14299SOL    HW143710   3.554   0.628   1.516  0.6777  0.3344 -0.8132
14299SOL    HW243711   3.610   0.657   1.653 -0.3102 -1.3025 -0.0503
14300SOL     OW43712   4.459   5.347   0.488  0.4009 -0.3039  0.6883
14300SOL    HW143713   4.526   5.286   0.519 -0.1143 -0.5754  1.2841
14300SOL    HW243714   4.437   5.315   0.400  0.7895 -0.4301  0.6339
14301SOL     OW43715   5.908   1.657   0.786 -0.1364 -0.5033  0.2796
14301SOL    HW143716   5.986   1.665   0.732 -0.3390 -0.9800 -0.0790
14301SOL    HW243717   5.886   1.748   0.810 -0.9723 -0.1595 -1.7346
14302SOL     OW43718   2.702   7.320   3.597  0.1168 -0.1042 -0.2840
14302SOL    HW143719   2.720   7.335   3.690 -0.1488  1.6256 -0.5021
14302SOL    HW243720   2.607   7.307   3.593 -0.1326  1.7203 -0.5486
14303SOL     OW43721   4.624   5.566   2.840  0.3974 -0.4053  0.0744
14303SOL    HW143722   4.530   5.580   2.848  0.7471  1.1946  2.0383
14303SOL    HW243723   4.660   5.597   2.923  2.7998  0.4102 -1.1986
14304SOL     OW43724   7.571   3.523   4.283 -0.2245 -0.1170  0.4506
14304SOL    HW143725   7.521   3.587   4.232  1.1562 -0.0005 -0.7881
14304SOL    HW243726   7.658   3.563   4.293  0.5707 -1.6668 -0.1095
14305SOL     OW43727   0.456   4.692   1.753  0.8782 -0.5237 -0.9332
14305SOL    HW143728   0.503   4.686   1.836  3.0937 -0.0712 -2.1164
14305SOL    HW243729   0.441   4.786   1.741 -0.5691 -0.6807 -0.4522
14306SOL     OW43730   1.949   2.791   7.778  0.0209 -0.6477  0.6494
14306SOL    HW143731   1.921   2.823   7.863 -0.4320 -0.7128  0.5258
14306SOL    HW243732   2.022   2.732   7.797  0.9804  0.5941  0.8707
14307SOL     OW43733   2.318   2.211   3.802 -0.0240 -0.0357  0.1557
14307SOL    HW143734   2.282   2.240   3.718  1.1518 -1.3614 -0.8349
14307SOL    HW243735   2.380   2.280   3.826 -0.8529  0.6743  0.2775
14308SOL     OW43736   7.684   4.108   6.254  0.5058  0.2024  0.3418
14308SOL    HW143737   7.712   4.141   6.339  1.1337  1.3040 -0.2763
14308SOL    HW243738   7.619   4.040   6.274  0.0898  0.9795  1.6703
14309SOL     OW43739   0.118   1.934   4.633 -0.1721  0.2924  0.0360
14309SOL    HW143740   0.041   1.951   4.579  0.4046  1.2249 -0.5170
14309SOL    HW243741   0.159   2.020   4.644  0.2506 -0.0456  1.1423
14310SOL     OW43742   6.997   4.297   5.783  0.4769  0.2268 -0.0091
14310SOL    HW143743   7.027   4.213   5.819  1.2301  0.5934  0.2362
14310SOL    HW243744   7.050   4.363   5.829 -0.8075  0.9006  0.5330
14311SOL     OW43745   4.260   5.510   5.886 -0.2352 -0.3539  0.5321
14311SOL    HW143746   4.326   5.443   5.908 -0.4423 -0.3077  1.3075
14311SOL    HW243747   4.269   5.521   5.791 -1.4528 -2.8156  0.0772
14312SOL     OW43748   7.183   4.558   0.494 -0.0313  0.4911 -0.2825
14312SOL    HW143749   7.213   4.643   0.465 -1.0715  0.5197 -1.3051
14312SOL    HW243750   7.087   4.564   0.493 -0.1067  0.0046  1.6885
14313SOL     OW43751   6.407   0.117   7.687  0.1583 -0.3747 -0.0519
14313SOL    HW143752   6.375   0.027   7.685 -1.7901  0.3075 -1.3765
14313SOL    HW243753   6.495   0.111   7.725 -0.2286 -2.7299  0.5268
14314SOL     OW43754   6.206   2.668   6.381  0.5723 -0.2089  0.2095
14314SOL    HW143755   6.111   2.669   6.376  0.6440  1.9451 -1.9604
14314SOL    HW243756   6.226   2.684   6.473 -1.1281 -2.4766  1.0107
14315SOL     OW43757   6.088   7.920   2.999  0.1201  1.0811 -0.2616
14315SOL    HW143758   6.117   7.983   2.932  0.6569  1.8461  0.6827
14315SOL    HW243759   5.997   7.945   3.017  0.1060  1.1340 -0.4058
14316SOL     OW43760   6.673   2.457   6.379 -0.2432 -0.0456 -0.2792
14316SOL    HW143761   6.673   2.546   6.344 -1.3759  0.0883  0.0372
14316SOL    HW243762   6.585   2.445   6.415  0.5693 -0.5199  1.6209
14317SOL     OW43763   5.542   4.507   6.190 -0.0279  0.1480  0.2458
14317SOL    HW143764   5.468   4.565   6.173  0.1876  0.3084 -0.1549
14317SOL    HW243765   5.503   4.425   6.219 -0.3546  0.2896  0.2095
14318SOL     OW43766   3.239   7.097   7.837  0.3165  0.4743 -0.1922
14318SOL    HW143767   3.223   7.179   7.791  0.0896  0.8735  0.5951
14318SOL    HW243768   3.317   7.061   7.795  1.0601  1.6243  0.1647
14319SOL     OW43769   4.674   3.587   7.857 -0.4025  0.0524  0.2298
14319SOL    HW143770   4.712   3.573   7.944  2.2556 -1.1589 -1.0569
14319SOL    HW243771   4.739   3.640   7.811 -0.5439 -1.4875 -1.8358
14320SOL     OW43772   3.294   5.666   7.542  0.2520 -0.0356  0.4399
14320SOL    HW143773   3.338   5.586   7.513 -1.0698  0.5395 -3.4381
14320SOL    HW243774   3.238   5.637   7.615  0.6015 -2.4459 -0.1989
14321SOL     OW43775   5.120   5.367   6.228 -0.0889  0.6119 -0.2531
14321SOL    HW143776   5.063   5.426   6.178 -0.3633  0.6081  0.0570
14321SOL    HW243777   5.209   5.396   6.207 -0.1946  0.4574 -0.9424
14322SOL     OW43778   5.370   3.084   2.712 -0.3480 -0.4431 -0.3293
14322SOL    HW143779   5.404   3.104   2.799 -3.0274  0.8445  0.5089
14322SOL    HW243780   5.307   3.014   2.727  0.0258 -1.0184 -1.4209
14323SOL     OW43781   3.584   5.971   5.713 -0.1806 -0.4483 -0.1042
14323SOL    HW143782   3.639   6.046   5.692 -1.0163 -0.1452 -1.2653
14323SOL    HW243783   3.508   6.009   5.759  1.7253 -1.1235  3.7896
14324SOL     OW43784   3.092   0.364   0.972 -0.0906 -0.1647 -0.0678
14324SOL    HW143785   3.158   0.386   1.038  0.8896  3.1950 -1.9951
14324SOL    HW243786   3.105   0.272   0.953  2.0424 -0.2660  1.7848
14325SOL     OW43787   6.344   5.099   1.691 -0.2325 -0.2755  0.0700
14325SOL    HW143788   6.425   5.137   1.727 -1.0762 -0.2703  2.0217
14325SOL    HW243789   6.307   5.048   1.764 -3.0531  1.4039 -0.1223
14326SOL     OW43790   3.699   0.998   5.529  0.1643 -0.6482 -0.7438
14326SOL    HW143791   3.610   1.026   5.508 -0.2479 -1.7320 -0.4930
14326SOL    HW243792   3.715   1.033   5.617  0.6445  1.0424 -1.5024
14327SOL     OW43793   0.650   4.604   3.497 -0.0012 -0.7338  0.1030
14327SOL    HW143794   0.593   4.621   3.423  1.5077 -2.0805 -1.3901
14327SOL    HW243795   0.642   4.510   3.513  0.9266 -0.7338  0.6057
14328SOL     OW43796   5.415   7.119   3.097  0.1372 -1.3096 -0.4669
14328SOL    HW143797   5.423   7.050   3.031 -1.3128  0.4906 -2.5738
14328SOL    HW243798   5.482   7.183   3.073  0.0624 -0.9614  0.2348
14329SOL     OW43799   4.720   0.582   6.648  0.1324  0.5731 -0.0256
14329SOL    HW143800   4.815   0.593   6.651  0.3224 -1.2824  3.6592
14329SOL    HW243801   4.685   0.666   6.677  0.5862  1.5719 -2.2977
14330SOL     OW43802   7.889   2.895   6.398 -0.0418  0.5029  0.2451
14330SOL    HW143803   7.919   2.921   6.311 -0.1295 -1.8001 -0.5212
14330SOL    HW243804   7.961   2.844   6.434 -0.2961  0.8274  1.2344
14331SOL     OW43805   2.155   7.702   6.177  0.1266  0.1894  0.5069
14331SOL    HW143806   2.217   7.750   6.231  0.3908  0.5202 -0.0823
14331SOL    HW243807   2.191   7.708   6.088 -1.5405  1.6993 -0.0938
14332SOL     OW43808   1.644   3.479   4.477  1.1235  0.4836  0.3679
14332SOL    HW143809   1.613   3.465   4.566 -1.5199  2.4137 -0.1964
14332SOL    HW243810   1.691   3.399   4.455  0.3002 -0.7230  2.8743
14333SOL     OW43811   2.507   3.693   6.723 -0.2924  0.0107  0.2255
14333SOL    HW143812   2.437   3.653   6.672 -0.1696 -0.1190  0.1588
14333SOL    HW243813   2.463   3.729   6.800 -0.3227 -0.7430  0.5599
14334SOL     OW43814   4.780   4.840   2.397  0.1086  0.0363  0.6702
14334SOL    HW143815   4.718   4.837   2.324 -0.2614  2.9191  0.8445
14334SOL    HW243816   4.862   4.807   2.358  0.1054  2.1991 -1.2708
14335SOL     OW43817   4.886   0.639   5.130 -0.1455  0.0239 -0.1267
14335SOL    HW143818   4.965   0.680   5.095  0.1705 -0.5477 -0.1003
14335SOL    HW243819   4.838   0.709   5.172 -0.0118  0.5244 -0.7957
14336SOL     OW43820   3.556   1.761   3.725  0.7437 -0.3961 -0.4821
14336SOL    HW143821   3.554   1.853   3.698  0.4896 -0.2026  0.1801
14336SOL    HW243822   3.470   1.727   3.700  0.9576 -0.5384 -1.0221
14337SOL     OW43823   3.839   0.339   4.580  0.0108  0.1478  0.0361
14337SOL    HW143824   3.912   0.395   4.604  0.5440 -0.2007 -0.7507
14337SOL    HW243825   3.762   0.382   4.618  0.2802  1.9798 -1.4228
14338SOL     OW43826   6.984   4.449   5.535 -0.2891  0.5645 -0.4731
14338SOL    HW143827   7.049   4.403   5.587  0.9936 -1.8271 -3.9980
14338SOL    HW243828   7.030   4.526   5.500 -0.3766  0.7212 -0.2482
14339SOL     OW43829   1.053   1.854   6.258 -0.5125  0.0172 -0.0191
14339SOL    HW143830   1.064   1.883   6.349  1.4205  0.2289 -0.3075
14339SOL    HW243831   1.095   1.768   6.255  1.5608  1.0392 -1.2662
14340SOL     OW43832   5.123   7.246   4.329 -0.3108  0.6175 -0.3501
14340SOL    HW143833   5.203   7.285   4.295 -0.0013 -2.1457 -3.0665
14340SOL    HW243834   5.152   7.190   4.401  0.1694  0.0685 -0.9562
14341SOL     OW43835   4.954   3.824   1.748 -0.5006 -0.1378 -0.2528
14341SOL    HW143836   4.968   3.733   1.721  2.9901  0.7421 -1.6698
14341SOL    HW243837   4.903   3.862   1.676  0.7008 -0.1902 -1.1379
14342SOL     OW43838   2.535   3.204   7.946  0.0929  0.3802 -0.2818
14342SOL    HW143839   2.473   3.200   7.873 -0.7804  0.8311  0.4278
14342SOL    HW243840   2.579   3.119   7.945 -1.6268 -0.5368  0.1663
14343SOL     OW43841   0.588   6.755   0.792 -0.3720 -0.0320  0.1296
14343SOL    HW143842   0.575   6.848   0.809 -0.6632 -0.1947  0.8074
14343SOL    HW243843   0.670   6.751   0.742  1.2289  0.3745  2.6366
14344SOL     OW43844   7.056   2.007   3.277 -0.3166  0.4913 -0.0549
14344SOL    HW143845   6.972   2.029   3.237 -0.1016  1.8634  0.2179
14344SOL    HW243846   7.101   1.953   3.211 -0.6849  1.2574 -0.9403
14345SOL     OW43847   3.058   7.155   6.057 -0.1146  0.6954  0.1155
14345SOL    HW143848   3.126   7.222   6.057  0.6340 -0.0591  0.5119
14345SOL    HW243849   2.987   7.193   6.110 -0.0893  1.5579 -0.4555
14346SOL     OW43850   3.493   6.129   5.990 -0.2035 -0.2805  0.4295
14346SOL    HW143851   3.449   6.044   6.000 -0.8025 -0.1774 -1.2648
14346SOL    HW243852   3.585   6.109   6.010 -0.7388 -0.7746  2.6053
14347SOL     OW43853   7.756   7.369   5.007 -0.2959  0.3908 -0.2274
14347SOL    HW143854   7.842   7.377   5.046 -0.2393 -1.7807  0.1895
14347SOL    HW243855   7.714   7.454   5.020  2.1895  1.8542 -1.4920
14348SOL     OW43856   6.882   3.930   6.420  0.0182  0.1891  0.3156
14348SOL    HW143857   6.965   3.910   6.378  0.2972 -0.2534  1.0730
14348SOL    HW243858   6.905   3.986   6.494 -0.2762 -0.5190  0.9474
14349SOL     OW43859   4.208   0.915   3.673  0.6811 -0.6711  0.3000
14349SOL    HW143860   4.266   0.991   3.671  0.0035 -0.1497  0.4942
14349SOL    HW243861   4.128   0.947   3.713 -0.8164 -0.6309 -2.5974
14350SOL     OW43862   1.345   7.753   5.458 -0.6500 -0.3703  0.2382
14350SOL    HW143863   1.353   7.658   5.450  1.0947 -0.1186 -1.5401
14350SOL    HW243864   1.426   7.780   5.502  0.1496  0.5132 -1.6909
14351SOL     OW43865   7.108   4.431   7.628  0.5131  0.0053  0.3842
14351SOL    HW143866   7.126   4.337   7.634  0.4560  0.0456  1.2682
14351SOL    HW243867   7.160   4.470   7.699 -0.2190  0.5337  0.6346
14352SOL     OW43868   0.816   6.908   7.410 -0.1025  0.1587 -0.4894
14352SOL    HW143869   0.808   6.830   7.466 -0.4818  1.3380  1.1262
14352SOL    HW243870   0.874   6.880   7.339  0.5907 -1.3008  0.6206
14353SOL     OW43871   3.781   7.228   0.404 -0.1875  0.2984 -0.6374
14353SOL    HW143872   3.773   7.154   0.463  1.2816 -1.2361 -2.2844
14353SOL    HW243873   3.695   7.270   0.405 -0.3378 -0.0164  2.1136
14354SOL     OW43874   6.240   6.144   0.645  0.1212 -0.3772 -0.0921
14354SOL    HW143875   6.252   6.068   0.701  2.1516 -0.2374 -0.2817
14354SOL    HW243876   6.312   6.139   0.582  0.2139  1.5981 -0.1905
14355SOL     OW43877   1.744   4.897   7.571 -0.1318 -0.2792  0.4275
14355SOL    HW143878   1.684   4.944   7.514 -1.0949 -1.3525  0.5372
14355SOL    HW243879   1.827   4.943   7.562 -0.5760  0.2785 -0.9249
14356SOL     OW43880   3.953   6.651   7.870  0.3856  0.0623  0.4738
14356SOL    HW143881   3.927   6.741   7.887 -0.2409 -0.0575  0.1655
14356SOL    HW243882   3.947   6.607   7.955 -0.2238  0.0859  0.4435
14357SOL     OW43883   6.493   4.564   5.616  0.5108 -0.9101 -0.0464
14357SOL    HW143884   6.504   4.492   5.679  0.0670 -1.3855 -0.4984
14357SOL    HW243885   6.581   4.600   5.605  0.2875  0.4662  2.3443
14358SOL     OW43886   7.838   3.865   0.622 -0.4585 -0.4855 -0.1240
14358SOL    HW143887   7.929   3.856   0.651 -0.8472 -1.8238  0.7328
14358SOL    HW243888   7.796   3.916   0.692 -0.4110 -0.0346 -0.4251
14359SOL     OW43889   2.128   3.057   4.622 -0.6256 -0.0777  0.3287
14359SOL    HW143890   2.039   3.077   4.591 -0.9586 -0.7308  0.8499
14359SOL    HW243891   2.184   3.116   4.572 -1.3221  0.1035 -0.2590
14360SOL     OW43892   6.304   4.615   0.867 -0.2762  0.3010 -0.5149
14360SOL    HW143893   6.294   4.709   0.857 -0.0057  0.3286 -0.5276
14360SOL    HW243894   6.246   4.592   0.940  0.6342  0.6719  0.3289
14361SOL     OW43895   0.587   4.973   2.697 -0.2647  0.7456 -0.6011
14361SOL    HW143896   0.673   5.003   2.727 -0.7280  0.9887  0.5089
14361SOL    HW243897   0.576   5.012   2.611  0.4343  1.3028 -0.4345
14362SOL     OW43898   3.012   0.481   7.317 -0.1552 -0.0321  0.0362
14362SOL    HW143899   2.945   0.413   7.325 -0.7704  0.6184  0.5900
14362SOL    HW243900   3.063   0.456   7.241 -0.6235 -0.9017  0.0026
14363SOL     OW43901   5.617   5.624   2.619 -0.2137  0.6497  0.5123
14363SOL    HW143902   5.574   5.563   2.560  0.8225 -0.3489  0.7665
14363SOL    HW243903   5.577   5.606   2.705 -1.0792  1.4742  0.2815
14364SOL     OW43904   3.422   3.218   7.762  0.2201 -0.0520 -0.0573
14364SOL    HW143905   3.479   3.166   7.819  1.0867 -0.4800 -1.2840
14364SOL    HW243906   3.455   3.308   7.771  0.0644 -0.0427  0.4498
14365SOL     OW43907   0.363   1.408   7.227 -0.4675 -0.0733  0.0683
14365SOL    HW143908   0.458   1.394   7.230 -0.0335  2.0510 -2.2464
14365SOL    HW243909   0.340   1.399   7.135 -2.1443  1.5958  0.2942
14366SOL     OW43910   6.075   6.207   3.343  0.6177  0.1236 -0.0420
14366SOL    HW143911   6.098   6.294   3.374  1.2838 -0.4518  1.1059
14366SOL    HW243912   6.100   6.207   3.250  1.8002  0.7299  0.2695
14367SOL     OW43913   1.370   4.005   3.279 -0.5021  0.0377 -0.2261
14367SOL    HW143914   1.359   3.926   3.227  0.6409 -0.1152 -0.2455
14367SOL    HW243915   1.410   4.069   3.220 -1.5644  0.6911 -0.2582
14368SOL     OW43916   6.321   0.757   3.355 -0.0811  0.3178  0.6269
14368SOL    HW143917   6.353   0.825   3.296 -1.2608  0.3786  0.0407
14368SOL    HW243918   6.320   0.798   3.441 -1.0427  1.1386  0.2316
14369SOL     OW43919   2.267   5.264   6.861  0.0027 -0.1821 -0.4892
14369SOL    HW143920   2.179   5.242   6.829  0.3180 -3.3877  0.6639
14369SOL    HW243921   2.314   5.293   6.783 -1.8835  0.9395 -1.2417
14370SOL     OW43922   0.460   6.604   0.551  0.4172 -0.4164  0.6897
14370SOL    HW143923   0.536   6.557   0.518  0.6933  0.4215  0.1210
14370SOL    HW243924   0.489   6.640   0.635 -0.4299 -2.9347  2.1278
14371SOL     OW43925   6.658   5.330   3.206 -0.0576  0.0075 -0.3218
14371SOL    HW143926   6.600   5.389   3.157 -1.3747 -1.1104 -0.1247
14371SOL    HW243927   6.608   5.249   3.215  1.3920 -0.8483  0.1876
14372SOL     OW43928   7.671   4.542   0.162  0.3514  0.2128 -0.0514
14372SOL    HW143929   7.578   4.551   0.186  0.2734 -2.1212  0.7027
14372SOL    HW243930   7.678   4.582   0.076 -2.1074 -2.5401 -1.6266
14373SOL     OW43931   5.701   0.390   3.470  0.1763 -1.2191 -0.0343
14373SOL    HW143932   5.660   0.456   3.414 -0.2135 -1.1925  0.2830
14373SOL    HW243933   5.794   0.391   3.445  0.0744 -0.9224 -0.3933
14374SOL     OW43934   5.360   1.207   4.021  0.2773  0.0987 -0.0974
14374SOL    HW143935   5.396   1.295   4.010 -0.9773  0.6295 -0.0236
14374SOL    HW243936   5.374   1.165   3.936 -2.2224  1.5372 -1.2860
14375SOL     OW43937   4.336   7.961   2.511  0.2377  0.0749  0.9116
14375SOL    HW143938   4.300   7.956   2.600 -0.0276 -0.1540  0.7911
14375SOL    HW243939   4.265   7.931   2.455 -0.0136  1.3973  0.5137
14376SOL     OW43940   5.151   3.785   0.586 -0.2136  0.4572  0.8165
14376SOL    HW143941   5.191   3.833   0.658 -1.6077  2.5659  0.2583
14376SOL    HW243942   5.211   3.798   0.512  0.7370 -0.9037  1.3408
14377SOL     OW43943   2.679   6.142   3.312 -0.1488  0.1004 -0.1526
14377SOL    HW143944   2.731   6.062   3.318  0.3229  0.2391 -1.9035
14377SOL    HW243945   2.659   6.166   3.403 -0.1520 -1.8952  0.3787
14378SOL     OW43946   5.008   0.248   7.460  0.3698  0.2103 -0.5554
14378SOL    HW143947   4.932   0.286   7.504 -1.9660 -1.9941 -2.5030
14378SOL    HW243948   5.026   0.307   7.387 -0.0673  0.2373 -0.6418
14379SOL     OW43949   1.194   6.139   2.449 -0.2950 -0.4223 -0.4377
14379SOL    HW143950   1.193   6.128   2.544  0.0801  0.6789 -0.3074
14379SOL    HW243951   1.103   6.127   2.423 -0.2612 -1.6103 -0.0448
14380SOL     OW43952   6.093   2.860   7.385  0.0554  0.3774  0.5285
14380SOL    HW143953   6.151   2.801   7.432 -0.1577  0.4117  0.8341
14380SOL    HW243954   6.151   2.921   7.341  0.2696  0.0669  0.3789
14381SOL     OW43955   1.265   3.931   2.233  0.4314  0.0559  0.0688
14381SOL    HW143956   1.208   3.911   2.307 -0.0460 -0.1055 -0.3304
14381SOL    HW243957   1.207   3.976   2.170  0.4971 -0.9854 -0.7522
14382SOL     OW43958   2.854   0.754   2.847 -0.7475 -0.0685 -0.1581
14382SOL    HW143959   2.925   0.784   2.904 -0.3713 -0.4814 -0.3988
14382SOL    HW243960   2.819   0.677   2.891 -0.5995 -0.2596 -0.3728
14383SOL     OW43961   1.727   5.836   0.145 -0.5430 -0.5995 -0.1113
14383SOL    HW143962   1.797   5.850   0.210  0.3590 -2.1306 -0.7247
14383SOL    HW243963   1.730   5.914   0.091 -0.5409  0.1848  0.9909
14384SOL     OW43964   5.657   5.598   1.552  1.2253  0.0741 -0.1286
14384SOL    HW143965   5.605   5.550   1.617  2.8037 -0.8862  0.4620
14384SOL    HW243966   5.704   5.529   1.504  0.1959  0.7876 -2.1970
14385SOL     OW43967   1.778   6.062   7.998 -0.0392 -0.7005 -0.8251
14385SOL    HW143968   1.710   6.124   7.972 -1.1047 -0.1526  2.9738
14385SOL    HW243969   1.853   6.116   8.020  0.3545 -1.0502 -1.3048
14386SOL     OW43970   2.862   6.967   5.193 -0.0484  0.2983  0.9458
14386SOL    HW143971   2.811   7.001   5.267  2.0456  2.6549  1.3843
14386SOL    HW243972   2.799   6.960   5.121 -1.5627  0.4346  2.2298
14387SOL     OW43973   4.925   4.022   3.790  0.4170 -0.2498  0.3370
14387SOL    HW143974   4.981   4.054   3.720 -4.5240  0.0372 -3.8325
14387SOL    HW243975   4.887   4.101   3.829 -0.4236 -0.5104  0.0752
14388SOL     OW43976   7.729   1.836   4.086  0.2620  0.3063  0.0401
14388SOL    HW143977   7.685   1.909   4.042  0.7443 -0.4277 -1.6797
14388SOL    HW243978   7.706   1.847   4.178 -0.9751  1.7210 -0.4146
14389SOL     OW43979   4.645   4.491   4.277  0.0687 -0.7135 -0.2493
14389SOL    HW143980   4.584   4.490   4.203 -1.5808  1.1919  1.0211
14389SOL    HW243981   4.589   4.478   4.354  1.4400 -0.2247  0.8466
14390SOL     OW43982   6.918   4.840   1.755 -0.6936 -0.4848 -0.0661
14390SOL    HW143983   6.995   4.865   1.806 -0.6553  0.2477 -0.4677
14390SOL    HW243984   6.905   4.747   1.773  0.4256 -0.6601 -0.1802
14391SOL     OW43985   7.693   2.814   7.700  0.1972  0.1461  0.6163
14391SOL    HW143986   7.776   2.844   7.664  0.2040  0.5331  0.9467
14391SOL    HW243987   7.652   2.765   7.629  0.8667 -0.3455  0.5717
14392SOL     OW43988   5.634   1.867   6.344  0.3201  0.0016  0.3329
14392SOL    HW143989   5.678   1.812   6.280  0.5726 -0.9391  1.3008
14392SOL    HW243990   5.601   1.942   6.293  0.0373 -0.9971 -0.9729
14393SOL     OW43991   7.007   5.177   6.892  0.1155  0.0573  0.1414
14393SOL    HW143992   6.983   5.166   6.800 -2.1873  0.1545  0.6872
14393SOL    HW243993   7.078   5.115   6.907  1.0246  0.5996 -1.8893
14394SOL     OW43994   0.468   0.952   6.070 -0.4654  0.1813  0.4199
14394SOL    HW143995   0.401   0.978   6.133 -1.3414 -1.2111  0.0868
14394SOL    HW243996   0.448   0.860   6.050  2.6505 -0.8471  1.7294
14395SOL     OW43997   0.242   6.114   3.986  0.0345  0.2893  0.3651
14395SOL    HW143998   0.187   6.038   4.005 -1.6682  0.9610 -1.6988
14395SOL    HW243999   0.183   6.189   3.991  1.6252  1.4841  2.0542
14396SOL     OW44000   3.263   7.295   2.387  0.3601  0.9284 -0.1247
14396SOL    HW144001   3.344   7.272   2.341  0.1791 -2.3575  1.0372
14396SOL    HW244002   3.263   7.239   2.464 -3.1344  0.6781 -0.2137
14397SOL     OW44003   6.132   7.395   2.133  0.1652 -0.3648  0.8002
14397SOL    HW144004   6.078   7.357   2.063  1.3518 -0.0817 -0.2845
14397SOL    HW244005   6.087   7.475   2.158 -0.2654 -0.4640  0.3494
14398SOL     OW44006   7.684   2.321   1.212 -0.1232 -0.5659 -0.3023
14398SOL    HW144007   7.602   2.352   1.251 -1.0134 -2.0739 -0.9224
14398SOL    HW244008   7.744   2.310   1.286 -0.1944  1.3961  0.0542
14399SOL     OW44009   3.484   5.652   6.581  0.3054 -0.4836 -0.2880
14399SOL    HW144010   3.486   5.557   6.568  1.1554 -0.2803 -1.8017
14399SOL    HW244011   3.394   5.672   6.604  0.1704 -1.6822  0.2718
14400SOL     OW44012   2.276   7.990   4.856  0.0362  0.5646  0.8770
14400SOL    HW144013   2.182   7.974   4.852  0.2078 -0.3701  0.5875
14400SOL    HW244014   2.310   7.922   4.914  0.6453  0.3819  0.3189
14401SOL     OW44015   3.029   3.615   4.763 -0.6492  0.0449 -0.3504
14401SOL    HW144016   3.078   3.552   4.816 -0.8779 -0.3015 -0.5494
14401SOL    HW244017   3.087   3.691   4.757 -0.3617 -0.1557 -0.1267
14402SOL     OW44018   1.802   5.565   5.118 -0.5665  0.1071  0.2788
14402SOL    HW144019   1.810   5.653   5.153  0.0230  0.4873 -0.7710
14402SOL    HW244020   1.886   5.523   5.138 -0.2303  0.3232 -0.6296
14403SOL     OW44021   5.811   2.348   6.073 -0.1992 -0.4764 -0.1754
14403SOL    HW144022   5.879   2.415   6.061  0.6481 -1.3797 -0.4345
14403SOL    HW244023   5.732   2.398   6.095  0.0688  0.7087 -1.8016
14404SOL     OW44024   5.531   2.533   6.511 -0.1672 -0.3684  0.5838
14404SOL    HW144025   5.483   2.591   6.570 -1.3010  1.2798 -1.8548
14404SOL    HW244026   5.618   2.573   6.505 -0.4377  0.1740  0.1941
14405SOL     OW44027   3.066   0.305   1.866 -0.2649  0.2620 -0.1610
14405SOL    HW144028   3.030   0.256   1.940  1.6556 -0.3286  0.3967
14405SOL    HW244029   2.990   0.322   1.810 -1.4898 -0.5596  1.2153
14406SOL     OW44030   0.765   0.453   0.751  0.1923  0.2936 -0.0526
14406SOL    HW144031   0.860   0.457   0.761  0.1791  0.7780 -0.1348
14406SOL    HW244032   0.736   0.544   0.751 -0.6471  0.0701  3.3072
14407SOL     OW44033   7.996   1.415   4.596  0.4585  0.2790 -0.1391
14407SOL    HW144034   8.073   1.428   4.651  1.0315  0.0338 -0.8620
14407SOL    HW244035   7.991   1.494   4.542 -0.1096  0.5264  0.2759
14408SOL     OW44036   7.775   7.479   0.921  0.0574 -0.1795  0.0790
14408SOL    HW144037   7.831   7.479   0.998 -0.7296  1.1420  0.6723
14408SOL    HW244038   7.704   7.418   0.942  0.0732 -0.1502  0.2111
14409SOL     OW44039   7.396   1.012   1.593  0.6615 -0.1140 -0.1440
14409SOL    HW144040   7.352   1.071   1.531 -0.6476 -0.5945  0.3257
14409SOL    HW244041   7.484   1.001   1.556  0.0643  0.0199 -1.6393
14410SOL     OW44042   6.889   7.145   4.369 -0.8743  0.2228 -0.0113
14410SOL    HW144043   6.946   7.133   4.445 -0.9867  1.5045  0.2826
14410SOL    HW244044   6.807   7.176   4.406 -0.4145  2.4062 -0.7778
14411SOL     OW44045   5.905   4.467   6.314  0.0640 -0.2142  0.4209
14411SOL    HW144046   5.873   4.535   6.255 -0.3584 -1.5796 -0.9842
14411SOL    HW244047   5.827   4.416   6.336  0.4278 -0.4638  1.1554
14412SOL     OW44048   7.673   2.759   6.323 -0.4570  0.1307  0.3183
14412SOL    HW144049   7.747   2.818   6.338  0.2777 -0.1324 -2.0184
14412SOL    HW244050   7.597   2.817   6.315 -0.1848  0.5487  0.7200
14413SOL     OW44051   2.871   2.909   4.899  0.5887 -0.7255  0.1223
14413SOL    HW144052   2.903   2.864   4.978 -0.1173 -0.2675  0.6814
14413SOL    HW244053   2.943   2.965   4.872  0.6535 -0.4889  0.7643
14414SOL     OW44054   3.521   6.278   1.757  0.0002 -0.0909  0.2322
14414SOL    HW144055   3.568   6.338   1.814 -1.4728  1.1040  0.2276
14414SOL    HW244056   3.450   6.243   1.812 -0.6151  0.0492 -0.4575
14415SOL     OW44057   2.304   4.937   2.965  0.0678  0.7755 -0.5870
14415SOL    HW144058   2.295   4.847   2.933  0.5950  0.3285  0.5074
14415SOL    HW244059   2.337   4.985   2.889 -0.0973  0.0290 -1.1486
14416SOL     OW44060   4.916   5.648   3.735 -0.2845 -0.0612  0.4172
14416SOL    HW144061   4.884   5.721   3.789  1.5568  2.2874 -1.5108
14416SOL    HW244062   5.004   5.630   3.769 -0.9188 -1.7471  1.1998
14417SOL     OW44063   6.738   5.521   2.712 -0.5893  0.0844 -0.2132
14417SOL    HW144064   6.797   5.496   2.641  1.8878  3.1110  0.6975
14417SOL    HW244065   6.696   5.439   2.738  3.3478 -2.2336 -0.7683
14418SOL     OW44066   1.399   0.228   7.139 -0.4147 -0.1260 -0.6006
14418SOL    HW144067   1.457   0.171   7.190 -1.4408  0.1456  0.8961
14418SOL    HW244068   1.377   0.299   7.199 -0.5860  0.9159 -1.8654
14419SOL     OW44069   2.217   3.104   0.517 -0.3893  0.3146  0.0203
14419SOL    HW144070   2.224   3.199   0.512  0.6400  0.2300 -0.2886
14419SOL    HW244071   2.299   3.076   0.557 -0.4822 -0.4750 -0.3300
14420SOL     OW44072   2.173   0.119   3.297 -0.5156  0.3951 -0.3728
14420SOL    HW144073   2.133   0.033   3.285 -2.2526  1.3950 -2.0258
14420SOL    HW244074   2.266   0.106   3.276 -0.4293 -1.4218  1.0605
14421SOL     OW44075   4.659   2.304   6.102 -0.0396  0.3136  0.7404
14421SOL    HW144076   4.647   2.398   6.120  0.1473 -0.2358  4.0233
14421SOL    HW244077   4.598   2.261   6.161  1.8677 -1.7218  1.2926
14422SOL     OW44078   7.474   4.739   7.061 -0.1393 -0.0262  0.0345
14422SOL    HW144079   7.472   4.709   6.970  1.0100 -0.7561  0.2422
14422SOL    HW244080   7.562   4.774   7.074 -0.4539  0.5289  0.7289
14423SOL     OW44081   2.361   7.653   1.141 -0.1480 -0.7585  0.1442
14423SOL    HW144082   2.383   7.561   1.153 -1.4499 -1.3521 -1.7581
14423SOL    HW244083   2.402   7.677   1.058 -0.0182  0.3047  0.5088
14424SOL     OW44084   7.369   3.110   4.322  0.0779  0.2701 -0.9148
14424SOL    HW144085   7.403   3.113   4.411 -2.5536  1.8059  0.0787
14424SOL    HW244086   7.420   3.175   4.274  0.7764  0.1966 -0.2742
14425SOL     OW44087   5.288   5.048   6.319  0.5299  0.7115 -0.1860
14425SOL    HW144088   5.336   5.065   6.400  0.3952  2.3884 -0.4433
14425SOL    HW244089   5.350   5.066   6.249  0.9473 -1.6931 -0.4621
14426SOL     OW44090   2.633   6.305   7.174  0.2125  0.2126 -0.0656
14426SOL    HW144091   2.552   6.327   7.220  0.8040  0.6660  0.7726
14426SOL    HW244092   2.691   6.379   7.190  0.1187  0.8211 -2.3357
14427SOL     OW44093   1.910   5.384   3.641  0.3496 -0.4796  0.3521
14427SOL    HW144094   1.823   5.407   3.610 -0.2141 -2.3605  0.4934
14427SOL    HW244095   1.957   5.356   3.563  0.7563  0.2769  0.3186
14428SOL     OW44096   2.948   0.078   5.788 -0.6919 -0.4818  0.3869
14428SOL    HW144097   2.947   0.029   5.706 -1.1021 -0.8383  0.6031
14428SOL    HW244098   2.881   0.145   5.777  0.8802  0.9661 -0.4743
14429SOL     OW44099   2.139   1.761   2.516 -0.0357 -0.1070  0.0597
14429SOL    HW144100   2.187   1.717   2.445  0.3884  0.9097 -0.2975
14429SOL    HW244101   2.155   1.854   2.501 -0.0915  0.1240  1.4022
14430SOL     OW44102   2.964   4.973   2.077 -0.9272 -0.0648 -0.0604
14430SOL    HW144103   2.970   5.022   1.995  0.0928  1.1119  0.6940
14430SOL    HW244104   2.993   4.885   2.054  1.4158  0.7780 -0.5399
14431SOL     OW44105   0.475   6.446   5.790  0.5481  0.1652 -0.2715
14431SOL    HW144106   0.444   6.360   5.761 -0.8975  1.4982 -2.7195
14431SOL    HW244107   0.422   6.466   5.867 -0.3742 -0.3105 -0.7822
14432SOL     OW44108   7.253   2.746   1.533 -0.0956  0.0227 -0.4996
14432SOL    HW144109   7.343   2.779   1.532 -0.1992  0.4507  2.0970
14432SOL    HW244110   7.223   2.760   1.622 -2.0269 -2.1127 -0.7689
14433SOL     OW44111   4.168   6.735   1.723  0.1622  0.1037  0.1056
14433SOL    HW144112   4.163   6.830   1.727  0.4770  0.1423 -0.4014
14433SOL    HW244113   4.241   6.717   1.665  0.0119 -0.4486  0.0828
14434SOL     OW44114   5.606   1.773   1.128 -0.5934  0.1741 -0.0655
14434SOL    HW144115   5.565   1.788   1.212 -1.0563  0.8219 -0.4086
14434SOL    HW244116   5.549   1.710   1.084  0.1746 -0.9269  0.4949
14435SOL     OW44117   5.366   7.067   2.090  0.3133  0.2480 -0.4173
14435SOL    HW144118   5.397   7.154   2.115  2.6571 -0.9367  0.9517
14435SOL    HW244119   5.432   7.007   2.125 -2.6963 -2.2783  1.1242
14436SOL     OW44120   6.621   1.570   1.815  0.1128 -0.1209 -0.3089
14436SOL    HW144121   6.694   1.533   1.765  0.7331  1.0496 -0.2913
14436SOL    HW244122   6.546   1.515   1.792  1.6131 -3.3661  2.1338
14437SOL     OW44123   6.651   5.016   3.964 -0.0082  0.0721  0.1462
14437SOL    HW144124   6.579   5.079   3.964  0.3657  0.5155  1.2716
14437SOL    HW244125   6.610   4.932   3.947 -0.8437  0.2777  1.1195
14438SOL     OW44126   4.872   5.813   7.434 -0.0696  0.1503  0.9075
14438SOL    HW144127   4.787   5.857   7.441  0.3561  0.9635  1.0932
14438SOL    HW244128   4.851   5.720   7.438 -0.9377  0.3455  1.1694
14439SOL     OW44129   3.207   1.393   1.808  0.3381  0.0655  0.0553
14439SOL    HW144130   3.148   1.380   1.883  0.8245  1.4257  0.6753
14439SOL    HW244131   3.183   1.479   1.773  0.7876 -0.1365 -0.7530
14440SOL     OW44132   0.014   0.846   7.072 -0.2123 -0.0992  0.3824
14440SOL    HW144133   0.084   0.882   7.127 -0.5221  0.0429  0.6857
14440SOL    HW244134  -0.009   0.763   7.114  1.4303 -1.3212 -1.0772
14441SOL     OW44135   0.408   5.294   1.497 -0.5332 -0.1437 -0.5325
14441SOL    HW144136   0.402   5.263   1.588 -0.9550  1.8088  0.1266
14441SOL    HW244137   0.488   5.253   1.463 -0.3948 -0.9317  0.6937
14442SOL     OW44138   7.208   2.161   4.809  0.4032  0.1857  0.4546
14442SOL    HW144139   7.164   2.089   4.853  1.2968 -1.2308 -0.9193
14442SOL    HW244140   7.196   2.236   4.868 -1.6508 -0.7533  1.2825
14443SOL     OW44141   4.470   2.183   4.916  0.1164 -0.0731 -0.2118
14443SOL    HW144142   4.420   2.102   4.919  1.1224 -0.7176 -0.9496
14443SOL    HW244143   4.558   2.159   4.944  1.1889  0.1675 -3.2348
14444SOL     OW44144   3.999   5.372   1.741  0.4542 -0.0546 -0.3987
14444SOL    HW144145   3.988   5.464   1.764 -0.6486 -0.2479 -0.0758
14444SOL    HW244146   3.969   5.325   1.819  1.1299 -0.6833 -0.5189
14445SOL     OW44147   5.353   5.991   6.445  1.0536  0.4725  0.0548
14445SOL    HW144148   5.368   5.922   6.510  0.2163 -0.6037 -0.8674
14445SOL    HW244149   5.431   5.989   6.390  1.2512  0.6037  0.3286
14446SOL     OW44150   3.277   0.442   3.290 -0.1579 -0.3651 -0.2619
14446SOL    HW144151   3.335   0.400   3.226  0.2092 -0.0489 -0.1432
14446SOL    HW244152   3.325   0.520   3.317 -0.7011 -0.0361 -0.2504
14447SOL     OW44153   6.151   5.509   6.279 -0.1800 -0.1391 -0.3025
14447SOL    HW144154   6.167   5.460   6.198 -1.2607  0.1248 -0.6811
14447SOL    HW244155   6.065   5.479   6.308 -0.3943  0.7839  0.0094
14448SOL     OW44156   4.801   2.925   0.648  0.3891  0.1045 -0.1851
14448SOL    HW144157   4.766   2.912   0.736  0.5815  1.6945  0.1535
14448SOL    HW244158   4.770   2.850   0.598 -2.0317  0.5626  0.5641
14449SOL     OW44159   3.819   5.828   1.192  0.0837  1.1909  0.0173
14449SOL    HW144160   3.896   5.780   1.220  1.4016  2.1273 -1.8517
14449SOL    HW244161   3.778   5.772   1.126 -2.0250 -0.2222  2.4280
14450SOL     OW44162   5.918   4.746   4.595  0.0703 -0.4357 -0.4835
14450SOL    HW144163   5.850   4.804   4.560 -0.7857 -1.6507 -0.8788
14450SOL    HW244164   5.930   4.774   4.685  0.0551  0.7026 -0.8226
14451SOL     OW44165   3.144   7.385   2.971 -0.5339  0.1716 -0.4441
14451SOL    HW144166   3.203   7.310   2.973 -0.0840  0.5343  1.9090
14451SOL    HW244167   3.081   7.367   3.042 -2.9347  0.0456 -2.5448
14452SOL     OW44168   3.768   3.550   1.246 -0.4871  0.5093 -0.3771
14452SOL    HW144169   3.707   3.534   1.174  0.1423  1.4156 -1.1340
14452SOL    HW244170   3.753   3.478   1.307 -1.0358 -0.2684 -1.4077
14453SOL     OW44171   5.128   4.754   6.982 -0.3018  0.5189  1.1082
14453SOL    HW144172   5.061   4.807   6.939  0.6475  1.3641  0.6532
14453SOL    HW244173   5.079   4.691   7.034 -1.4461  1.2336  0.9062
14454SOL     OW44174   4.667   7.177   4.647  0.3743 -0.1103  0.8310
14454SOL    HW144175   4.656   7.271   4.659 -0.9062 -0.2102  0.4964
14454SOL    HW244176   4.726   7.150   4.717 -0.7382  0.6346  2.0619
14455SOL     OW44177   1.102   0.926   1.782 -0.0563  0.4388 -0.7098
14455SOL    HW144178   1.011   0.906   1.804  0.0133  0.1615 -0.6802
14455SOL    HW244179   1.118   1.011   1.823 -0.2121  0.3543 -0.4740
14456SOL     OW44180   0.732   1.662   3.600  0.2708 -0.2667 -0.4128
14456SOL    HW144181   0.690   1.668   3.514 -1.0793  1.3938  0.3446
14456SOL    HW244182   0.717   1.572   3.629  0.1308 -0.6276 -1.5917
14457SOL     OW44183   6.991   4.733   7.108 -0.4905  0.8316 -0.2623
14457SOL    HW144184   6.954   4.786   7.180 -1.5157 -0.9432  0.5489
14457SOL    HW244185   7.078   4.708   7.139  0.0217  2.0735 -0.6708
14458SOL     OW44186   5.657   2.740   4.303  0.1675 -0.2572 -0.1645
14458SOL    HW144187   5.638   2.832   4.284 -2.2616 -0.6902 -0.0074
14458SOL    HW244188   5.715   2.712   4.233  0.8481  1.3625 -0.2654
14459SOL     OW44189   6.808   7.429   6.581 -0.1362  0.2228  0.1312
14459SOL    HW144190   6.810   7.339   6.548 -0.7113  0.8019 -1.5347
14459SOL    HW244191   6.896   7.443   6.617  0.5137 -0.4658 -1.1243
14460SOL     OW44192   5.752   2.668   1.338  0.2264  0.2623  0.0415
14460SOL    HW144193   5.811   2.739   1.313  2.6015 -1.2890  0.9424
14460SOL    HW244194   5.769   2.655   1.432 -2.9036  0.9465  0.7434
14461SOL     OW44195   6.420   0.605   2.167 -0.0241  0.4591 -0.3815
14461SOL    HW144196   6.435   0.679   2.108  0.9023  0.5282 -0.0747
14461SOL    HW244197   6.330   0.578   2.149  0.8608 -0.7522 -3.2095
14462SOL     OW44198   6.946   4.462   3.145 -0.3468  0.3056  0.3197
14462SOL    HW144199   6.880   4.510   3.096  1.9849  1.4168 -1.8638
14462SOL    HW244200   6.900   4.386   3.181 -2.7425  0.9336 -1.3299
14463SOL     OW44201   0.298   6.556   6.367  0.2928  0.4831  0.2524
14463SOL    HW144202   0.312   6.473   6.412  1.0634  0.7529  0.5038
14463SOL    HW244203   0.368   6.561   6.302 -2.2038 -1.0937 -2.7499
14464SOL     OW44204   0.287   0.080   1.615  0.2678  0.0690 -0.5804
14464SOL    HW144205   0.261   0.126   1.536 -2.2742 -1.5467 -0.7314
14464SOL    HW244206   0.299  -0.011   1.588  0.3252 -0.3229  0.7006
14465SOL     OW44207   7.587   0.027   5.508  0.2849  0.6656 -0.7547
14465SOL    HW144208   7.632   0.058   5.429  0.8698  1.0256 -0.2784
14465SOL    HW244209   7.651   0.037   5.578 -0.4208  0.8603 -0.1308
14466SOL     OW44210   6.722   7.705   6.435  0.3255  0.2712  0.3673
14466SOL    HW144211   6.767   7.621   6.444 -0.2259 -0.1677 -0.7911
14466SOL    HW244212   6.664   7.709   6.512  1.3863  0.2513  1.1752
14467SOL     OW44213   2.183   6.036   4.798  0.0260 -0.1894 -0.3773
14467SOL    HW144214   2.230   6.069   4.721  0.7099  1.1185  0.5776
14467SOL    HW244215   2.099   6.081   4.796  0.1381  0.0288 -0.2340
14468SOL     OW44216   2.447   7.271   3.608 -0.5739  0.3823  0.6646
14468SOL    HW144217   2.396   7.214   3.549  0.9263 -0.8267  0.5101
14468SOL    HW244218   2.430   7.234   3.695 -1.9856  1.5557  0.9122
14469SOL     OW44219   7.399   3.575   2.712 -0.1096 -0.1181 -0.1835
14469SOL    HW144220   7.413   3.482   2.694 -0.6248 -0.2415  0.0415
14469SOL    HW244221   7.461   3.620   2.654 -1.2780 -0.5218 -1.8036
14470SOL     OW44222   5.137   0.174   1.372 -0.2685  0.3269 -0.4743
14470SOL    HW144223   5.077   0.203   1.440 -0.4740  0.4097 -0.6907
14470SOL    HW244224   5.213   0.140   1.420 -0.1328  0.9848 -0.2198
14471SOL     OW44225   5.326   1.415   4.883  0.4086 -0.6817  0.2357
14471SOL    HW144226   5.415   1.412   4.918  0.5136 -0.2282  0.0089
14471SOL    HW244227   5.270   1.414   4.961  0.6069 -1.1222  0.3739
14472SOL     OW44228   1.624   5.077   0.695 -0.1714  0.2261 -0.4461
14472SOL    HW144229   1.592   5.146   0.637  0.9602 -0.5965 -2.0852
14472SOL    HW244230   1.578   5.091   0.778 -1.0048  2.0693 -1.2134
14473SOL     OW44231   5.245   7.534   4.435  0.4330 -0.0713  0.0657
14473SOL    HW144232   5.163   7.517   4.389  1.3579  0.1068 -1.6799
14473SOL    HW244233   5.240   7.480   4.514 -0.8683 -0.9324 -0.5947
14474SOL     OW44234   6.985   3.315   1.555  0.4687 -0.4375  0.0417
14474SOL    HW144235   6.993   3.232   1.507 -0.5030 -0.1145 -0.6851
14474SOL    HW244236   7.002   3.291   1.647 -0.3924 -1.5430 -0.0802
14475SOL     OW44237   3.012   5.210   6.704  0.5912  0.3452 -0.6626
14475SOL    HW144238   2.976   5.122   6.695 -1.0364  0.9407 -0.1218
14475SOL    HW244239   3.006   5.229   6.797 -0.4979  1.6085 -0.9725
14476SOL     OW44240   0.820   7.125   2.288 -0.5181  0.0916 -0.4594
14476SOL    HW144241   0.774   7.190   2.234  3.4536  2.3946 -1.2243
14476SOL    HW244242   0.866   7.069   2.225  1.7549  0.9497  0.3960
14477SOL     OW44243   6.211   5.470   4.916 -0.4775 -0.0926 -0.3181
14477SOL    HW144244   6.262   5.501   4.842 -0.2325  0.4952  0.0898
14477SOL    HW244245   6.271   5.475   4.990 -0.4375 -1.5641 -0.2419
14478SOL     OW44246   5.272   5.820   0.691 -0.5606  0.2279 -0.0720
14478SOL    HW144247   5.264   5.792   0.782 -3.2689  0.0075 -0.3623
14478SOL    HW244248   5.304   5.910   0.697 -1.7155  0.5788  1.1345
14479SOL     OW44249   6.305   2.884   1.263 -0.2538 -0.1095  0.2304
14479SOL    HW144250   6.223   2.931   1.277  0.7703  1.2318  1.9749
14479SOL    HW244251   6.349   2.887   1.348  2.2533  0.4871 -1.0225
14480SOL     OW44252   4.456   1.479   7.625  0.0214  0.8867 -0.6685
14480SOL    HW144253   4.446   1.396   7.673 -0.6134  0.5970 -1.2947
14480SOL    HW244254   4.440   1.546   7.691 -0.6066  0.4907 -0.4020
14481SOL     OW44255   1.632   7.113   7.403 -0.0476 -0.4459  0.6055
14481SOL    HW144256   1.584   7.091   7.483  2.1398 -1.9645  1.5673
14481SOL    HW244257   1.723   7.119   7.432  0.6013  0.3156 -1.5400
14482SOL     OW44258   5.981   1.818   5.864  0.0296  0.4071  0.1915
14482SOL    HW144259   6.057   1.765   5.888  0.3917  0.6226 -0.4505
14482SOL    HW244260   5.907   1.758   5.863  0.3129  0.0627  0.1849
14483SOL     OW44261   7.818   1.347   5.304 -0.9824 -0.6881  0.1473
14483SOL    HW144262   7.879   1.391   5.245 -2.2157  0.3243 -0.4048
14483SOL    HW244263   7.861   1.348   5.389  0.8042 -2.1363 -0.6985
14484SOL     OW44264   1.276   4.127   7.834 -0.2429  0.7244 -0.3088
14484SOL    HW144265   1.269   4.032   7.830 -0.1163  0.7870 -2.3885
14484SOL    HW244266   1.205   4.154   7.892  0.5965 -0.7237  1.4598
14485SOL     OW44267   5.520   3.156   3.334  0.7755  0.7193  0.1493
14485SOL    HW144268   5.483   3.068   3.337  2.6730 -0.1734 -1.7006
14485SOL    HW244269   5.573   3.163   3.414  0.4203  0.2934  0.4230
14486SOL     OW44270   0.321   4.053   2.483 -0.0311 -0.2827 -1.0039
14486SOL    HW144271   0.305   4.055   2.577  0.5839 -0.3372 -0.8926
14486SOL    HW244272   0.357   3.966   2.467 -0.2863 -0.3293 -1.3122
14487SOL     OW44273   3.221   5.116   3.876  0.2123 -0.3798 -0.3177
14487SOL    HW144274   3.174   5.033   3.883  0.7896 -0.6310  0.6446
14487SOL    HW244275   3.236   5.128   3.782 -0.6066 -0.9412 -0.5266
14488SOL     OW44276   2.658   7.748   7.559 -0.3967  0.0005 -0.2711
14488SOL    HW144277   2.724   7.677   7.558 -0.7460 -0.3806  1.2887
14488SOL    HW244278   2.708   7.826   7.582 -0.3071 -0.1011 -0.1137
14489SOL     OW44279   4.335   4.564   3.665 -0.4173 -0.2081 -0.2736
14489SOL    HW144280   4.258   4.591   3.616 -1.3752 -0.5144  1.0450
14489SOL    HW244281   4.315   4.475   3.695  0.2757 -0.1295  0.4493
14490SOL     OW44282   3.848   2.913   4.249  0.4222  0.5186  0.1193
14490SOL    HW144283   3.782   2.935   4.315  0.1447 -1.6622  0.6146
14490SOL    HW244284   3.835   2.978   4.180 -1.2127  1.0782  0.9235
14491SOL     OW44285   0.428   6.201   6.023 -0.4884 -0.5473 -0.2058
14491SOL    HW144286   0.372   6.270   5.987 -1.0745 -1.1782 -0.5242
14491SOL    HW244287   0.426   6.132   5.957  2.3178  0.2427 -1.1591
14492SOL     OW44288   4.888   4.180   5.160 -0.3832 -0.1229 -0.2022
14492SOL    HW144289   4.828   4.253   5.148 -1.1683 -0.5415  1.0418
14492SOL    HW244290   4.973   4.213   5.130 -1.2997  0.3447 -2.2941
14493SOL     OW44291   1.561   3.339   1.035  0.8973 -0.7687 -0.0795
14493SOL    HW144292   1.471   3.365   1.052  1.4395  0.7586  0.4974
14493SOL    HW244293   1.557   3.291   0.952 -0.0738  1.4600 -1.3515
14494SOL     OW44294   7.878   7.390   3.716  0.2434 -0.1017  0.6846
14494SOL    HW144295   7.829   7.315   3.683 -0.2120  0.0574  0.9789
14494SOL    HW244296   7.968   7.359   3.725  0.1831 -0.4228  0.2068
14495SOL     OW44297   6.471   2.124   7.658  0.4889 -0.0831  0.0516
14495SOL    HW144298   6.512   2.200   7.617 -0.9136 -0.2109 -1.6609
14495SOL    HW244299   6.391   2.158   7.698  0.7266 -0.3592  0.7737
14496SOL     OW44300   2.845   4.794   3.278 -0.1450 -0.0614 -0.2705
14496SOL    HW144301   2.767   4.741   3.265  0.3273 -0.8473  0.0976
14496SOL    HW244302   2.906   4.738   3.326 -0.4230  1.5215  1.9898
14497SOL     OW44303   3.212   0.810   2.672 -0.4427 -0.0569 -0.3210
14497SOL    HW144304   3.186   0.881   2.731 -2.1335 -0.4039 -0.6260
14497SOL    HW244305   3.144   0.809   2.604  0.2325 -1.1658 -0.9977
14498SOL     OW44306   6.662   4.661   0.973  0.1765 -0.1984 -0.2694
14498SOL    HW144307   6.757   4.655   0.986  0.3642  1.4943 -0.6789
14498SOL    HW244308   6.650   4.743   0.925 -1.5957  0.1286  0.6887
14499SOL     OW44309   6.614   0.154   4.963  0.1221  0.2378  0.2901
14499SOL    HW144310   6.693   0.192   5.002  1.9229 -1.6742 -1.3957
14499SOL    HW244311   6.647   0.097   4.894 -2.7761 -0.4109 -0.5943
14500SOL     OW44312   3.543   2.006   1.036 -0.0291  0.0923  0.0328
14500SOL    HW144313   3.458   2.031   1.073  0.1066  0.3123  0.1997
14500SOL    HW244314   3.538   1.911   1.028  1.1634 -0.4007  3.8077
14501SOL     OW44315   5.222   3.611   0.865  0.2021 -0.2385  1.0514
14501SOL    HW144316   5.171   3.673   0.916 -1.4726 -2.4281  2.1288
14501SOL    HW244317   5.207   3.636   0.774 -0.1718  1.1067  1.4673
14502SOL     OW44318   3.937   4.008   0.152  0.1656 -0.0605  0.3032
14502SOL    HW144319   3.990   3.953   0.210  1.6530 -1.1784 -2.0549
14502SOL    HW244320   3.903   4.077   0.209  0.3145 -1.9948  2.8047
14503SOL     OW44321   2.635   4.266   3.589  0.0304  0.3291 -0.1645
14503SOL    HW144322   2.709   4.307   3.634  0.6787 -0.2034 -0.7282
14503SOL    HW244323   2.630   4.310   3.505  0.5006 -0.4776 -0.6258
14504SOL     OW44324   3.970   1.638   3.993 -0.1061 -0.0332 -0.4638
14504SOL    HW144325   3.956   1.543   3.992 -0.9376  0.1024 -1.2702
14504SOL    HW244326   3.901   1.674   3.939 -0.2129  1.1076  0.4035
14505SOL     OW44327   2.648   4.334   7.440  0.2921  0.0357 -0.1037
14505SOL    HW144328   2.553   4.326   7.450  0.4271 -1.4029  0.1883
14505SOL    HW244329   2.683   4.282   7.513  1.2908 -0.0751 -0.6663
14506SOL     OW44330   5.607   7.525   0.717 -0.3351  0.2082 -0.4454
14506SOL    HW144331   5.653   7.470   0.780  0.6241 -0.7275 -1.9175
14506SOL    HW244332   5.656   7.513   0.635 -2.5937 -0.0484 -1.8132
14507SOL     OW44333   3.307   3.089   4.247 -0.2327  0.4126  0.6109
14507SOL    HW144334   3.253   3.015   4.218  0.7446 -0.1183  0.1075
14507SOL    HW244335   3.250   3.140   4.304 -1.0864 -0.4517  0.5384
14508SOL     OW44336   4.203   3.478   4.244 -0.0253  0.5566  0.1685
14508SOL    HW144337   4.277   3.430   4.282 -0.8340 -1.5712 -0.8470
14508SOL    HW244338   4.231   3.499   4.155 -0.4446  0.1186 -0.0746
14509SOL     OW44339   7.501   5.263   4.997 -0.0719  0.4760 -0.7303
14509SOL    HW144340   7.442   5.217   4.938 -0.5337 -0.1770  0.2181
14509SOL    HW244341   7.575   5.289   4.942  0.1143 -1.2607 -1.3275
14510SOL     OW44342   0.887   3.556   6.024 -0.3726 -0.2146  0.6258
14510SOL    HW144343   0.804   3.593   5.995  0.4117  1.1093  0.0205
14510SOL    HW244344   0.863   3.480   6.075 -1.9503 -0.0329  0.1691
14511SOL     OW44345   2.785   7.636   2.267 -0.2271 -0.5463  0.2693
14511SOL    HW144346   2.793   7.670   2.356 -1.9233 -0.8304  0.5511
14511SOL    HW244347   2.870   7.655   2.226 -0.5547  2.5876  0.9052
14512SOL     OW44348   0.407   0.527   6.493 -0.5666 -0.1801 -0.3584
14512SOL    HW144349   0.486   0.580   6.501 -0.7590 -0.2418  2.2995
14512SOL    HW244350   0.438   0.437   6.492 -0.3569 -0.1116 -3.2501
14513SOL     OW44351   6.227   0.819   6.765 -0.0951 -0.6070  0.0500
14513SOL    HW144352   6.197   0.895   6.815 -0.8096 -1.2765  0.6495
14513SOL    HW244353   6.175   0.746   6.799  0.0699 -1.2350 -1.0267
14514SOL     OW44354   0.569   3.795   0.231  0.5326 -0.2386  0.4583
14514SOL    HW144355   0.574   3.792   0.136 -0.9876  0.3657  0.3419
14514SOL    HW244356   0.476   3.805   0.250  0.7635 -0.8584  2.0287
14515SOL     OW44357   4.706   0.886   3.086 -0.2365  0.8950  0.8214
14515SOL    HW144358   4.759   0.818   3.128  1.0313  2.6372  2.1051
14515SOL    HW244359   4.616   0.856   3.097  0.4046 -1.7505 -0.7559
14516SOL     OW44360   5.071   6.949   6.191  0.0882 -0.4372 -0.3270
14516SOL    HW144361   5.087   7.041   6.213  1.3084 -0.7365  0.0631
14516SOL    HW244362   4.976   6.942   6.188 -0.0337  0.6611  0.4412
14517SOL     OW44363   3.958   2.409   2.357  0.4934 -0.1785  0.6820
14517SOL    HW144364   3.966   2.487   2.303  0.4995 -0.6469  0.0062
14517SOL    HW244365   4.006   2.431   2.437  1.5706  0.0588 -0.0123
14518SOL     OW44366   7.484   7.016   3.525  0.4684  0.6771 -0.6435
14518SOL    HW144367   7.483   7.005   3.430 -1.8507 -2.0415 -0.3859
14518SOL    HW244368   7.396   7.046   3.547  0.5513 -0.0446  0.7595
14519SOL     OW44369   0.809   5.136   2.781  0.4311 -0.1565 -0.1979
14519SOL    HW144370   0.843   5.225   2.787  1.1588 -0.4933  0.9425
14519SOL    HW244371   0.881   5.085   2.742 -0.0680 -0.2040 -1.0671
14520SOL     OW44372   1.202   6.996   4.429  0.4764  0.2252  0.2574
14520SOL    HW144373   1.288   6.954   4.442  0.6609  1.3837  3.2585
14520SOL    HW244374   1.223   7.085   4.400  0.3449  0.7104  1.6061
14521SOL     OW44375   5.806   3.910   4.290  0.0635  0.0169 -0.1770
14521SOL    HW144376   5.882   3.941   4.338  1.9728 -0.3444 -2.8521
14521SOL    HW244377   5.744   3.883   4.357  2.5204 -0.2128  2.0608
14522SOL     OW44378   7.460   3.730   4.650  0.4067  0.5769 -0.2111
14522SOL    HW144379   7.459   3.665   4.579  0.5019 -0.3872  0.6451
14522SOL    HW244380   7.417   3.807   4.613  0.0814 -0.0553 -1.1797
14523SOL     OW44381   5.526   1.403   0.177 -0.2764 -0.6761  0.3195
14523SOL    HW144382   5.446   1.353   0.192 -0.4863 -0.8566 -1.2918
14523SOL    HW244383   5.499   1.495   0.181 -0.9225 -0.7449 -1.9478
14524SOL     OW44384   4.530   5.906   1.037 -0.2752  0.2387  0.1796
14524SOL    HW144385   4.434   5.910   1.039 -0.2122  1.6288  1.2220
14524SOL    HW244386   4.552   5.904   0.944 -1.1997  4.0458 -0.2066
14525SOL     OW44387   3.218   4.980   6.230  0.0943  0.4512  0.0276
14525SOL    HW144388   3.193   5.070   6.210  0.5825  0.6140  0.1430
14525SOL    HW244389   3.194   4.931   6.152 -0.8115  0.5598  0.2332
14526SOL     OW44390   4.048   7.873   6.938 -0.1243 -1.0894  0.1655
14526SOL    HW144391   3.953   7.871   6.949 -0.2319  0.5503 -0.3464
14526SOL    HW244392   4.065   7.810   6.867 -0.8874 -1.0139 -0.0936
14527SOL     OW44393   0.816   3.530   3.815  0.2000  0.0025  0.2925
14527SOL    HW144394   0.745   3.574   3.863  2.4919 -0.3090  4.2634
14527SOL    HW244395   0.855   3.599   3.762 -0.3339  1.2473  1.4743
14528SOL     OW44396   5.713   1.424   4.347 -0.1293  0.3515  0.1413
14528SOL    HW144397   5.783   1.378   4.300 -0.8804 -2.5835  1.7808
14528SOL    HW244398   5.758   1.474   4.415  0.5380  0.1777 -0.1734
14529SOL     OW44399   2.156   6.050   6.625  0.2544  0.1817  0.0612
14529SOL    HW144400   2.143   5.964   6.665 -0.3498 -0.3107 -1.1689
14529SOL    HW244401   2.240   6.081   6.659  0.6791 -1.0860  0.1559
14530SOL     OW44402   6.436   4.613   3.195  0.1415  0.0393 -0.5325
14530SOL    HW144403   6.509   4.588   3.138 -0.3161 -0.7417 -0.7839
14530SOL    HW244404   6.359   4.578   3.151 -0.0317 -2.3507  1.5673
14531SOL     OW44405   7.138   2.526   4.867  0.0839  0.2124 -0.3777
14531SOL    HW144406   7.064   2.500   4.813 -0.3333 -0.2678  0.4060
14531SOL    HW244407   7.107   2.603   4.914 -0.3665 -0.7136  0.8762
14532SOL     OW44408   7.297   6.629   7.804  0.3146 -0.2623  0.6008
14532SOL    HW144409   7.251   6.659   7.725 -0.3057 -1.7789  0.3769
14532SOL    HW244410   7.389   6.652   7.787 -0.0503  0.9210  0.1629
14533SOL     OW44411   0.293   2.092   0.183 -0.6408 -0.9371 -0.0760
14533SOL    HW144412   0.303   2.021   0.246 -0.8530  0.7608  1.9242
14533SOL    HW244413   0.201   2.091   0.158 -0.2340 -2.6006 -1.5865
14534SOL     OW44414   1.559   5.934   6.203 -0.5133 -0.2198 -0.0533
14534SOL    HW144415   1.568   5.847   6.242  1.1635 -0.2496 -0.4965
14534SOL    HW244416   1.467   5.938   6.175 -0.5486 -1.9174 -0.2238
14535SOL     OW44417   3.073   1.487   6.055  0.7196 -0.0317  0.2221
14535SOL    HW144418   3.157   1.510   6.017  0.6226  1.0762  0.6553
14535SOL    HW244419   3.057   1.397   6.027  2.4922 -0.5826  0.9602
14536SOL     OW44420   1.968   1.498   7.139  0.9034  0.0026  0.0868
14536SOL    HW144421   1.954   1.418   7.190 -1.6429 -1.6516 -3.0136
14536SOL    HW244422   1.906   1.560   7.176 -1.0416 -1.2333 -0.9947
14537SOL     OW44423   2.672   5.362   2.507  0.1482  0.1793  0.0669
14537SOL    HW144424   2.614   5.358   2.431 -0.3796  1.6166  0.3760
14537SOL    HW244425   2.640   5.292   2.565 -0.9205  0.5864 -0.0114
14538SOL     OW44426   5.844   2.831   5.279 -0.2879 -0.0493  0.0022
14538SOL    HW144427   5.757   2.862   5.305 -0.3029 -1.3315  1.5689
14538SOL    HW244428   5.831   2.738   5.261  1.0733 -0.6290  1.8690
14539SOL     OW44429   0.859   1.169   0.605 -0.0972  0.0136 -0.1934
14539SOL    HW144430   0.781   1.168   0.660  1.1887  1.1210  1.7181
14539SOL    HW244431   0.903   1.086   0.623 -0.4169 -0.2590 -0.6612
14540SOL     OW44432   4.740   7.082   2.643  0.5587 -0.4217  0.3959
14540SOL    HW144433   4.758   7.125   2.727 -0.1252 -0.5541  0.6122
14540SOL    HW244434   4.818   7.028   2.626 -0.6473 -2.9288  2.5401
14541SOL     OW44435   4.136   6.180   4.991 -0.0407  0.6157  0.0048
14541SOL    HW144436   4.115   6.178   5.084  1.8430  1.7526  0.4655
14541SOL    HW244437   4.093   6.101   4.956  1.7428 -1.5142  2.3860
14542SOL     OW44438   7.293   7.412   4.863 -0.4191 -0.3020  0.3066
14542SOL    HW144439   7.233   7.395   4.935 -0.4692  2.4513  0.9637
14542SOL    HW244440   7.239   7.404   4.784 -0.7547 -1.6352  0.6684
14543SOL     OW44441   4.908   1.848   5.479 -0.5729  1.0639 -0.9278
14543SOL    HW144442   4.987   1.882   5.521  0.0892 -1.0864 -0.3946
14543SOL    HW244443   4.839   1.862   5.545  0.1129 -0.6213  0.1716
14544SOL     OW44444   2.800   5.848   5.339  0.1021  0.1530 -0.3387
14544SOL    HW144445   2.891   5.848   5.368 -0.4286 -2.6256  1.5935
14544SOL    HW244446   2.750   5.869   5.418 -0.9999 -0.0991 -0.9637
14545SOL     OW44447   5.160   7.908   6.432 -0.5828  0.0270 -0.2493
14545SOL    HW144448   5.170   7.858   6.351 -0.3190 -0.1492 -0.1088
14545SOL    HW244449   5.138   7.842   6.498 -1.3148  0.2323 -0.2788
14546SOL     OW44450   2.815   3.067   3.243 -0.2881  0.1265 -0.0116
14546SOL    HW144451   2.797   3.106   3.329 -0.5819 -2.6877  1.2307
14546SOL    HW244452   2.729   3.043   3.210  0.0569 -1.3490  0.1503
14547SOL     OW44453   4.249   5.124   6.719 -0.4193  0.2069  0.3618
14547SOL    HW144454   4.298   5.151   6.641 -0.6836 -1.0978 -0.2637
14547SOL    HW244455   4.304   5.152   6.792  1.6689 -1.9475 -0.3362
14548SOL     OW44456   1.949   5.285   3.396 -0.3177  0.5143 -0.4850
14548SOL    HW144457   1.950   5.315   3.305  1.9236 -0.8174 -0.9646
14548SOL    HW244458   1.906   5.200   3.392 -2.5678  1.5880  0.1482
14549SOL     OW44459   7.540   4.514   1.667  0.0855  0.3719  0.5749
14549SOL    HW144460   7.506   4.587   1.718 -1.5473 -0.1888  0.3095
14549SOL    HW244461   7.546   4.547   1.578  2.0304  1.0485  0.9247
14550SOL     OW44462   2.903   7.147   7.953 -0.1085 -0.0586 -0.7187
14550SOL    HW144463   2.923   7.119   8.042 -0.1644 -1.0311 -0.9996
14550SOL    HW244464   2.860   7.071   7.913 -2.4276  1.2489 -0.7945
14551SOL     OW44465   5.212   7.101   3.315 -0.4480 -0.5251 -0.3491
14551SOL    HW144466   5.147   7.140   3.256  0.1063 -2.2099 -2.1144
14551SOL    HW244467   5.292   7.098   3.264  0.4562 -0.5988  1.0402
14552SOL     OW44468   4.670   7.692   6.114 -0.3946  0.0620 -0.5093
14552SOL    HW144469   4.722   7.738   6.180 -0.5465 -0.5750  0.0564
14552SOL    HW244470   4.717   7.707   6.032  0.9750 -0.9352  0.0810
14553SOL     OW44471   7.937   4.676   5.894 -0.5772  0.0768  0.2151
14553SOL    HW144472   7.950   4.686   5.800  3.5205  0.2480  0.7040
14553SOL    HW244473   7.915   4.584   5.906 -2.6469  0.3897 -1.0097
14554SOL     OW44474   5.315   4.242   1.532  0.1975  0.4711  0.4082
14554SOL    HW144475   5.382   4.292   1.578 -0.3683 -0.0628  1.8390
14554SOL    HW244476   5.340   4.151   1.546 -1.5361  0.2363  2.0474
14555SOL     OW44477   7.650   3.320   7.274 -0.4411 -0.1770  0.1946
14555SOL    HW144478   7.586   3.310   7.345  0.4786 -0.1487  1.0401
14555SOL    HW244479   7.708   3.245   7.283 -0.1420 -0.0108 -0.3382
14556SOL     OW44480   6.069   4.411   1.012 -0.7196  0.4753 -0.6088
14556SOL    HW144481   6.017   4.445   0.940 -1.2429 -0.2120 -0.5666
14556SOL    HW244482   6.100   4.325   0.982 -0.1371  0.6044 -0.3901
14557SOL     OW44483   1.764   3.763   5.048  0.0510  0.0251 -0.4428
14557SOL    HW144484   1.774   3.857   5.032  0.0436  0.1276  0.1556
14557SOL    HW244485   1.794   3.722   4.967  1.0699  0.4973 -0.3132
14558SOL     OW44486   1.833   1.254   6.167  0.2552 -0.5308  0.0461
14558SOL    HW144487   1.810   1.255   6.074  2.3889 -1.0393 -0.5179
14558SOL    HW244488   1.920   1.294   6.171 -1.5989  3.6038  2.4014
14559SOL     OW44489   2.520   4.172   2.494  0.0797 -0.5615  0.4351
14559SOL    HW144490   2.573   4.103   2.454  2.1558 -0.2999  2.6106
14559SOL    HW244491   2.553   4.178   2.583  0.0295  3.3435  0.2603
14560SOL     OW44492   5.195   6.247   2.109 -0.5557  0.7119 -0.2455
14560SOL    HW144493   5.190   6.340   2.088 -1.6818  0.7455  0.2068
14560SOL    HW244494   5.289   6.229   2.113 -0.3355  1.7652 -0.5789
14561SOL     OW44495   3.628   0.262   4.249  0.2665 -0.1504  0.1297
14561SOL    HW144496   3.612   0.263   4.155 -0.8585 -1.6428  0.2929
14561SOL    HW244497   3.695   0.329   4.263  0.5371 -0.0226 -1.7450
14562SOL     OW44498   0.890   4.333   6.250  0.0063  0.2224  0.3066
14562SOL    HW144499   0.914   4.316   6.159 -2.4504 -1.3088 -0.0912
14562SOL    HW244500   0.934   4.264   6.300 -1.0510 -0.7250 -0.0618
14563SOL     OW44501   1.323   7.712   7.519  0.6646  0.4898  0.9808
14563SOL    HW144502   1.362   7.649   7.580 -0.1689 -0.3329  0.6714
14563SOL    HW244503   1.241   7.739   7.561 -0.0094 -0.2222  0.1488
14564SOL     OW44504   2.622   5.524   3.271 -0.0231  0.6233  0.1503
14564SOL    HW144505   2.644   5.606   3.226  0.5664 -0.4414 -1.5135
14564SOL    HW244506   2.673   5.527   3.352 -2.0981  3.1772  1.4511
14565SOL     OW44507   4.324   4.132   5.325 -0.0835  0.2640  0.2444
14565SOL    HW144508   4.399   4.089   5.366 -0.2943 -0.1383  0.2059
14565SOL    HW244509   4.256   4.064   5.320  0.1195  0.1515 -1.2464
14566SOL     OW44510   4.075   3.272   2.236  0.0192 -0.3634  0.5537
14566SOL    HW144511   4.128   3.328   2.179  0.2133 -0.0233  1.0663
14566SOL    HW244512   4.009   3.332   2.272  1.2900 -0.0718  2.4810
14567SOL     OW44513   7.026   0.497   2.050  0.4606  0.0695 -0.0237
14567SOL    HW144514   6.942   0.468   2.086  0.3097  0.5830  0.0508
14567SOL    HW244515   7.003   0.542   1.968  0.7735 -0.8152 -0.6060
14568SOL     OW44516   6.303   1.793   4.762  0.1149  0.8597  0.2118
14568SOL    HW144517   6.318   1.715   4.708 -0.2244  0.6827  0.3688
14568SOL    HW244518   6.372   1.854   4.737  0.7135  0.2938  0.4817
14569SOL     OW44519   1.327   0.677   5.475 -0.0410  0.1057 -0.0661
14569SOL    HW144520   1.376   0.650   5.553 -0.8685 -0.8895  0.1117
14569SOL    HW244521   1.358   0.618   5.406  0.6256  0.9292 -0.4760
14570SOL     OW44522   6.621   3.000   6.992 -0.6661  0.3304 -0.0375
14570SOL    HW144523   6.667   3.004   7.076  0.6436  1.5602 -0.7755
14570SOL    HW244524   6.588   3.089   6.979 -2.9044 -0.4398  0.2678
14571SOL     OW44525   6.320   5.931   7.780  0.3709 -0.7269  0.3038
14571SOL    HW144526   6.236   5.954   7.739 -0.6366 -1.2936  1.9789
14571SOL    HW244527   6.386   5.974   7.726 -1.2275  2.8802  1.0657
14572SOL     OW44528   1.257   4.921   1.352 -0.3478  0.1897 -0.8297
14572SOL    HW144529   1.178   4.959   1.315  0.0848  0.8942 -1.0431
14572SOL    HW244530   1.226   4.857   1.416 -1.0639  2.0771  0.7378
14573SOL     OW44531   0.455   2.656   2.687 -0.1192 -0.2010 -0.3071
14573SOL    HW144532   0.449   2.707   2.606  2.6890  0.3054 -0.2381
14573SOL    HW244533   0.475   2.567   2.659 -0.5291 -0.3184 -0.2287
14574SOL     OW44534   0.743   1.320   1.702 -0.0580  0.1426 -0.2898
14574SOL    HW144535   0.677   1.386   1.680 -1.1397 -1.4111 -1.8835
14574SOL    HW244536   0.797   1.361   1.769 -0.8892  2.5214 -1.0317
14575SOL     OW44537   5.002   5.216   1.846 -0.3832  0.0414 -0.0253
14575SOL    HW144538   4.997   5.304   1.884  2.0868 -0.5780  1.8517
14575SOL    HW244539   4.912   5.195   1.822 -1.0694  2.9452 -0.2333
14576SOL     OW44540   2.644   3.811   3.909 -0.2169  0.5599  0.2593
14576SOL    HW144541   2.731   3.788   3.943 -0.6700 -0.1984  0.9166
14576SOL    HW244542   2.662   3.879   3.843  0.8578  0.5294  0.4996
14577SOL     OW44543   7.295   2.624   3.074 -0.6038 -0.1071 -0.6271
14577SOL    HW144544   7.305   2.679   3.152 -0.5078 -1.6054  0.4224
14577SOL    HW244545   7.337   2.675   3.004  1.8668 -0.0263  0.8629
14578SOL     OW44546   5.320   4.684   0.057  0.1412 -0.0145  0.9076
14578SOL    HW144547   5.375   4.762   0.058 -1.7006  1.3059  1.8766
14578SOL    HW244548   5.270   4.691  -0.024 -0.1108 -0.1039  1.0539
14579SOL     OW44549   2.224   3.324   1.001 -0.7149 -0.4927 -0.3039
14579SOL    HW144550   2.185   3.394   1.054 -0.6759  0.9008 -2.0684
14579SOL    HW244551   2.286   3.282   1.060  0.3780  1.9473  0.3905
14580SOL     OW44552   5.211   5.547   7.716 -0.1265 -0.0109 -0.2319
14580SOL    HW144553   5.193   5.632   7.676 -1.1003 -0.7625 -1.4230
14580SOL    HW244554   5.129   5.522   7.758  0.5630  0.2540  1.3278
14581SOL     OW44555   7.714   6.291   1.436 -0.0125 -0.0791  0.0102
14581SOL    HW144556   7.710   6.374   1.388  0.4952  0.2552  0.5294
14581SOL    HW244557   7.764   6.232   1.380 -1.5552 -0.4651 -0.9809
14582SOL     OW44558   0.743   7.656   1.598 -0.1829 -0.0320 -0.0236
14582SOL    HW144559   0.728   7.749   1.585 -0.8761 -0.2821 -1.1137
14582SOL    HW244560   0.656   7.620   1.616  0.2667 -0.2610  1.8305
14583SOL     OW44561   3.619   6.773   0.357 -0.4475  0.0482  0.2607
14583SOL    HW144562   3.648   6.691   0.398 -1.2880 -0.8439 -0.8792
14583SOL    HW244563   3.679   6.786   0.284  0.5716  1.2310  1.2767
14584SOL     OW44564   4.546   0.464   3.815 -0.0531  0.5452 -0.0024
14584SOL    HW144565   4.570   0.454   3.907  2.5321  0.3742 -0.6471
14584SOL    HW244566   4.510   0.552   3.809  0.2870  0.7619  1.0559
14585SOL     OW44567   4.836   4.946   1.578 -0.1713 -0.5187 -0.1255
14585SOL    HW144568   4.795   5.015   1.630  0.1680  0.0757 -0.6397
14585SOL    HW244569   4.889   4.896   1.641 -0.4214 -0.3177  0.2442
14586SOL     OW44570   3.509   7.196   5.719 -0.6364 -0.3388 -0.1876
14586SOL    HW144571   3.485   7.170   5.629 -0.8217 -0.5604 -0.0748
14586SOL    HW244572   3.552   7.118   5.755  0.8812  0.2815 -0.6220
14587SOL     OW44573   7.018   5.137   7.267 -0.2914 -0.1765  0.7678
14587SOL    HW144574   6.971   5.172   7.342  1.0815 -0.7052  1.8796
14587SOL    HW244575   7.039   5.213   7.214 -0.7824  0.2536  1.1866
14588SOL     OW44576   0.983   1.480   0.812  0.1775 -0.2536 -0.1670
14588SOL    HW144577   0.892   1.453   0.824  0.2662 -0.9473 -0.9958
14588SOL    HW244578   1.003   1.533   0.889 -0.2928 -1.7631  1.0139
14589SOL     OW44579   5.131   2.314   6.277 -0.2184  0.0754  0.0401
14589SOL    HW144580   5.042   2.349   6.283  0.1463  0.8566  1.1604
14589SOL    HW244581   5.168   2.329   6.364  0.9466 -0.4195 -0.3631
14590SOL     OW44582   7.265   5.930   5.164  0.4636 -0.3929  0.5998
14590SOL    HW144583   7.251   5.973   5.248  0.8834 -0.7108  0.8345
14590SOL    HW244584   7.185   5.946   5.115  0.0779 -0.5099  1.1924
14591SOL     OW44585   0.442   1.686   0.490 -0.7088  1.0082 -0.0290
14591SOL    HW144586   0.439   1.609   0.433 -0.4180  0.6545  0.4242
14591SOL    HW244587   0.525   1.676   0.537 -1.7343  0.4202  1.6790
14592SOL     OW44588   7.191   5.918   3.952  0.0427  0.2382 -0.3015
14592SOL    HW144589   7.101   5.920   3.920  1.0039 -2.0389 -3.4378
14592SOL    HW244590   7.241   5.967   3.887  1.1392  1.2628  1.2783
14593SOL     OW44591   5.825   1.579   4.792  0.3437  0.8892  0.1022
14593SOL    HW144592   5.871   1.663   4.788  1.3589  0.3671  0.9804
14593SOL    HW244593   5.744   1.599   4.840  0.3225  1.4760 -0.1649
14594SOL     OW44594   2.532   0.547   6.189 -0.1021 -0.0411  0.0862
14594SOL    HW144595   2.536   0.473   6.128 -0.3645  1.0410 -1.2538
14594SOL    HW244596   2.482   0.513   6.264  0.1991 -1.3657 -0.2973
14595SOL     OW44597   1.389   4.238   4.982  0.1044 -0.0988  0.1815
14595SOL    HW144598   1.447   4.243   4.906  0.3637  0.0106  0.3860
14595SOL    HW244599   1.339   4.319   4.980 -0.3928 -0.4118 -0.2754
14596SOL     OW44600   4.690   1.466   1.456  0.1516 -0.1144 -0.1073
14596SOL    HW144601   4.673   1.406   1.384  1.9625 -0.5303 -0.2166
14596SOL    HW244602   4.644   1.428   1.531 -0.2499 -0.6390 -0.6196
14597SOL     OW44603   7.156   2.021   1.809 -0.1327  0.2553 -0.2810
14597SOL    HW144604   7.244   2.056   1.824  0.4613 -1.1146 -0.4419
14597SOL    HW244605   7.126   2.064   1.730 -0.4968  2.3629  0.9775
14598SOL     OW44606   7.161   5.637   0.715  0.6225 -0.0383  0.2769
14598SOL    HW144607   7.120   5.551   0.714  0.7055 -0.0698 -0.9336
14598SOL    HW244608   7.092   5.696   0.745 -0.0660 -0.2180 -0.9139
14599SOL     OW44609   7.438   1.484   7.561  0.3571 -0.8798 -0.4663
14599SOL    HW144610   7.503   1.459   7.495  1.5977  3.3138 -0.9523
14599SOL    HW244611   7.357   1.494   7.511  0.2900 -1.8494 -0.5787
14600SOL     OW44612   7.946   0.233   7.239  0.3441  0.4403 -0.5813
14600SOL    HW144613   8.027   0.215   7.190  1.1175  1.7234  0.1848
14600SOL    HW244614   7.958   0.187   7.322  0.4772  0.9579 -0.3077
14601SOL     OW44615   2.789   0.162   7.995 -0.1898 -0.2394 -0.1666
14601SOL    HW144616   2.874   0.191   8.027  0.0840 -0.6307 -0.5528
14601SOL    HW244617   2.747   0.242   7.963 -0.0590 -0.0124  0.2153
14602SOL     OW44618   3.407   4.346   4.839 -0.2381  0.5362  0.0857
14602SOL    HW144619   3.417   4.300   4.922  0.0259 -0.1708 -0.3366
14602SOL    HW244620   3.392   4.277   4.774  0.5198  1.0014 -0.6018
14603SOL     OW44621   4.050   3.652   0.462  0.1941  0.5735 -0.2181
14603SOL    HW144622   4.008   3.570   0.491  0.5993  0.0607 -1.0605
14603SOL    HW244623   4.143   3.636   0.472  0.3430  0.4079 -1.7148
14604SOL     OW44624   5.357   5.390   2.554  0.6790  0.1041 -0.2887
14604SOL    HW144625   5.267   5.385   2.522  0.5813 -0.7254  0.1218
14604SOL    HW244626   5.404   5.433   2.482  0.0811 -0.0086 -0.7616
14605SOL     OW44627   6.448   4.848   4.228  0.1306  0.2094 -0.4732
14605SOL    HW144628   6.516   4.904   4.189  0.2378  1.4896  1.4893
14605SOL    HW244629   6.479   4.759   4.212  1.4224  0.7501 -1.0861
14606SOL     OW44630   7.020   2.785   7.387 -0.2076 -0.2965 -0.0835
14606SOL    HW144631   6.946   2.834   7.351 -1.3271 -1.2166  0.9192
14606SOL    HW244632   7.017   2.802   7.481 -1.1782 -2.9356  0.4344
14607SOL     OW44633   6.583   7.562   7.041  0.5266 -0.0104 -0.6724
14607SOL    HW144634   6.638   7.492   7.077  3.3108  0.9638 -2.8071
14607SOL    HW244635   6.628   7.643   7.068 -2.1116  0.9969  0.9502
14608SOL     OW44636   7.980   2.186   1.848  0.1370  0.0307 -0.2855
14608SOL    HW144637   7.929   2.267   1.847 -2.3899 -1.4975 -2.1649
14608SOL    HW244638   8.038   2.193   1.772 -0.4983 -0.1673 -0.7900
14609SOL     OW44639   6.215   4.610   2.496 -0.0278 -0.6287 -0.1592
14609SOL    HW144640   6.301   4.579   2.523  0.2145  0.3783  0.2108
14609SOL    HW244641   6.165   4.530   2.481  1.6979 -1.2837 -2.7613
14610SOL     OW44642   5.749   5.540   7.953  0.2546 -0.3070  0.0539
14610SOL    HW144643   5.774   5.621   7.999 -0.3200 -0.1405  0.0884
14610SOL    HW244644   5.673   5.566   7.900  0.9016 -0.5069 -0.9686
14611SOL     OW44645   3.021   1.022   2.742 -0.1208 -0.8048  0.2897
14611SOL    HW144646   2.927   1.008   2.730 -0.1415  0.0363 -0.4891
14611SOL    HW244647   3.028   1.056   2.831 -0.4075 -2.3144  0.9066
14612SOL     OW44648   6.874   2.465   6.944  0.0893  0.4102  0.3715
14612SOL    HW144649   6.805   2.457   7.011  1.5230  0.4948  1.8774
14612SOL    HW244650   6.907   2.376   6.933  1.4422  0.7482  1.5091
14613SOL     OW44651   0.306   7.735   4.917  0.4361  0.0154 -0.1582
14613SOL    HW144652   0.390   7.781   4.913  0.3987  0.0502 -0.5588
14613SOL    HW244653   0.314   7.666   4.851 -0.3361  0.8235 -1.1180
14614SOL     OW44654   6.420   1.783   3.756 -0.0844  0.0062 -0.2730
14614SOL    HW144655   6.468   1.862   3.731  0.4761  1.0278  3.6819
14614SOL    HW244656   6.488   1.724   3.788 -0.8618 -0.7594 -0.0370
14615SOL     OW44657   1.629   4.960   0.380 -0.3523  0.2511 -0.7295
14615SOL    HW144658   1.716   4.930   0.408 -0.0204  0.8627 -1.1001
14615SOL    HW244659   1.616   5.043   0.427 -0.5034  0.4358 -1.1025
14616SOL     OW44660   2.894   2.289   0.221 -0.7139  0.0496  0.3952
14616SOL    HW144661   2.947   2.326   0.150  0.4754 -0.3844  1.0450
14616SOL    HW244662   2.848   2.364   0.259  2.4798  1.0968  2.3781
14617SOL     OW44663   0.986   4.429   4.891 -0.4031  0.2023 -0.0736
14617SOL    HW144664   0.912   4.387   4.848 -0.1362 -0.7244  0.3797
14617SOL    HW244665   0.982   4.520   4.860 -0.3018 -0.4046 -1.9422
14618SOL     OW44666   3.290   1.583   4.662 -0.6355 -0.0750 -0.0303
14618SOL    HW144667   3.378   1.618   4.674 -0.8130  0.9865 -1.6017
14618SOL    HW244668   3.304   1.501   4.615 -0.4899  0.2389 -0.5440
14619SOL     OW44669   1.954   5.911   0.561  0.1678  0.0758 -0.1489
14619SOL    HW144670   1.988   5.936   0.647 -0.6985  0.0061  0.2211
14619SOL    HW244671   1.950   5.993   0.512  1.1370  0.0392 -0.2951
14620SOL     OW44672   4.057   1.851   2.516  0.7912  0.3658 -0.2409
14620SOL    HW144673   4.052   1.760   2.489 -1.0639  0.2480  0.4221
14620SOL    HW244674   4.045   1.901   2.435 -1.1495 -0.0021 -0.2218
14621SOL     OW44675   2.105   1.098   1.966 -0.3639  0.0788 -0.3791
14621SOL    HW144676   2.167   1.170   1.977  0.3444 -0.6334  0.2863
14621SOL    HW244677   2.136   1.030   2.026 -1.7704 -0.2906 -0.0621
14622SOL     OW44678   4.595   3.498   3.202  0.1006  0.7809  0.1004
14622SOL    HW144679   4.621   3.588   3.182 -1.4849  1.0491 -0.8405
14622SOL    HW244680   4.515   3.507   3.252 -1.8369 -0.1322 -2.6995
14623SOL     OW44681   3.385   6.567   4.736  0.1337  0.0283  0.1479
14623SOL    HW144682   3.476   6.593   4.721  0.1971 -1.0861 -1.5642
14623SOL    HW244683   3.373   6.577   4.830  1.8991  0.6278  0.3352
14624SOL     OW44684   5.540   4.900   1.495  0.3435 -0.4153 -0.3127
14624SOL    HW144685   5.513   4.955   1.422 -0.3911 -0.9756 -0.4763
14624SOL    HW244686   5.495   4.817   1.480  0.3103 -0.5912  0.6885
14625SOL     OW44687   5.461   1.813   4.047  0.3951  0.8063  0.3642
14625SOL    HW144688   5.384   1.757   4.058 -0.0677  1.8808  2.7078
14625SOL    HW244689   5.531   1.768   4.095  0.6206  1.0789  0.2933
14626SOL     OW44690   1.291   0.544   1.228  0.0093  0.1944 -0.1348
14626SOL    HW144691   1.269   0.455   1.257 -1.0158  0.5973  0.3313
14626SOL    HW244692   1.387   0.543   1.222  0.0223 -0.8821  0.0721
14627SOL     OW44693   7.263   2.881   0.179  0.6149  0.4227  0.6359
14627SOL    HW144694   7.262   2.966   0.225  2.1698  0.9409 -0.2340
14627SOL    HW244695   7.355   2.869   0.155  0.1975 -0.9493 -0.2950
14628SOL     OW44696   1.024   2.098   7.949  0.1307 -0.0314  0.3750
14628SOL    HW144697   1.071   2.034   8.003 -1.4918 -0.4115  1.3693
14628SOL    HW244698   0.936   2.099   7.986 -0.4408  1.1878 -1.0259
14629SOL     OW44699   4.881   1.382   6.842 -0.2439 -0.0002  0.5029
14629SOL    HW144700   4.790   1.367   6.867 -0.4398 -0.5852 -0.5297
14629SOL    HW244701   4.932   1.345   6.913 -0.8243  1.8137  1.8849
14630SOL     OW44702   0.578   6.919   4.931  0.5320 -0.1888 -0.4151
14630SOL    HW144703   0.524   6.866   4.990 -0.3222 -0.4586 -1.4160
14630SOL    HW244704   0.660   6.869   4.922  1.5069  0.8780  2.1562
14631SOL     OW44705   3.678   3.482   1.668  0.1748 -0.5462  0.2658
14631SOL    HW144706   3.640   3.570   1.673  0.1389 -0.5672  0.3804
14631SOL    HW244707   3.772   3.497   1.656 -0.0494 -0.5025 -1.4691
14632SOL     OW44708   6.965   4.844   5.142  0.1750  0.9868  0.6142
14632SOL    HW144709   6.935   4.772   5.198  1.0599  0.6563  0.6807
14632SOL    HW244710   6.885   4.890   5.117 -0.6143 -1.1438 -0.9698
14633SOL     OW44711   1.682   5.531   3.530 -0.5496  0.1328 -0.4402
14633SOL    HW144712   1.642   5.533   3.617 -0.2559 -2.0979 -0.2345
14633SOL    HW244713   1.609   5.515   3.471 -0.6281  0.8017 -0.5261
14634SOL     OW44714   1.407   0.279   5.929  0.5943 -0.3347 -0.4803
14634SOL    HW144715   1.442   0.233   6.005  0.9041 -0.8003 -0.9014
14634SOL    HW244716   1.383   0.209   5.868 -0.2537  0.0114 -0.5523
14635SOL     OW44717   5.082   5.258   1.555 -0.4976  0.1757  0.2929
14635SOL    HW144718   5.035   5.283   1.634  0.1937  1.8721  0.1872
14635SOL    HW244719   5.063   5.328   1.493  0.7751  0.0022 -0.3097
14636SOL     OW44720   3.435   0.897   6.396 -0.6040 -0.0858 -0.1403
14636SOL    HW144721   3.481   0.848   6.464 -0.6567  1.4399  1.0247
14636SOL    HW244722   3.488   0.886   6.318  2.0244  1.9381  1.2657
14637SOL     OW44723   7.339   3.400   0.534 -0.4812  0.5076  0.3136
14637SOL    HW144724   7.430   3.405   0.566  0.8076 -1.2393 -2.8387
14637SOL    HW244725   7.304   3.321   0.576 -0.2912  0.7382  0.9149
14638SOL     OW44726   0.618   0.201   4.487  0.3675  0.1541  0.4384
14638SOL    HW144727   0.548   0.256   4.523 -0.2112 -0.1516 -0.2060
14638SOL    HW244728   0.640   0.140   4.557 -0.1734  0.1045  0.5668
14639SOL     OW44729   2.748   0.355   1.310 -0.2678  0.1699 -0.1378
14639SOL    HW144730   2.711   0.442   1.322  0.7872  0.7477 -0.9184
14639SOL    HW244731   2.841   0.366   1.327 -0.1237 -0.8021 -0.2564
14640SOL     OW44732   2.968   0.163   2.069 -0.4614  0.2571  0.1340
14640SOL    HW144733   2.982   0.211   2.150  2.4171  0.4679 -0.4226
14640SOL    HW244734   2.873   0.152   2.063 -0.8001  1.3831  2.8381
14641SOL     OW44735   0.249   4.713   5.972 -0.4694  0.1753 -0.4547
14641SOL    HW144736   0.173   4.680   5.924  0.6905 -1.8985 -0.9176
14641SOL    HW244737   0.301   4.758   5.906  0.2091 -1.0712 -0.7824
14642SOL     OW44738   5.592   7.240   0.275 -0.0239 -0.2174  0.0039
14642SOL    HW144739   5.528   7.197   0.218  0.5438 -0.8626 -0.1455
14642SOL    HW244740   5.551   7.324   0.298 -1.3354 -1.0263  0.6716
14643SOL     OW44741   0.216   7.159   1.558  0.7006  0.4024 -0.5567
14643SOL    HW144742   0.125   7.176   1.583  0.2132 -1.2610 -1.1264
14643SOL    HW244743   0.252   7.108   1.630  1.8808  2.9627  0.7208
14644SOL     OW44744   1.772   4.022   7.444  0.2479  0.0665  0.1303
14644SOL    HW144745   1.794   4.083   7.514 -0.2120  0.0857  0.2605
14644SOL    HW244746   1.851   4.017   7.391  0.2054  0.9899 -0.0294
14645SOL     OW44747   3.687   3.031   1.179  0.2276 -0.5688  0.7815
14645SOL    HW144748   3.704   2.937   1.185 -1.5068 -1.0686 -1.3232
14645SOL    HW244749   3.626   3.049   1.251  0.0255 -1.1911  0.7687
14646SOL     OW44750   0.715   3.411   0.205  0.0374  0.0052 -0.1634
14646SOL    HW144751   0.761   3.333   0.177 -1.4664 -0.7660 -0.5559
14646SOL    HW244752   0.659   3.434   0.130 -0.8348  0.4095  0.5948
14647SOL     OW44753   2.420   4.479   0.906  0.4996  0.3456  0.1167
14647SOL    HW144754   2.349   4.505   0.847 -0.0927 -1.2785  0.0903
14647SOL    HW244755   2.426   4.550   0.969 -1.8243  0.0442  0.7110
14648SOL     OW44756   5.894   6.780   6.416  0.0490  0.1828  0.4063
14648SOL    HW144757   5.917   6.722   6.489  0.1420 -1.7299 -1.0798
14648SOL    HW244758   5.802   6.760   6.399 -0.0460  0.8191  0.1705
14649SOL     OW44759   7.475   0.317   6.990  0.4319  0.0418 -0.1412
14649SOL    HW144760   7.535   0.271   7.049 -0.1721 -0.5039  0.0471
14649SOL    HW244761   7.508   0.297   6.902 -1.3503 -2.9378 -0.2045
14650SOL     OW44762   0.219   3.266   0.288 -0.3528  0.6229 -0.5035
14650SOL    HW144763   0.305   3.226   0.273 -1.2442 -1.8652  0.6484
14650SOL    HW244764   0.237   3.359   0.299  1.9565  0.4239 -2.2996
14651SOL     OW44765   4.014   2.022   4.167 -0.7688  0.1026 -0.1807
14651SOL    HW144766   4.066   1.945   4.142 -0.2475  0.1561  0.7033
14651SOL    HW244767   3.992   2.064   4.084 -0.0417 -0.3396 -0.6049
14652SOL     OW44768   2.916   2.412   5.911 -0.1652  0.3005  0.5792
14652SOL    HW144769   2.864   2.481   5.951 -0.8452 -1.2415  2.4546
14652SOL    HW244770   2.967   2.375   5.983  0.1986 -1.1162 -0.3787
14653SOL     OW44771   5.041   0.641   2.448 -0.7565 -0.4670 -0.7226
14653SOL    HW144772   5.036   0.546   2.455 -1.3882 -0.2600  1.9967
14653SOL    HW244773   4.985   0.663   2.374  2.0564 -2.4409 -3.5915
14654SOL     OW44774   0.057   5.331   4.640 -0.0610  0.0890  0.4006
14654SOL    HW144775   0.099   5.403   4.687  1.0742  0.3093 -0.9250
14654SOL    HW244776  -0.022   5.371   4.602 -0.3507  0.2013  1.1050
14655SOL     OW44777   7.203   1.502   0.945  0.3419  0.2445 -0.4418
14655SOL    HW144778   7.296   1.489   0.925  0.5664  0.9057  0.1706
14655SOL    HW244779   7.159   1.431   0.899  0.9927  0.8778 -2.0744
14656SOL     OW44780   6.732   2.391   0.381 -0.1253 -0.3263 -0.1801
14656SOL    HW144781   6.827   2.377   0.379 -0.2728 -1.4124  0.0743
14656SOL    HW244782   6.713   2.434   0.297  0.4429 -1.1157 -0.7236
14657SOL     OW44783   4.980   1.177   0.866  0.1434 -0.4508 -0.5720
14657SOL    HW144784   5.054   1.117   0.864  0.0587 -0.5964  0.7773
14657SOL    HW244785   4.979   1.216   0.778  0.2487 -2.3287 -1.4183
14658SOL     OW44786   0.226   6.608   1.241  0.2167 -0.0463 -0.4976
14658SOL    HW144787   0.252   6.650   1.159  0.9622  1.7041  0.6204
14658SOL    HW244788   0.135   6.634   1.254  0.1477 -0.1944 -0.6794
14659SOL     OW44789   2.454   7.545   0.182 -0.3174 -0.0690 -0.5387
14659SOL    HW144790   2.528   7.484   0.180 -1.3482 -1.3172 -0.4787
14659SOL    HW244791   2.496   7.631   0.193  1.1349 -0.7462 -0.5753
14660SOL     OW44792   2.797   5.378   2.170 -0.8485  0.6165  0.2441
14660SOL    HW144793   2.796   5.359   2.264 -0.4858  1.0815  0.3452
14660SOL    HW244794   2.710   5.352   2.140 -0.8349  0.0988  0.6327
14661SOL     OW44795   0.663   6.025   6.727  0.2628  0.0050  0.3317
14661SOL    HW144796   0.591   6.028   6.790 -0.8171  1.6788 -0.9227
14661SOL    HW244797   0.631   6.075   6.652  2.0962 -0.6748 -0.9435
14662SOL     OW44798   2.286   7.049   1.247 -0.4668  0.0682  0.5765
14662SOL    HW144799   2.214   7.063   1.309 -0.9303  0.7651 -0.1145
14662SOL    HW244800   2.269   7.112   1.177 -0.2311 -1.0762 -0.5130
14663SOL     OW44801   1.416   2.657   4.346 -0.2348 -0.0461  0.0619
14663SOL    HW144802   1.419   2.745   4.382  1.8983  0.1727 -0.6157
14663SOL    HW244803   1.502   2.620   4.364 -1.1126 -2.0150  0.3656
14664SOL     OW44804   6.817   4.296   2.846 -0.2444 -0.2372  0.1029
14664SOL    HW144805   6.845   4.211   2.880  1.4725  0.7931  1.3535
14664SOL    HW244806   6.723   4.286   2.830 -0.6966 -1.4618  3.1727
14665SOL     OW44807   0.568   1.580   5.261 -0.2668 -0.3349  0.3564
14665SOL    HW144808   0.631   1.598   5.331 -0.2291  1.9945 -0.2425
14665SOL    HW244809   0.610   1.511   5.209  1.0056 -0.0455  0.9611
14666SOL     OW44810   2.143   5.057   6.199 -0.0024 -0.1597 -0.0025
14666SOL    HW144811   2.084   5.017   6.135 -0.3037 -0.6260  0.5630
14666SOL    HW244812   2.189   4.982   6.238  2.0668  0.2709 -1.5054
14667SOL     OW44813   6.534   2.153   1.203 -0.3414 -0.5199  0.1906
14667SOL    HW144814   6.547   2.191   1.116  1.0936  1.0999  1.0912
14667SOL    HW244815   6.476   2.215   1.247 -0.1303 -0.7376  0.7771
14668SOL     OW44816   6.375   7.335   7.456  0.2723  0.2639 -0.0384
14668SOL    HW144817   6.360   7.249   7.415  0.8953 -0.5876  1.4774
14668SOL    HW244818   6.337   7.397   7.394  0.7485 -1.0212 -1.6658
14669SOL     OW44819   7.702   5.823   1.654 -0.0773 -0.7823 -0.2107
14669SOL    HW144820   7.613   5.848   1.676 -0.1290 -0.1868 -1.0599
14669SOL    HW244821   7.748   5.821   1.738 -0.7862 -0.7048  0.1846
14670SOL     OW44822   4.599   4.084   2.320  0.4202 -0.7642 -0.2593
14670SOL    HW144823   4.573   4.103   2.410 -0.2962 -1.3995 -0.3284
14670SOL    HW244824   4.692   4.106   2.317  0.1379  0.5603  0.2675
14671SOL     OW44825   3.000   4.816   6.367  0.6253 -0.0826 -0.1308
14671SOL    HW144826   3.064   4.888   6.367  0.5217  0.0366 -1.9907
14671SOL    HW244827   2.959   4.820   6.280 -1.4327 -0.5960  0.7837
14672SOL     OW44828   5.951   4.528   5.312 -0.3763  0.1449  0.2190
14672SOL    HW144829   5.858   4.523   5.334 -0.5733  0.3942 -0.5493
14672SOL    HW244830   5.986   4.593   5.373 -0.7967  0.3848  0.2088
14673SOL     OW44831   7.049   5.979   3.620 -0.1274 -0.0060 -0.2701
14673SOL    HW144832   7.047   5.993   3.525  2.3424 -0.3233 -0.3836
14673SOL    HW244833   7.080   5.889   3.631 -0.7203 -0.0855  0.8431
14674SOL     OW44834   5.454   7.077   4.598  0.4321  0.1955  0.4094
14674SOL    HW144835   5.523   7.083   4.664  1.5445  1.0602 -0.8055
14674SOL    HW244836   5.498   7.097   4.516 -1.1288  0.0393 -0.4811
14675SOL     OW44837   0.655   7.492   2.417  0.3790  0.1167 -0.0623
14675SOL    HW144838   0.661   7.409   2.368  2.5653 -0.5541  1.2601
14675SOL    HW244839   0.746   7.511   2.442 -0.5556  0.9488  2.8638
14676SOL     OW44840   4.691   3.060   0.171 -0.0505  0.4285  0.3361
14676SOL    HW144841   4.757   3.074   0.238 -0.2737 -1.5205  0.9727
14676SOL    HW244842   4.619   3.016   0.216 -1.2490  1.3202 -0.6389
14677SOL     OW44843   6.703   6.673   5.074 -0.2138  0.2429 -0.1919
14677SOL    HW144844   6.775   6.701   5.017  0.0795 -1.6134 -0.7646
14677SOL    HW244845   6.624   6.693   5.024 -0.0253  0.3632 -0.4428
14678SOL     OW44846   5.710   6.675   5.034  0.2781  0.1316 -0.4389
14678SOL    HW144847   5.706   6.580   5.043 -0.1441  0.0522 -1.3573
14678SOL    HW244848   5.679   6.709   5.118 -1.0749 -0.5418 -0.6544
14679SOL     OW44849   7.961   0.423   4.579 -0.1395 -0.2378 -0.2306
14679SOL    HW144850   7.934   0.509   4.611 -0.4763  1.2428 -4.2424
14679SOL    HW244851   8.053   0.417   4.605  0.3018  1.9782 -1.1317
14680SOL     OW44852   6.355   6.403   7.730 -0.3691  0.1854  0.2834
14680SOL    HW144853   6.390   6.491   7.744 -2.2619  1.0148 -0.0655
14680SOL    HW244854   6.432   6.347   7.728  0.7662  1.6194  2.1403
14681SOL     OW44855   7.444   3.036   4.607 -0.5300 -0.4328 -0.1590
14681SOL    HW144856   7.532   3.002   4.618 -0.3054  0.3007  0.3290
14681SOL    HW244857   7.443   3.117   4.657 -1.0710  0.2757 -1.3039
14682SOL     OW44858   2.044   1.305   2.416 -0.0707  0.2936 -0.1726
14682SOL    HW144859   2.129   1.350   2.421 -0.0969  0.3661 -0.3954
14682SOL    HW244860   2.016   1.316   2.325 -0.8886  1.2984  0.1936
14683SOL     OW44861   4.221   1.416   7.803 -0.1897  0.7118 -0.4875
14683SOL    HW144862   4.127   1.431   7.793 -0.1366  0.3120 -1.6648
14683SOL    HW244863   4.232   1.323   7.785 -0.1544 -0.2788  4.1205
14684SOL     OW44864   7.055   6.941   5.977 -0.2873 -0.2659 -0.2672
14684SOL    HW144865   7.028   7.007   5.914 -2.4440  0.9454  1.8189
14684SOL    HW244866   7.125   6.982   6.028 -0.9860  0.0927  0.4183
14685SOL     OW44867   1.968   2.233   5.296 -0.5207 -0.6104 -0.0046
14685SOL    HW144868   1.892   2.239   5.238 -0.7582  1.8619  0.4975
14685SOL    HW244869   2.037   2.197   5.241 -1.4267 -0.6948 -1.1112
14686SOL     OW44870   6.001   3.351   0.168  0.3463 -0.3804 -0.4853
14686SOL    HW144871   6.058   3.278   0.144  0.3811 -0.4575 -0.1753
14686SOL    HW244872   5.914   3.312   0.173  0.4841 -0.5749  0.4653
14687SOL     OW44873   2.648   5.206   4.586  0.9545  0.6799  0.0352
14687SOL    HW144874   2.663   5.113   4.568 -0.1591 -0.0809  2.8049
14687SOL    HW244875   2.670   5.250   4.503  2.1120 -1.9583 -1.1260
14688SOL     OW44876   4.043   7.316   1.513  0.3357  0.4882 -0.8331
14688SOL    HW144877   4.005   7.231   1.536 -0.8863  0.9895 -0.9710
14688SOL    HW244878   4.127   7.317   1.559  0.0514 -0.5110 -0.2653
14689SOL     OW44879   5.895   1.960   4.536 -0.2730 -0.5666  0.4645
14689SOL    HW144880   5.975   1.999   4.501 -1.4418  1.7233  0.1842
14689SOL    HW244881   5.901   1.975   4.630  0.1094 -1.3554  0.5692
14690SOL     OW44882   7.751   5.312   1.688  0.2759 -0.2674  0.3805
14690SOL    HW144883   7.744   5.346   1.599  0.3426 -1.9633 -0.2983
14690SOL    HW244884   7.704   5.376   1.742 -0.2945  0.4679 -0.9524
14691SOL     OW44885   0.839   4.677   4.557  0.1002  0.1329  0.0237
14691SOL    HW144886   0.846   4.758   4.608  0.6394  0.5707 -0.7124
14691SOL    HW244887   0.756   4.639   4.582 -0.2271  1.0006  0.2809
14692SOL     OW44888   7.668   5.205   6.036  0.4045  0.1571  0.2561
14692SOL    HW144889   7.697   5.169   6.120  0.1859 -0.3787  0.0991
14692SOL    HW244890   7.732   5.174   5.972  1.7973  2.3043  0.5382
14693SOL     OW44891   4.300   2.474   5.635 -0.2880 -0.7076  0.3188
14693SOL    HW144892   4.214   2.433   5.643  0.4551 -2.2061  0.8743
14693SOL    HW244893   4.314   2.482   5.540 -0.4103 -1.8700  0.1886
14694SOL     OW44894   5.493   4.972   5.908  0.4979 -0.0552  0.0507
14694SOL    HW144895   5.570   4.919   5.884 -0.5265 -1.1916 -0.7636
14694SOL    HW244896   5.525   5.062   5.907  2.1965 -0.6117  1.1203
14695SOL     OW44897   2.729   0.203   0.857  0.3002  0.2925  0.2804
14695SOL    HW144898   2.701   0.289   0.825 -2.0814 -0.8308 -0.8152
14695SOL    HW244899   2.665   0.142   0.819  2.9035 -2.1622 -0.3178
14696SOL     OW44900   4.094   1.089   0.261  0.1733  0.2126  0.0866
14696SOL    HW144901   4.058   1.069   0.348 -1.7934 -0.8113 -0.9139
14696SOL    HW244902   4.188   1.094   0.275 -0.0511 -0.5239  2.1812
14697SOL     OW44903   1.090   4.102   4.702 -0.1906  0.0691 -0.1964
14697SOL    HW144904   1.007   4.063   4.728  0.0101  0.5568  1.2516
14697SOL    HW244905   1.099   4.081   4.609 -1.3550 -1.0066 -0.0777
14698SOL     OW44906   1.567   7.755   4.180 -0.9052 -0.0602  0.1295
14698SOL    HW144907   1.474   7.731   4.171 -1.5126  1.5846  1.7063
14698SOL    HW244908   1.583   7.815   4.108 -1.4652  0.7165  0.6320
14699SOL     OW44909   0.443   6.161   4.361  0.6645 -0.2550 -0.1759
14699SOL    HW144910   0.473   6.165   4.270  2.4879 -0.8590  0.3847
14699SOL    HW244911   0.522   6.143   4.412 -0.7166 -2.3843  1.3010
14700SOL     OW44912   4.809   0.028   6.541 -0.0899 -0.2505  0.3546
14700SOL    HW144913   4.826  -0.022   6.621 -0.5430 -0.9275  0.0275
14700SOL    HW244914   4.715   0.046   6.544 -0.3281 -1.2997 -0.6172
14701SOL     OW44915   3.373   2.443   0.142  0.3122  0.2599 -0.6314
14701SOL    HW144916   3.412   2.440   0.054  0.8250  2.7637 -0.5531
14701SOL    HW244917   3.310   2.515   0.137  0.5434  0.6047  1.0976
14702SOL     OW44918   0.579   0.223   4.196  0.1809 -0.1835 -0.4167
14702SOL    HW144919   0.574   0.232   4.291  2.3512 -1.1828 -0.1932
14702SOL    HW244920   0.665   0.258   4.172  0.1616 -1.0681 -1.8746
14703SOL     OW44921   2.166   5.591   0.520  0.2255  0.4347  0.8102
14703SOL    HW144922   2.123   5.593   0.605  0.1860  2.5456  0.7613
14703SOL    HW244923   2.159   5.681   0.487 -2.5323 -0.9894 -2.8404
14704SOL     OW44924   4.195   7.291   3.887 -0.3741  0.5399  0.2912
14704SOL    HW144925   4.281   7.323   3.857  1.3789 -2.3910  2.0180
14704SOL    HW244926   4.176   7.344   3.965  0.5289  0.2786  0.6970
14705SOL     OW44927   2.211   6.067   4.051 -0.1367 -0.6287 -0.2625
14705SOL    HW144928   2.238   6.117   4.128  2.1041 -0.1582 -1.3350
14705SOL    HW244929   2.137   6.014   4.082 -0.2784  0.7165  1.7924
14706SOL     OW44930   5.659   2.231   5.620 -0.0552 -0.0857 -0.5406
14706SOL    HW144931   5.666   2.324   5.644  0.0598 -0.8004  2.3916
14706SOL    HW244932   5.737   2.214   5.568  0.3282  1.2938 -0.4269
14707SOL     OW44933   0.710   4.066   0.667 -0.4060 -0.5244 -0.0808
14707SOL    HW144934   0.806   4.064   0.674 -0.5323 -0.7249  1.7208
14707SOL    HW244935   0.693   4.139   0.607  0.8755 -0.5652 -0.5275
14708SOL     OW44936   4.304   3.884   2.493  0.1495 -0.6503 -0.1516
14708SOL    HW144937   4.282   3.928   2.575  1.9112  0.0297 -0.0162
14708SOL    HW244938   4.225   3.891   2.440 -1.1148 -1.3446  1.5782
14709SOL     OW44939   6.247   5.692   4.236  0.2705 -0.1204  0.2410
14709SOL    HW144940   6.296   5.773   4.251 -0.6778  0.5074  0.0311
14709SOL    HW244941   6.177   5.717   4.176 -1.2049 -0.6454  1.6839
14710SOL     OW44942   2.538   3.863   7.175  0.0199 -0.5144 -1.1313
14710SOL    HW144943   2.583   3.853   7.258 -0.3580 -1.5364 -1.0455
14710SOL    HW244944   2.566   3.788   7.122  1.6621  1.0678 -2.5964
14711SOL     OW44945   7.806   3.398   3.776  0.9393 -0.4104  0.6120
14711SOL    HW144946   7.880   3.445   3.737  1.4372 -0.5495  1.3935
14711SOL    HW244947   7.790   3.442   3.859 -1.4194  1.1680 -0.6035
14712SOL     OW44948   3.793   6.661   0.654  0.1629  0.4458  0.3398
14712SOL    HW144949   3.827   6.588   0.602  1.3711  1.1872  0.0567
14712SOL    HW244950   3.838   6.739   0.619 -0.6127  1.2352  1.0635
14713SOL     OW44951   4.480   6.125   4.539 -0.3198  0.1884  0.7145
14713SOL    HW144952   4.516   6.043   4.505  1.7287  0.6535  1.6662
14713SOL    HW244953   4.552   6.164   4.588 -0.7824  3.2658 -0.9237
14714SOL     OW44954   5.584   0.026   4.890  0.6477  0.0804 -0.0546
14714SOL    HW144955   5.521  -0.045   4.906 -0.4556  1.3292  1.2451
14714SOL    HW244956   5.533   0.094   4.848  1.6013  0.3192 -0.8414
14715SOL     OW44957   0.548   7.071   7.356  0.4464 -0.3048  0.2162
14715SOL    HW144958   0.509   7.027   7.432  1.7336  0.4268  1.3349
14715SOL    HW244959   0.635   7.031   7.348 -0.2291 -1.4279 -1.8138
14716SOL     OW44960   4.944   1.859   6.347 -0.4719 -0.6244 -0.7018
14716SOL    HW144961   4.922   1.785   6.404  1.9266 -0.3942  0.5808
14716SOL    HW244962   4.873   1.922   6.363 -0.6520 -1.1850  0.8897
14717SOL     OW44963   5.087   7.310   7.310 -0.0091 -0.0855 -0.4551
14717SOL    HW144964   4.997   7.339   7.300 -0.4398 -0.7971  1.1716
14717SOL    HW244965   5.125   7.320   7.223 -1.1478  1.8654 -0.7627
14718SOL     OW44966   5.878   0.336   2.978  0.2146 -0.3570 -0.3358
14718SOL    HW144967   5.884   0.310   2.887  0.2336 -2.8802  0.3526
14718SOL    HW244968   5.785   0.327   3.000  0.3708 -0.7901  0.1658
14719SOL     OW44969   5.889   6.117   4.570  0.1967  0.2676 -0.5698
14719SOL    HW144970   5.873   6.210   4.581 -0.5875 -0.0209  0.8776
14719SOL    HW244971   5.804   6.076   4.587  0.1071 -0.6054 -2.8981
14720SOL     OW44972   7.703   4.322   0.905  0.1751  0.2004 -0.6986
14720SOL    HW144973   7.664   4.327   0.993 -1.1488 -1.5898 -1.1400
14720SOL    HW244974   7.797   4.320   0.920  0.0966  2.8735  0.5018
14721SOL     OW44975   0.765   3.668   0.360  0.1017  0.5297 -0.4199
14721SOL    HW144976   0.699   3.717   0.310  0.5662  0.1185 -1.4597
14721SOL    HW244977   0.750   3.577   0.335  0.9379  0.4167 -0.5245
14722SOL     OW44978   1.128   7.217   3.766 -0.2818  0.4973  0.1567
14722SOL    HW144979   1.098   7.138   3.721  1.7284  0.2830 -0.8979
14722SOL    HW244980   1.177   7.184   3.841 -0.0435  0.7339  0.1080
14723SOL     OW44981   2.219   3.406   3.450  0.8208  0.0665 -0.4384
14723SOL    HW144982   2.271   3.436   3.525  0.5880  0.2705 -0.3573
14723SOL    HW244983   2.139   3.372   3.489  1.3891 -1.3423 -0.4797
14724SOL     OW44984   7.774   7.810   1.426 -0.0777  0.3848 -1.0930
14724SOL    HW144985   7.736   7.858   1.353 -0.8340  2.8556  0.8403
14724SOL    HW244986   7.707   7.812   1.494  1.1149 -0.6878  0.1642
14725SOL     OW44987   7.922   7.741   7.897  0.0737 -0.9389 -0.4636
14725SOL    HW144988   7.849   7.759   7.955 -0.2606  0.0626 -1.1887
14725SOL    HW244989   8.000   7.764   7.947 -0.1899 -0.5112 -0.2504
14726SOL     OW44990   2.806   7.365   6.088 -0.1146 -0.0104 -0.4794
14726SOL    HW144991   2.849   7.356   6.003 -0.3695 -1.5660 -0.4737
14726SOL    HW244992   2.788   7.458   6.097  0.7091  0.2777 -1.7392
14727SOL     OW44993   6.064   4.872   4.811  0.0302 -0.0408 -0.5238
14727SOL    HW144994   6.117   4.832   4.880  0.7914  0.8288 -0.5977
14727SOL    HW244995   6.124   4.930   4.765 -0.6147 -0.1860 -1.5726
14728SOL     OW44996   3.529   1.784   6.661  0.1725  0.7319  0.0183
14728SOL    HW144997   3.616   1.791   6.701  0.4097  1.1182 -0.5425
14728SOL    HW244998   3.497   1.698   6.685  0.5630  0.7340  0.5369
14729SOL     OW44999   2.814   6.256   4.529  0.2138 -0.0791  0.2802
14729SOL    HW145000   2.736   6.293   4.488  0.7077  0.4077 -0.2141
14729SOL    HW245001   2.888   6.294   4.481  0.7575 -0.5993  0.6916
14730SOL     OW45002   6.724   1.846   0.282  0.8268 -0.0096 -1.0511
14730SOL    HW145003   6.731   1.941   0.289 -1.8346  0.0450  1.3957
14730SOL    HW245004   6.792   1.812   0.341 -0.3656  0.3923  0.5573
14731SOL     OW45005   0.237   1.794   5.691  0.3168  0.3867 -0.1325
14731SOL    HW145006   0.160   1.851   5.683 -0.7741 -0.6669  2.3486
14731SOL    HW245007   0.202   1.711   5.723  2.2387 -0.7999 -1.0809
14732SOL     OW45008   6.544   2.744   4.147  0.0206  0.4030  0.0208
14732SOL    HW145009   6.491   2.819   4.118  0.7677  0.3230 -1.5927
14732SOL    HW245010   6.504   2.718   4.230 -1.5526  1.2891 -0.4219
14733SOL     OW45011   5.736   0.535   0.541 -0.5369 -0.0586  0.1321
14733SOL    HW145012   5.831   0.529   0.548 -0.4550 -0.3766 -1.1849
14733SOL    HW245013   5.721   0.589   0.464 -1.4254 -1.8220 -0.9735
14734SOL     OW45014   2.641   2.701   3.360 -0.3196 -0.8112 -0.1556
14734SOL    HW145015   2.571   2.711   3.294 -1.8210 -0.7001  1.4193
14734SOL    HW245016   2.721   2.722   3.312 -1.1922 -2.2739 -2.3691
14735SOL     OW45017   3.421   7.213   4.890 -0.2705  0.6451  0.7450
14735SOL    HW145018   3.446   7.189   4.800  0.1681 -2.2225  1.5781
14735SOL    HW245019   3.341   7.164   4.906  0.5223 -0.1279  2.4645
14736SOL     OW45020   0.769   6.473   1.436 -0.3389  0.0937 -0.1375
14736SOL    HW145021   0.750   6.528   1.360 -0.8137  1.0290  0.6446
14736SOL    HW245022   0.782   6.535   1.508  2.6707 -0.6276  0.0366
14737SOL     OW45023   4.754   4.733   0.640  0.2299 -0.0383  0.6107
14737SOL    HW145024   4.743   4.828   0.635  3.3592  0.3225 -0.5373
14737SOL    HW245025   4.789   4.708   0.554  0.3142 -2.0985  1.2127
14738SOL     OW45026   0.898   3.566   4.413  0.4557 -0.4872  0.1631
14738SOL    HW145027   0.847   3.486   4.428 -1.4779  0.7313  0.2268
14738SOL    HW245028   0.904   3.573   4.318 -2.9723  1.4494  0.0035
14739SOL     OW45029   0.214   6.989   7.868  0.7180 -0.2851 -0.1493
14739SOL    HW145030   0.179   6.916   7.816  0.3415 -0.0161 -0.2706
14739SOL    HW245031   0.145   7.008   7.932  1.5772 -1.2760  1.1082
14740SOL     OW45032   2.452   6.636   6.811 -0.2409  0.2574  0.5544
14740SOL    HW145033   2.400   6.675   6.741 -1.6139  0.3463  1.5831
14740SOL    HW245034   2.387   6.610   6.877  1.0007  0.1046  1.7475
14741SOL     OW45035   4.457   1.100   7.484 -0.3020 -0.5052 -0.2975
14741SOL    HW145036   4.475   1.130   7.395 -0.8707  0.1300 -0.1936
14741SOL    HW245037   4.494   1.011   7.487 -1.4209 -1.0208 -1.5624
14742SOL     OW45038   4.984   6.497   3.289 -0.7792 -0.1161  0.1055
14742SOL    HW145039   4.982   6.402   3.281  2.9441 -0.2657 -0.0529
14742SOL    HW245040   5.012   6.528   3.203 -1.6447  1.1170  0.2534
14743SOL     OW45041   4.617   6.492   6.286  0.0055 -0.2879  0.0375
14743SOL    HW145042   4.632   6.446   6.369 -2.8515  0.5344  1.0826
14743SOL    HW245043   4.690   6.554   6.280  1.6295 -2.0819  0.6641
14744SOL     OW45044   1.890   0.891   4.138  0.0367 -0.3349 -0.4608
14744SOL    HW145045   1.865   0.813   4.188  0.1419  1.1422  2.0267
14744SOL    HW245046   1.928   0.950   4.204  0.9035  1.4058 -2.4565
14745SOL     OW45047   5.187   5.691   3.862  0.3836 -0.5298  0.0636
14745SOL    HW145048   5.172   5.785   3.851  1.5934 -0.2276  0.8886
14745SOL    HW245049   5.165   5.673   3.953  1.8465 -0.6874  0.4001
14746SOL     OW45050   3.260   5.634   3.122 -0.4614 -0.5893  0.0848
14746SOL    HW145051   3.167   5.657   3.116  0.0054  0.8729 -2.1808
14746SOL    HW245052   3.305   5.718   3.127  0.8143 -1.2600 -0.0014
14747SOL     OW45053   5.716   4.306   6.485  0.6639  0.1486 -0.1360
14747SOL    HW145054   5.628   4.290   6.519  0.7637  0.7253  0.4127
14747SOL    HW245055   5.762   4.222   6.494  0.3332 -0.0081  0.0748
14748SOL     OW45056   7.038   7.847   2.819  0.1302 -0.3618  0.0291
14748SOL    HW145057   7.051   7.880   2.907 -2.9579 -0.0768  0.4255
14748SOL    HW245058   7.030   7.926   2.765 -0.6569 -0.5044 -0.0681
14749SOL     OW45059   2.100   4.166   3.811 -0.2599 -0.1752  0.2789
14749SOL    HW145060   2.121   4.144   3.902 -1.3294 -0.4936  0.4637
14749SOL    HW245061   2.104   4.083   3.764  1.7012  0.2150 -0.2631
14750SOL     OW45062   0.466   1.038   1.208  0.0212 -0.3734 -0.0436
14750SOL    HW145063   0.546   1.059   1.160 -1.1515  0.1764 -1.8313
14750SOL    HW245064   0.430   0.961   1.162  1.0786 -2.5480  2.6405
14751SOL     OW45065   4.284   7.835   6.245 -0.1903  0.4507  0.1284
14751SOL    HW145066   4.334   7.915   6.229  2.4985 -1.0975  0.4416
14751SOL    HW245067   4.220   7.832   6.174 -1.4014  3.6694  1.0257
14752SOL     OW45068   0.189   5.591   0.650 -0.2715  0.3085  0.0044
14752SOL    HW145069   0.151   5.669   0.610 -1.8192 -1.2715 -1.7393
14752SOL    HW245070   0.243   5.553   0.581 -0.8668 -1.0484  0.2605
14753SOL     OW45071   5.725   4.906   6.627  0.3770 -0.8161 -0.0850
14753SOL    HW145072   5.711   4.999   6.645  1.9851 -0.8225  1.3173
14753SOL    HW245073   5.817   4.900   6.603 -0.1753 -1.8030 -2.0366
14754SOL     OW45074   3.186   3.462   4.938 -0.3073  0.4006 -0.0207
14754SOL    HW145075   3.181   3.375   4.978 -2.4066  1.4908  2.2527
14754SOL    HW245076   3.279   3.475   4.920  0.4584 -1.0690  2.5301
14755SOL     OW45077   6.636   5.804   0.068 -0.0571  0.2648  0.1648
14755SOL    HW145078   6.541   5.796   0.069 -0.1231  0.8686 -0.9359
14755SOL    HW245079   6.654   5.879   0.125 -0.4333  1.8263 -1.7002
14756SOL     OW45080   1.789   3.140   2.045 -0.3137  0.8097  0.5219
14756SOL    HW145081   1.732   3.174   1.976 -0.4732  0.5583  0.5316
14756SOL    HW245082   1.863   3.201   2.047 -1.3000  2.0106  1.5191
14757SOL     OW45083   6.143   5.684   0.119 -0.1325  0.0133  0.0376
14757SOL    HW145084   6.095   5.719   0.194  0.4569  1.7253 -0.3778
14757SOL    HW245085   6.074   5.655   0.059 -0.6161 -1.9213  1.4415
14758SOL     OW45086   7.455   4.029   7.354 -0.2653  0.5351 -0.0454
14758SOL    HW145087   7.446   3.966   7.283 -0.5439  0.3290  0.1749
14758SOL    HW245088   7.532   3.999   7.402 -1.1325 -0.3616  0.7982
14759SOL     OW45089   3.446   3.817   0.368  0.5639  0.0590 -0.8885
14759SOL    HW145090   3.495   3.758   0.425  0.3298  0.1177 -0.6273
14759SOL    HW245091   3.451   3.776   0.281  2.5864  0.9726 -1.2297
14760SOL     OW45092   0.726   3.468   4.932  0.2632 -0.1214  0.0573
14760SOL    HW145093   0.767   3.493   4.849 -0.6528 -0.6917 -0.5707
14760SOL    HW245094   0.637   3.442   4.909  0.1848 -0.8767  1.1423
14761SOL     OW45095   5.404   2.917   3.264  0.1833  0.0245 -0.0911
14761SOL    HW145096   5.346   2.870   3.324  0.0514  0.0287 -0.2165
14761SOL    HW245097   5.483   2.863   3.261 -0.5039 -0.9419 -1.3450
14762SOL     OW45098   4.516   4.437   4.518  0.2524  0.1875 -0.1592
14762SOL    HW145099   4.570   4.360   4.534  0.8476  0.4931 -0.6454
14762SOL    HW245100   4.451   4.436   4.588 -0.4314 -1.3577 -0.7945
14763SOL     OW45101   4.192   7.512   2.236  0.3590  0.1992 -0.5185
14763SOL    HW145102   4.207   7.424   2.271  0.8104 -0.0321 -1.2748
14763SOL    HW245103   4.248   7.517   2.159 -2.2538 -0.0890 -2.4926
14764SOL     OW45104   6.575   7.403   6.435  0.6033  0.7891  0.2076
14764SOL    HW145105   6.655   7.413   6.486  0.0753 -0.2512  1.2679
14764SOL    HW245106   6.605   7.375   6.349  1.4446  1.5523  0.2434
14765SOL     OW45107   4.473   3.391   7.372  0.2322  0.1090  0.2924
14765SOL    HW145108   4.475   3.486   7.370  2.5175  0.0813 -2.6424
14765SOL    HW245109   4.420   3.366   7.296 -0.1823 -0.9442  0.9225
14766SOL     OW45110   3.332   6.717   7.879 -0.0275  0.3295  0.0518
14766SOL    HW145111   3.354   6.763   7.960 -2.3407 -0.3086  1.0573
14766SOL    HW245112   3.334   6.624   7.903  0.4195  0.0851 -0.9214
14767SOL     OW45113   5.572   1.355   2.770  0.1318  0.2452 -0.2834
14767SOL    HW145114   5.518   1.337   2.693  0.8741  1.9626 -1.2529
14767SOL    HW245115   5.522   1.322   2.844 -1.1170 -0.4066 -1.4107
14768SOL     OW45116   3.246   5.233   7.343 -0.5011  0.2752 -0.0669
14768SOL    HW145117   3.154   5.210   7.357 -0.3316 -0.9276 -0.8897
14768SOL    HW245118   3.256   5.234   7.248  1.0435 -2.5882  0.0043
14769SOL     OW45119   1.687   1.499   6.428  0.3497  0.7532  0.1751
14769SOL    HW145120   1.737   1.426   6.465  2.2321  1.4744 -0.8611
14769SOL    HW245121   1.597   1.467   6.423  1.1699 -1.5732 -0.4535
14770SOL     OW45122   5.321   3.979   7.207  0.1995 -0.4451 -0.6061
14770SOL    HW145123   5.354   4.021   7.128  0.3217 -1.3552 -1.0420
14770SOL    HW245124   5.284   3.895   7.177  0.0141 -0.6854  0.2582
14771SOL     OW45125   7.502   1.548   0.929  0.3891 -0.0511 -0.1329
14771SOL    HW145126   7.511   1.509   0.842  1.0974  0.6795 -0.3914
14771SOL    HW245127   7.591   1.556   0.961  0.0451 -1.7156  1.2937
14772SOL     OW45128   5.728   5.050   1.785  0.2138 -0.5219 -0.2382
14772SOL    HW145129   5.817   5.045   1.749 -0.3527  2.4433 -2.2436
14772SOL    HW245130   5.678   5.094   1.717 -2.6066 -1.2810  1.2866
14773SOL     OW45131   2.756   5.832   7.063 -0.4033 -0.1711  0.4771
14773SOL    HW145132   2.780   5.850   7.154  0.6768 -1.2150  0.4261
14773SOL    HW245133   2.716   5.913   7.032 -0.8810  0.1680  1.9072
14774SOL     OW45134   5.814   6.213   1.603  0.0592 -0.5764  0.5431
14774SOL    HW145135   5.787   6.129   1.642  0.4072 -0.8979  0.1030
14774SOL    HW245136   5.863   6.257   1.673 -0.2818 -0.6634  0.8363
14775SOL     OW45137   3.357   7.232   1.257  0.5482  0.1797 -0.2080
14775SOL    HW145138   3.426   7.216   1.320  0.5172  1.3465  0.1405
14775SOL    HW245139   3.346   7.149   1.211 -0.2939 -1.0665  2.1602
14776SOL     OW45140   1.898   7.712   6.112 -0.3814  0.5124  0.2763
14776SOL    HW145141   1.841   7.704   6.188 -0.2406 -2.5771  0.1331
14776SOL    HW245142   1.987   7.716   6.148 -0.4062  0.4529  0.3431
14777SOL     OW45143   2.296   6.427   2.271  0.3025  0.3747 -0.4657
14777SOL    HW145144   2.209   6.460   2.294  0.8904  1.8052 -0.2641
14777SOL    HW245145   2.281   6.370   2.195 -0.9633 -0.3575  0.3117
14778SOL     OW45146   0.933   6.022   6.751  0.7551  0.4821 -0.2086
14778SOL    HW145147   0.837   6.015   6.754  0.8027  0.0465  0.6003
14778SOL    HW245148   0.952   6.047   6.661 -0.0138 -1.4252 -0.9302
14779SOL     OW45149   1.841   0.023   6.182 -0.5074 -0.2966  0.2862
14779SOL    HW145150   1.748   0.012   6.162 -0.7738 -1.4669  2.0376
14779SOL    HW245151   1.851  -0.012   6.271  1.9692 -1.8917 -0.5674
14780SOL     OW45152   7.793   1.995   5.340 -0.4081  0.0243 -0.0216
14780SOL    HW145153   7.827   2.041   5.263 -1.6643 -0.3670 -0.8329
14780SOL    HW245154   7.776   1.906   5.309  0.0367 -0.4148  0.9776
14781SOL     OW45155   6.200   1.887   0.817 -0.3928 -0.0562 -0.0623
14781SOL    HW145156   6.174   1.865   0.728 -0.5859  0.7197 -0.2015
14781SOL    HW245157   6.248   1.810   0.848 -0.7212 -0.5074 -0.6730
14782SOL     OW45158   1.841   5.023   7.949  0.2242  0.2555 -0.7855
14782SOL    HW145159   1.895   5.040   8.026 -0.2711  0.2933 -0.4459
14782SOL    HW245160   1.758   4.989   7.984  0.5271 -1.1131 -1.3652
14783SOL     OW45161   4.735   3.596   0.286  0.5195  0.3967  0.0529
14783SOL    HW145162   4.683   3.516   0.294 -1.8062  1.8298 -0.3989
14783SOL    HW245163   4.775   3.590   0.199 -0.5152  0.2364 -0.4143
14784SOL     OW45164   2.989   0.669   6.945  0.3156 -0.5122  0.1007
14784SOL    HW145165   2.950   0.747   6.984  0.4781 -0.3707 -0.0182
14784SOL    HW245166   2.928   0.598   6.967 -2.0393  0.3289 -3.2636
14785SOL     OW45167   5.162   2.247   0.305 -0.5108 -0.6966  0.5056
14785SOL    HW145168   5.189   2.338   0.293 -5.0857  0.6173 -0.4442
14785SOL    HW245169   5.186   2.203   0.223 -0.4222  0.1909  0.0577
14786SOL     OW45170   5.752   6.579   0.093  0.0681  0.2796 -0.5000
14786SOL    HW145171   5.814   6.525   0.143  0.1220 -0.8942 -1.8015
14786SOL    HW245172   5.772   6.669   0.120  1.2987 -0.2008  0.2590
14787SOL     OW45173   6.310   6.286   6.952  0.0777 -0.3226  0.5745
14787SOL    HW145174   6.322   6.261   7.043 -1.1864 -2.6531  0.1430
14787SOL    HW245175   6.377   6.237   6.904  0.4444  0.5410  0.1876
14788SOL     OW45176   1.084   3.301   0.880  0.0254 -0.3879  0.1553
14788SOL    HW145177   1.013   3.241   0.856  1.6353 -2.1949 -0.2756
14788SOL    HW245178   1.058   3.386   0.845 -0.7916 -1.5482 -2.1156
14789SOL     OW45179   7.038   6.521   1.913  0.0545 -0.2696 -0.2455
14789SOL    HW145180   6.980   6.508   1.838 -1.2311 -0.7557  0.7899
14789SOL    HW245181   7.091   6.441   1.917  0.1489 -0.2248 -0.6623
14790SOL     OW45182   5.248   3.539   4.616 -1.2090 -0.6738  0.1651
14790SOL    HW145183   5.223   3.557   4.707  3.4640  3.6951  0.8373
14790SOL    HW245184   5.208   3.610   4.566 -0.3622 -0.6558 -0.5017
14791SOL     OW45185   0.993   6.753   2.363  0.2077 -0.2163  0.0619
14791SOL    HW145186   0.937   6.702   2.305  0.6265  0.8309 -1.2916
14791SOL    HW245187   0.955   6.741   2.450 -0.8418 -1.2430 -0.5299
14792SOL     OW45188   5.920   5.873   7.729 -0.0202 -0.0546  0.4905
14792SOL    HW145189   5.849   5.851   7.669  0.7038 -1.7151  0.2328
14792SOL    HW245190   5.983   5.920   7.675 -0.6579  0.9587  0.6036
14793SOL     OW45191   7.318   5.727   0.019 -0.0192  0.1695  0.0103
14793SOL    HW145192   7.329   5.741   0.113 -0.2058  0.1996  0.0278
14793SOL    HW245193   7.381   5.787  -0.022 -0.2130  0.4408  0.1067
14794SOL     OW45194   3.149   5.324   7.975 -0.4452  0.2580  0.3303
14794SOL    HW145195   3.236   5.317   8.013 -1.1370 -1.4515  1.6417
14794SOL    HW245196   3.108   5.397   8.022  0.4856  1.5005 -0.7514
14795SOL     OW45197   4.874   6.319   5.320 -0.4679 -0.2377  0.2218
14795SOL    HW145198   4.824   6.239   5.305 -0.0875 -0.6672  1.1847
14795SOL    HW245199   4.862   6.338   5.413 -0.7519  0.9648 -0.0423
14796SOL     OW45200   4.169   1.618   2.444  0.1283  0.4303 -0.2696
14796SOL    HW145201   4.249   1.568   2.432  0.5781  1.4594 -1.7063
14796SOL    HW245202   4.138   1.636   2.355 -0.4541  1.9682  0.2273
14797SOL     OW45203   1.668   2.423   3.662 -0.0545 -0.6215  0.0594
14797SOL    HW145204   1.651   2.500   3.715 -0.2483 -0.8191  0.2852
14797SOL    HW245205   1.708   2.360   3.722 -0.2343 -0.8290 -0.0334
14798SOL     OW45206   0.480   4.902   0.859  0.0224 -0.2876 -0.4298
14798SOL    HW145207   0.534   4.964   0.810 -0.2511  0.1082 -0.2238
14798SOL    HW245208   0.408   4.881   0.800  0.0116 -0.2685 -0.4231
14799SOL     OW45209   2.587   4.572   4.751  0.2599  0.1215 -0.8348
14799SOL    HW145210   2.668   4.614   4.779  0.4318  0.2766 -1.5550
14799SOL    HW245211   2.585   4.585   4.656 -0.9476  0.7257 -0.7368
14800SOL     OW45212   0.773   1.687   2.816  0.4563  0.3001 -0.9183
14800SOL    HW145213   0.711   1.652   2.752  0.8708  0.1649 -1.2490
14800SOL    HW245214   0.808   1.765   2.774 -0.8835  1.4491  0.0443
14801SOL     OW45215   3.216   0.202   7.197  0.2619  0.1461  0.1085
14801SOL    HW145216   3.211   0.296   7.178  0.9093  0.2775  0.5814
14801SOL    HW245217   3.265   0.165   7.124  1.5382  0.4419  0.8084
14802SOL     OW45218   7.575   6.651   7.518  0.3789  0.2410 -0.1554
14802SOL    HW145219   7.491   6.696   7.509  0.8804  1.0830 -0.6843
14802SOL    HW245220   7.632   6.693   7.454  0.3188 -2.4959 -2.0660
14803SOL     OW45221   0.727   6.013   0.446  0.2304  0.0485 -0.1928
14803SOL    HW145222   0.757   6.087   0.498 -0.3373 -1.1263  1.8576
14803SOL    HW245223   0.731   6.044   0.356  0.1148  2.5250  0.6224
14804SOL     OW45224   4.962   4.668   1.703  0.4721 -0.3401 -0.1338
14804SOL    HW145225   4.983   4.630   1.618 -0.4698 -0.4535 -0.3260
14804SOL    HW245226   4.975   4.597   1.766 -1.6099 -1.1124 -0.5295
14805SOL     OW45227   0.334   1.943   2.712  0.0644 -0.4038 -0.0227
14805SOL    HW145228   0.270   1.930   2.781 -2.3832  0.7410 -1.9676
14805SOL    HW245229   0.364   2.034   2.724 -0.4590 -0.1620 -0.5273
14806SOL     OW45230   4.300   3.577   0.581  1.0420  0.1711 -0.8072
14806SOL    HW145231   4.295   3.506   0.645 -2.0325 -0.7024 -1.9287
14806SOL    HW245232   4.266   3.653   0.628  0.7753  0.0179 -0.7483
14807SOL     OW45233   3.472   3.830   6.769  0.7455  0.0165 -0.3170
14807SOL    HW145234   3.531   3.783   6.710  0.5802 -0.7791  0.1364
14807SOL    HW245235   3.389   3.836   6.722  1.6801  2.7831 -1.7222
14808SOL     OW45236   5.406   2.123   4.465  0.0562  0.7756  0.1451
14808SOL    HW145237   5.493   2.130   4.504  0.0659  0.7202  0.1326
14808SOL    HW245238   5.420   2.078   4.382 -0.1927 -0.6114  0.8419
14809SOL     OW45239   1.280   7.484   7.980 -0.3594  0.1323  0.4268
14809SOL    HW145240   1.201   7.493   8.034 -0.1927 -0.0727  0.7096
14809SOL    HW245241   1.348   7.531   8.029 -0.0165 -0.7396  0.7985
14810SOL     OW45242   7.827   0.768   3.856 -0.0421 -0.3427 -0.0437
14810SOL    HW145243   7.802   0.692   3.908 -3.5101 -0.6441 -1.9862
14810SOL    HW245244   7.766   0.837   3.883 -1.8153 -0.4633 -3.4176
14811SOL     OW45245   4.523   6.190   0.169 -1.3363 -0.0709 -0.4555
14811SOL    HW145246   4.614   6.165   0.184 -1.1699 -0.0259 -1.3241
14811SOL    HW245247   4.509   6.266   0.225 -0.5321  0.5277 -1.0451
14812SOL     OW45248   0.922   5.390   7.326  0.4500 -0.5528 -0.1605
14812SOL    HW145249   0.976   5.420   7.399 -0.6549  1.0326  0.0503
14812SOL    HW245250   0.911   5.468   7.271 -2.5815 -0.4844  0.4325
14813SOL     OW45251   4.813   3.119   2.347 -0.3527  0.1253 -0.3550
14813SOL    HW145252   4.750   3.106   2.418  0.0749  0.8698  0.1713
14813SOL    HW245253   4.831   3.213   2.349  0.2820  0.0154 -0.9246
14814SOL     OW45254   6.894   3.744   6.838 -0.0930 -0.4961 -0.5181
14814SOL    HW145255   6.983   3.762   6.867 -0.3725  0.0907  0.0041
14814SOL    HW245256   6.900   3.735   6.743  0.1891  1.6952 -0.7412
14815SOL     OW45257   4.494   2.599   6.468 -0.6362 -0.1242  0.2795
14815SOL    HW145258   4.541   2.578   6.387 -0.1284  3.4737 -0.4552
14815SOL    HW245259   4.556   2.577   6.537 -0.6911 -2.2812 -0.3168
14816SOL     OW45260   5.371   2.866   7.825  0.2622  0.0068 -0.3704
14816SOL    HW145261   5.445   2.893   7.771 -1.2312  1.8838 -1.5087
14816SOL    HW245262   5.339   2.946   7.865 -1.5375 -0.6960 -0.3567
14817SOL     OW45263   0.277   7.871   1.942  0.2087 -0.0353 -0.2941
14817SOL    HW145264   0.299   7.791   1.989 -0.3319  1.1247  1.9858
14817SOL    HW245265   0.343   7.935   1.971 -0.4473  0.8438 -0.7146
14818SOL     OW45266   3.755   7.464   0.164 -0.0941  0.3454 -0.4160
14818SOL    HW145267   3.804   7.547   0.161  0.6356 -0.1197 -1.5220
14818SOL    HW245268   3.730   7.455   0.256  1.8336  0.6217  0.1549
14819SOL     OW45269   3.759   4.218   4.623 -0.1802  0.3541 -0.2126
14819SOL    HW145270   3.711   4.142   4.656  0.8789 -0.3199 -0.1841
14819SOL    HW245271   3.692   4.285   4.610 -0.8635  0.0576  1.6178
14820SOL     OW45272   5.687   5.662   3.850  0.5222 -0.3225 -0.5145
14820SOL    HW145273   5.664   5.572   3.829 -0.6532 -0.0264 -0.5167
14820SOL    HW245274   5.604   5.703   3.875  1.5135 -0.0595  2.5640
14821SOL     OW45275   4.694   1.713   5.997 -0.1962 -0.2763  0.2203
14821SOL    HW145276   4.786   1.723   6.024  0.4741 -1.6666 -1.4680
14821SOL    HW245277   4.668   1.629   6.034 -0.0050 -1.0697 -1.4215
14822SOL     OW45278   2.716   3.940   7.927  0.3446  0.4757 -0.1018
14822SOL    HW145279   2.793   3.901   7.885 -0.4248 -0.0853 -1.0246
14822SOL    HW245280   2.743   3.957   8.017  1.6948  0.7247 -0.5472
14823SOL     OW45281   3.847   7.518   3.087 -0.3898  0.0831  0.3995
14823SOL    HW145282   3.780   7.468   3.041  0.2284  0.9599 -1.4811
14823SOL    HW245283   3.799   7.574   3.148 -1.5704  2.4855 -2.6328
14824SOL     OW45284   3.923   7.856   2.915  0.1800 -0.1880 -0.3114
14824SOL    HW145285   3.846   7.800   2.917  0.8491 -1.0773  1.9559
14824SOL    HW245286   3.889   7.945   2.915 -0.8570 -0.5680 -1.7336
14825SOL     OW45287   3.747   6.110   7.714  0.3237 -0.0459  0.6195
14825SOL    HW145288   3.737   6.077   7.624 -1.5613 -0.2142  0.8652
14825SOL    HW245289   3.672   6.168   7.726 -1.1993 -2.3946  3.1236
14826SOL     OW45290   5.269   7.807   2.431  0.0410 -0.1015  0.2307
14826SOL    HW145291   5.299   7.894   2.405 -0.5137  0.3618  1.1362
14826SOL    HW245292   5.307   7.748   2.365 -0.8934  0.9788 -1.3066
14827SOL     OW45293   1.201   6.109   6.801  0.2864 -0.7826 -0.5136
14827SOL    HW145294   1.289   6.146   6.795  0.5709 -1.6290 -1.7139
14827SOL    HW245295   1.149   6.162   6.741  0.4037 -1.4416 -1.2165
14828SOL     OW45296   4.377   3.837   6.351  0.2262  0.2288 -0.3355
14828SOL    HW145297   4.387   3.834   6.446  2.0392 -2.1994 -0.5354
14828SOL    HW245298   4.458   3.877   6.319  0.9498 -1.6955 -0.9857
14829SOL     OW45299   4.629   1.197   3.147  0.2140  0.1048  0.1113
14829SOL    HW145300   4.592   1.145   3.219 -0.1771 -0.1404 -0.2598
14829SOL    HW245301   4.612   1.288   3.171 -1.8784 -0.0424 -0.6937
14830SOL     OW45302   5.899   0.541   4.029 -0.2511  0.1834 -0.4250
14830SOL    HW145303   5.978   0.567   3.981 -1.5217  0.9764 -2.1598
14830SOL    HW245304   5.848   0.491   3.966 -1.6485  0.6623  0.2980
14831SOL     OW45305   7.508   0.055   1.426  0.1498 -0.3305 -0.0990
14831SOL    HW145306   7.547   0.013   1.350  4.0578  1.1949  0.9133
14831SOL    HW245307   7.492   0.145   1.398 -1.0788 -0.4982  0.0341
14832SOL     OW45308   2.237   6.089   3.427 -0.2525 -0.2162 -0.5255
14832SOL    HW145309   2.198   6.060   3.509 -0.7029 -0.2208 -0.7357
14832SOL    HW245310   2.216   6.183   3.422 -1.3407 -0.4921 -1.2441
14833SOL     OW45311   0.022   0.078   4.520 -0.1620  0.3808 -0.5891
14833SOL    HW145312   0.016  -0.014   4.494 -0.4677  0.2665 -0.1261
14833SOL    HW245313   0.030   0.075   4.615  1.3687  0.7758 -0.6880
14834SOL     OW45314   5.105   5.584   4.604  0.0199 -0.6689  0.1349
14834SOL    HW145315   5.017   5.561   4.631  1.0575 -2.2391  2.3655
14834SOL    HW245316   5.117   5.541   4.519 -1.7797  0.6473 -0.8051
14835SOL     OW45317   7.041   6.184   0.309  0.1078 -0.3667  0.2642
14835SOL    HW145318   7.046   6.267   0.262 -2.3988  0.2507  1.0215
14835SOL    HW245319   7.034   6.209   0.402  2.5385 -1.5152  0.7985
14836SOL     OW45320   7.525   2.091   4.886  0.0177 -0.3141 -0.6027
14836SOL    HW145321   7.503   2.171   4.934  0.9344 -0.9462  0.9108
14836SOL    HW245322   7.619   2.100   4.867 -0.0776 -0.6163 -1.2234
14837SOL     OW45323   3.679   4.398   6.558  0.4863  0.1741 -0.8597
14837SOL    HW145324   3.730   4.441   6.489  1.3469  0.8453  0.1706
14837SOL    HW245325   3.653   4.470   6.616 -0.3197 -0.3717 -0.5423
14838SOL     OW45326   5.570   2.903   5.382  0.4778 -0.2303 -0.4199
14838SOL    HW145327   5.543   2.856   5.303  0.4788  0.8575 -1.0866
14838SOL    HW245328   5.502   2.969   5.395 -0.4404 -1.5449  1.5128
14839SOL     OW45329   7.608   6.299   2.005 -0.3955  0.2636  0.2476
14839SOL    HW145330   7.621   6.226   1.945  2.3674  1.1800 -0.3464
14839SOL    HW245331   7.626   6.377   1.953 -1.0085  1.2451  1.4692
14840SOL     OW45332   7.560   1.542   3.261 -0.0284  0.5472  0.3046
14840SOL    HW145333   7.565   1.494   3.343 -0.7794  1.8085  1.1092
14840SOL    HW245334   7.650   1.570   3.243  0.0747  0.6020  0.9021
14841SOL     OW45335   1.028   0.999   3.915 -0.2940  0.1121  0.0446
14841SOL    HW145336   1.117   1.009   3.947 -0.0580  1.1352 -0.9221
14841SOL    HW245337   1.037   0.978   3.822 -0.9829 -2.7132  0.5508
14842SOL     OW45338   4.400   6.908   2.829  0.0508 -0.4251  0.1367
14842SOL    HW145339   4.463   6.861   2.774  3.4054  1.2067  2.4001
14842SOL    HW245340   4.391   6.853   2.907 -0.8321 -0.3085  0.1185
14843SOL     OW45341   0.191   3.923   1.129  0.4339  0.3906  0.2069
14843SOL    HW145342   0.187   3.880   1.214  0.0440 -0.3668 -0.1879
14843SOL    HW245343   0.284   3.926   1.107  0.6853  1.9814  1.3488
14844SOL     OW45344   3.540   3.512   2.064  0.1773 -0.3961 -0.1163
14844SOL    HW145345   3.610   3.457   2.029  2.3442  2.1485  0.0350
14844SOL    HW245346   3.582   3.597   2.078 -2.3236  0.4677  2.4479
14845SOL     OW45347   5.108   2.251   1.737  0.0555  0.3521  0.5166
14845SOL    HW145348   5.191   2.203   1.744 -1.0254 -2.7265 -4.4785
14845SOL    HW245349   5.133   2.339   1.711  1.8697  0.3162  2.0674
14846SOL     OW45350   4.845   3.511   5.817 -0.3691 -0.3365  0.0442
14846SOL    HW145351   4.762   3.465   5.828 -0.5871  0.0525  0.0057
14846SOL    HW245352   4.836   3.560   5.736 -0.2515  0.0267  0.2464
14847SOL     OW45353   7.966   6.285   2.900  0.4209  0.1827 -0.6871
14847SOL    HW145354   7.941   6.377   2.900 -0.6468 -0.0941 -1.6230
14847SOL    HW245355   8.006   6.270   2.985  0.3350  1.4380 -0.4240
14848SOL     OW45356   6.280   5.543   5.514 -0.0720 -0.5003  0.3048
14848SOL    HW145357   6.341   5.470   5.515 -1.2179 -1.4635  0.3032
14848SOL    HW245358   6.266   5.563   5.421 -0.0616 -0.5302  0.2967
14849SOL     OW45359   4.188   7.737   4.649 -0.3428 -0.1187 -0.6490
14849SOL    HW145360   4.265   7.786   4.620  0.5295 -0.3919  1.1305
14849SOL    HW245361   4.118   7.766   4.590  1.5063 -1.3229 -3.5654
14850SOL     OW45362   0.940   5.900   0.720  0.5481 -0.0333 -0.5925
14850SOL    HW145363   0.859   5.947   0.699  2.0735  2.5966 -0.7148
14850SOL    HW245364   0.915   5.839   0.789 -1.6078  0.5005 -0.8621
14851SOL     OW45365   0.860   6.410   7.537 -0.4742  0.0173 -0.7790
14851SOL    HW145366   0.825   6.341   7.480 -2.9242  1.0035 -0.5709
14851SOL    HW245367   0.949   6.383   7.557 -0.9003 -2.3318 -1.8940
14852SOL     OW45368   6.568   7.133   0.101 -0.2671 -0.5646  0.6639
14852SOL    HW145369   6.495   7.089   0.059  0.4645  0.2167 -1.5044
14852SOL    HW245370   6.609   7.184   0.031  3.4038 -2.3380  1.3746
14853SOL     OW45371   1.321   6.680   5.428 -0.0425 -0.5837  0.5126
14853SOL    HW145372   1.325   6.633   5.344  3.0385 -1.1685  0.9027
14853SOL    HW245373   1.332   6.772   5.405  2.0907 -0.8615  0.3368
14854SOL     OW45374   3.445   7.018   7.669  0.5771  0.0087 -0.2367
14854SOL    HW145375   3.420   7.020   7.577  0.5334  2.2834 -0.2071
14854SOL    HW245376   3.482   6.931   7.682 -1.4293 -1.1294 -1.8510
14855SOL     OW45377   5.815   5.336   2.450 -0.5857 -0.6695  0.0134
14855SOL    HW145378   5.752   5.299   2.389  1.0152 -2.7370 -0.4138
14855SOL    HW245379   5.829   5.268   2.516 -0.3013  0.5277  1.2358
14856SOL     OW45380   4.653   3.460   2.730 -0.9546  0.4022  0.4607
14856SOL    HW145381   4.654   3.494   2.641  0.7104 -1.6732 -0.3723
14856SOL    HW245382   4.601   3.523   2.780 -0.9015  2.2218 -1.7122
14857SOL     OW45383   7.948   0.513   4.182  0.3208  0.0591  0.1428
14857SOL    HW145384   7.965   0.442   4.244  1.4364  1.1783  1.1474
14857SOL    HW245385   7.870   0.557   4.216 -0.0231 -0.3157 -0.1552
14858SOL     OW45386   5.132   3.077   6.851 -0.6133  0.4822  0.5424
14858SOL    HW145387   5.090   2.992   6.859 -0.3152 -0.3267 -4.4831
14858SOL    HW245388   5.063   3.135   6.817 -0.0057  1.4343  0.8987
14859SOL     OW45389   6.771   2.308   1.455  0.1977  1.0613  0.6539
14859SOL    HW145390   6.738   2.238   1.512 -2.1467  0.9291 -0.8078
14859SOL    HW245391   6.854   2.274   1.422 -2.0120 -2.1536 -1.8971
14860SOL     OW45392   4.527   0.292   4.065 -0.3942 -0.0437  0.0169
14860SOL    HW145393   4.451   0.271   4.120 -1.1089 -1.1625 -1.3839
14860SOL    HW245394   4.592   0.324   4.127 -1.2220 -1.1928  1.5235
14861SOL     OW45395   0.351   1.442   2.655 -0.0280  0.3764 -0.3054
14861SOL    HW145396   0.339   1.349   2.638  0.8609  0.0453  0.8460
14861SOL    HW245397   0.311   1.456   2.741 -1.1883  1.2993 -0.9736
14862SOL     OW45398   0.452   7.823   6.118  0.3011 -0.3434 -0.0145
14862SOL    HW145399   0.398   7.748   6.093  0.7469 -0.2796 -1.2169
14862SOL    HW245400   0.394   7.899   6.109 -0.5774 -0.6614  2.5937
14863SOL     OW45401   7.059   4.458   1.438 -1.1171 -0.6102 -0.2265
14863SOL    HW145402   7.133   4.430   1.491 -1.0078  0.2877  0.1018
14863SOL    HW245403   7.053   4.393   1.369  0.0786 -0.6109 -0.3402
14864SOL     OW45404   2.296   4.564   2.576 -0.4042 -0.0267  0.0559
14864SOL    HW145405   2.314   4.495   2.512 -1.4231 -0.5264  0.2971
14864SOL    HW245406   2.220   4.532   2.625 -0.4967  0.9860  0.5884
14865SOL     OW45407   1.148   0.046   2.421  0.0129  1.0722  0.6800
14865SOL    HW145408   1.218   0.045   2.487  1.0840  0.8889 -0.4274
14865SOL    HW245409   1.141  -0.045   2.392  2.7691  1.8286 -2.7105
14866SOL     OW45410   2.594   7.921   1.113 -0.2593 -0.2612  0.5220
14866SOL    HW145411   2.652   7.996   1.125  0.7428 -0.7717 -0.9506
14866SOL    HW245412   2.568   7.896   1.202  0.6958  0.8243  1.1115
14867SOL     OW45413   1.148   4.389   7.058 -0.5378  0.0703  0.3101
14867SOL    HW145414   1.104   4.323   7.004 -1.1698  0.8418 -0.1257
14867SOL    HW245415   1.112   4.376   7.146  0.3537 -1.0640  0.5233
14868SOL     OW45416   3.036   6.579   7.597 -0.1738  0.6742  0.1349
14868SOL    HW145417   3.031   6.531   7.680 -1.6827  0.3129 -0.1446
14868SOL    HW245418   3.060   6.513   7.533  0.3060  0.8151  0.1697
14869SOL     OW45419   2.176   4.034   7.431  0.2507 -0.2201 -0.5169
14869SOL    HW145420   2.105   4.087   7.395  1.8342  1.8662 -0.6892
14869SOL    HW245421   2.179   3.956   7.374 -1.9375 -0.4059 -0.4260
14870SOL     OW45422   3.109   1.778   2.331  0.3928 -0.7577 -0.1554
14870SOL    HW145423   3.180   1.715   2.341  1.1568 -0.4570 -3.0745
14870SOL    HW245424   3.115   1.806   2.239  0.1714  3.6691  1.0663
14871SOL     OW45425   6.291   5.468   6.036 -0.2722  0.1096 -0.2993
14871SOL    HW145426   6.375   5.441   6.073 -0.0603  0.8661 -0.2174
14871SOL    HW245427   6.313   5.542   5.979 -1.0640  1.2583  0.8587
14872SOL     OW45428   6.789   3.767   7.440  0.5516 -0.1174  0.0709
14872SOL    HW145429   6.777   3.684   7.395 -1.2011  0.8807 -1.3497
14872SOL    HW245430   6.834   3.823   7.377  0.7843  0.3329  0.6327
14873SOL     OW45431   4.820   0.693   2.272  0.3027  0.0249 -0.3990
14873SOL    HW145432   4.751   0.629   2.255  0.9950 -0.3836 -1.6660
14873SOL    HW245433   4.780   0.777   2.252  0.4169 -0.2751 -1.9450
14874SOL     OW45434   7.343   4.982   3.138  0.0133  0.2932  0.2824
14874SOL    HW145435   7.429   5.015   3.109  1.5569 -2.4679  1.5189
14874SOL    HW245436   7.364   4.921   3.209 -2.8005 -2.0866 -0.8426
14875SOL     OW45437   7.549   3.255   1.813 -0.1416  0.3125  0.4464
14875SOL    HW145438   7.569   3.347   1.801  0.4807  0.0771 -0.3228
14875SOL    HW245439   7.456   3.248   1.793 -0.3664  0.8927  1.2315
14876SOL     OW45440   7.079   6.798   1.956  0.2795  0.0985  1.1492
14876SOL    HW145441   7.062   6.706   1.937  0.3977 -0.0974  1.9559
14876SOL    HW245442   7.154   6.821   1.901 -0.9165  0.2378 -0.4499
14877SOL     OW45443   6.316   1.058   5.820  0.2392 -0.1360 -0.3991
14877SOL    HW145444   6.297   1.099   5.736 -0.8485  0.8013  0.2941
14877SOL    HW245445   6.230   1.036   5.856  0.6648  0.1208  0.7914
14878SOL     OW45446   2.516   1.697   6.270  0.6294 -0.2762  0.2046
14878SOL    HW145447   2.467   1.730   6.345 -0.9453  0.6153 -1.1799
14878SOL    HW245448   2.513   1.602   6.280 -0.2410 -0.1906  0.8597
14879SOL     OW45449   1.318   0.613   7.084 -0.7586  0.8408 -0.0995
14879SOL    HW145450   1.382   0.597   7.015 -1.0057  0.0986 -0.1527
14879SOL    HW245451   1.279   0.698   7.061 -0.5147  0.8129 -0.6166
14880SOL     OW45452   5.705   5.036   4.043 -0.0096 -0.3471  0.4141
14880SOL    HW145453   5.624   4.999   4.078 -0.0155 -1.2128 -0.4902
14880SOL    HW245454   5.766   5.035   4.118 -0.1678 -1.7344  0.5479
14881SOL     OW45455   5.963   7.853   1.620 -0.1076  0.4197 -0.6596
14881SOL    HW145456   5.933   7.807   1.698  0.1360  0.6275 -0.4427
14881SOL    HW245457   5.920   7.807   1.547 -0.4679  0.3351 -0.3936
14882SOL     OW45458   3.949   7.996   7.367  0.3234  0.2216  0.3209
14882SOL    HW145459   3.951   7.977   7.461  1.9904 -1.2043  0.0336
14882SOL    HW245460   3.939   7.910   7.326 -2.2914  1.0046 -0.7787
14883SOL     OW45461   0.812   5.635   1.406 -0.5040  0.1092 -0.4163
14883SOL    HW145462   0.829   5.583   1.485 -1.0219 -0.4370 -0.6619
14883SOL    HW245463   0.720   5.620   1.386 -1.0552  2.2817  0.3197
14884SOL     OW45464   0.227   5.208   0.529 -0.1089 -0.2061  0.0261
14884SOL    HW145465   0.141   5.186   0.492 -0.9599  2.0950  0.5180
14884SOL    HW245466   0.247   5.294   0.491  1.3442 -0.1126  0.9889
14885SOL     OW45467   5.047   5.545   4.919 -0.3348  0.0378  0.2832
14885SOL    HW145468   5.124   5.489   4.911 -0.2483  0.0510  1.0317
14885SOL    HW245469   5.082   5.634   4.914 -0.1811  0.0623  1.5756
14886SOL     OW45470   2.346   6.490   7.843 -0.5387  0.0194 -0.4015
14886SOL    HW145471   2.436   6.516   7.820 -0.8807 -0.2603 -2.0881
14886SOL    HW245472   2.305   6.572   7.872 -0.0460  0.3616 -0.6437
14887SOL     OW45473   2.167   1.617   7.047  0.3449 -0.2125  0.1736
14887SOL    HW145474   2.147   1.711   7.054  1.3569 -0.0703  1.3645
14887SOL    HW245475   2.091   1.574   7.085 -0.0514  0.1322 -0.2199
14888SOL     OW45476   0.722   6.065   7.339  0.2011  0.1849 -0.3496
14888SOL    HW145477   0.683   6.005   7.275  0.2832  0.4597 -0.6574
14888SOL    HW245478   0.669   6.145   7.333  0.3858  0.3134 -0.2784
14889SOL     OW45479   7.129   3.293   5.454  0.7604 -0.3534 -0.2549
14889SOL    HW145480   7.117   3.375   5.502  0.1691 -0.3658 -0.3793
14889SOL    HW245481   7.206   3.254   5.494 -0.2554 -0.7990  1.3190
14890SOL     OW45482   3.934   3.250   0.286 -0.0927  0.0413 -0.1960
14890SOL    HW145483   3.926   3.341   0.314 -0.3258 -0.1890  0.4805
14890SOL    HW245484   3.982   3.207   0.356 -0.6881 -0.5358 -0.1409
14891SOL     OW45485   5.781   0.444   4.252  0.2095  0.1084 -0.1333
14891SOL    HW145486   5.834   0.383   4.304 -0.1913 -0.4727 -0.4065
14891SOL    HW245487   5.831   0.457   4.172 -0.1670 -0.6271 -0.4933
14892SOL     OW45488   0.873   0.042   1.076  0.1107 -0.0558  0.2338
14892SOL    HW145489   0.810   0.000   1.018  0.2089 -0.3051  0.3079
14892SOL    HW245490   0.880  -0.017   1.151 -0.5552  0.6124  0.8351
14893SOL     OW45491   5.462   3.378   2.579 -0.5987  0.1670 -0.0584
14893SOL    HW145492   5.498   3.408   2.663  0.3939 -0.9218 -0.0884
14893SOL    HW245493   5.440   3.286   2.593 -2.8419  0.6535 -0.2295
14894SOL     OW45494   4.945   6.315   7.022  0.9090 -0.2653 -0.6749
14894SOL    HW145495   4.946   6.295   7.116 -0.9261 -0.4219 -0.6840
14894SOL    HW245496   4.985   6.402   7.016  2.0204 -0.6955  0.1228
14895SOL     OW45497   0.104   0.738   2.403  0.0827 -0.5311 -0.3415
14895SOL    HW145498   0.139   0.812   2.354 -1.4234 -0.8606 -1.9744
14895SOL    HW245499   0.069   0.777   2.483  0.2091  0.3808 -0.7265
14896SOL     OW45500   5.663   5.564   4.909  0.4596  0.3299 -0.2032
14896SOL    HW145501   5.702   5.517   4.835 -2.3948 -1.2208 -0.8200
14896SOL    HW245502   5.659   5.498   4.979 -0.5023  0.6196  0.0202
14897SOL     OW45503   5.027   3.016   3.754 -0.1561  0.4853  0.3010
14897SOL    HW145504   4.979   3.025   3.672  0.7345 -1.1463 -0.4337
14897SOL    HW245505   5.118   3.038   3.731 -0.5590  4.0858  1.7824
14898SOL     OW45506   4.854   6.688   5.083  0.3972  0.1342  0.4133
14898SOL    HW145507   4.803   6.714   5.007  2.0040 -0.9250 -1.0480
14898SOL    HW245508   4.800   6.622   5.127  1.2211 -2.2628 -2.0696
14899SOL     OW45509   1.975   3.842   7.236 -0.4293  0.3515  0.1758
14899SOL    HW145510   2.063   3.878   7.222 -0.2050  0.2802  1.2917
14899SOL    HW245511   1.931   3.851   7.152  1.1149 -0.9320 -0.7980
14900SOL     OW45512   5.691   7.053   7.330  0.0010  0.2828 -0.0986
14900SOL    HW145513   5.784   7.050   7.307  0.1479  0.6255  0.4350
14900SOL    HW245514   5.657   7.129   7.283 -0.1651 -0.2422 -0.8384
14901SOL     OW45515   5.303   6.938   3.784 -0.4261 -0.7232  0.0419
14901SOL    HW145516   5.288   7.022   3.829  3.0685  1.0286 -1.8896
14901SOL    HW245517   5.249   6.945   3.704 -0.6241 -0.5740  0.1868
14902SOL     OW45518   1.800   1.546   3.089 -0.4400 -0.1949 -0.2414
14902SOL    HW145519   1.833   1.635   3.077  0.5690 -0.3112  1.4637
14902SOL    HW245520   1.799   1.509   3.001 -0.6499  1.4203 -0.9392
14903SOL     OW45521   4.366   0.388   7.410 -0.5937  0.0435  0.1696
14903SOL    HW145522   4.382   0.299   7.377  0.6215  0.6981 -1.0154
14903SOL    HW245523   4.339   0.375   7.501 -2.2863 -1.6707 -0.5465
14904SOL     OW45524   3.243   3.821   5.848  0.1645  0.2509 -0.2592
14904SOL    HW145525   3.273   3.846   5.936  0.7867 -0.7543 -0.1777
14904SOL    HW245526   3.147   3.827   5.853  0.2840  2.2285 -0.1416
14905SOL     OW45527   7.460   3.602   6.486  0.2084  0.4539  0.3023
14905SOL    HW145528   7.388   3.651   6.446  0.2538  0.0861 -0.2456
14905SOL    HW245529   7.514   3.575   6.412  1.4016  1.4927  0.7879
14906SOL     OW45530   4.344   5.598   0.532  0.1516  0.0117 -0.5480
14906SOL    HW145531   4.396   5.518   0.518 -0.0228 -0.1510 -0.2665
14906SOL    HW245532   4.253   5.569   0.525  0.0460 -0.1065  1.0577
14907SOL     OW45533   1.655   4.138   7.205  0.0242  0.0373  0.7950
14907SOL    HW145534   1.674   4.089   7.285 -1.0358 -1.5974  0.0524
14907SOL    HW245535   1.709   4.097   7.138 -1.9290 -1.0473 -0.1354
14908SOL     OW45536   7.161   7.929   5.213  0.2845 -0.1865 -0.4780
14908SOL    HW145537   7.114   7.964   5.137 -0.9499  2.5553  1.4710
14908SOL    HW245538   7.250   7.963   5.203 -0.5178  2.3137  0.5831
14909SOL     OW45539   0.388   6.037   4.720  0.3281  0.1829 -0.1067
14909SOL    HW145540   0.339   6.068   4.644  1.1988  0.6529 -0.4811
14909SOL    HW245541   0.338   6.069   4.795 -1.0096 -1.0261 -0.4580
14910SOL     OW45542   4.099   7.029   1.850 -0.2345  0.1606  0.0645
14910SOL    HW145543   4.138   7.051   1.765 -0.8818  0.5752 -0.1304
14910SOL    HW245544   4.012   6.998   1.829 -0.4637  0.4346  0.5942
14911SOL     OW45545   6.309   7.421   5.395 -0.3344 -0.1199  0.0940
14911SOL    HW145546   6.241   7.484   5.417 -1.2480 -1.3497  0.9221
14911SOL    HW245547   6.329   7.437   5.303 -2.4288 -0.3396 -0.4315
14912SOL     OW45548   1.012   7.275   3.122 -0.1944 -0.2499 -0.4007
14912SOL    HW145549   0.962   7.355   3.108 -1.6352 -0.8564  1.0917
14912SOL    HW245550   0.953   7.218   3.172  1.5293 -1.4686  0.3068
14913SOL     OW45551   5.896   2.602   0.952  0.4280 -0.3823  0.4886
14913SOL    HW145552   5.917   2.542   0.881  3.0311 -0.7774  1.5360
14913SOL    HW245553   5.901   2.549   1.031  0.8549  0.7632  1.2535
14914SOL     OW45554   2.891   7.645   6.934 -0.5455 -0.3472 -0.3693
14914SOL    HW145555   2.970   7.612   6.892 -0.4544 -0.0684 -0.4171
14914SOL    HW245556   2.908   7.636   7.028 -1.0730 -1.7435 -0.3855
14915SOL     OW45557   3.742   2.242   7.125  0.1030  0.7248  0.0595
14915SOL    HW145558   3.743   2.321   7.070  0.9621  0.9505  0.3815
14915SOL    HW245559   3.768   2.274   7.212  0.4470  0.0890  0.1921
14916SOL     OW45560   7.389   7.861   5.446 -0.1816  0.5512  0.2302
14916SOL    HW145561   7.353   7.932   5.393 -0.2939 -0.6024 -1.2789
14916SOL    HW245562   7.464   7.899   5.490 -0.4926  1.7187 -0.2328
14917SOL     OW45563   2.419   2.676   5.078  0.0021 -0.7589  0.1274
14917SOL    HW145564   2.330   2.711   5.082  0.5926  0.8014 -0.1612
14917SOL    HW245565   2.453   2.687   5.167  0.5962  0.4920 -0.2517
14918SOL     OW45566   5.013   5.845   7.738  0.5344  0.0238 -0.4684
14918SOL    HW145567   5.069   5.840   7.661  0.1146  0.2811 -0.7944
14918SOL    HW245568   5.070   5.878   7.808  0.8423  0.0763 -0.7449
14919SOL     OW45569   7.198   2.411   3.738  0.5756  0.3622 -0.3403
14919SOL    HW145570   7.134   2.402   3.667 -1.3044 -1.3614  1.4982
14919SOL    HW245571   7.152   2.458   3.807  1.4968 -0.2863  0.7425
14920SOL     OW45572   4.559   0.963   2.803 -0.2246  0.4633 -0.4827
14920SOL    HW145573   4.597   0.938   2.887  0.5232 -0.0680 -0.9756
14920SOL    HW245574   4.471   0.995   2.825 -0.9033 -1.8070  0.2532
14921SOL     OW45575   0.446   2.220   6.603  0.6020 -0.1386 -0.2653
14921SOL    HW145576   0.396   2.190   6.679 -0.6132  1.1920 -0.5399
14921SOL    HW245577   0.434   2.315   6.601  0.0966 -0.2176 -2.4973
14922SOL     OW45578   2.907   0.364   3.636 -0.6484  0.1180  0.4142
14922SOL    HW145579   2.845   0.322   3.577  0.0411 -0.1848 -0.0962
14922SOL    HW245580   2.948   0.433   3.583 -0.3250  0.1096  0.6492
14923SOL     OW45581   3.433   0.207   3.588 -0.6859  0.1639  0.5471
14923SOL    HW145582   3.374   0.282   3.592 -0.1362  0.6448 -0.4700
14923SOL    HW245583   3.486   0.221   3.510 -0.1495 -0.9632  0.6960
14924SOL     OW45584   4.440   0.982   1.997  0.0191  0.2383 -0.5224
14924SOL    HW145585   4.479   0.925   2.064  0.0068 -1.0236 -1.5563
14924SOL    HW245586   4.358   0.938   1.974 -0.2549  0.9728 -0.9638
14925SOL     OW45587   4.177   4.846   0.085 -0.0283 -0.3062  0.1634
14925SOL    HW145588   4.183   4.787   0.160  0.0308 -1.9123 -1.0785
14925SOL    HW245589   4.094   4.822   0.043 -1.2522  2.1855  1.0014
14926SOL     OW45590   0.496   0.457   4.544  0.0289 -0.0703 -0.3252
14926SOL    HW145591   0.548   0.496   4.474 -0.4115  1.6860  0.2989
14926SOL    HW245592   0.551   0.467   4.622 -0.0852 -0.7360 -0.1532
14927SOL     OW45593   2.535   7.081   1.654 -0.0472 -0.1145  0.0175
14927SOL    HW145594   2.513   7.014   1.589  2.5321 -0.6610 -0.3341
14927SOL    HW245595   2.570   7.033   1.728  1.7576  0.8295 -0.2000
14928SOL     OW45596   4.456   1.392   3.250 -0.2977 -0.1312  0.4197
14928SOL    HW145597   4.460   1.332   3.324 -2.0320 -1.9740 -0.9187
14928SOL    HW245598   4.503   1.470   3.279 -0.2865 -1.1222  3.1608
14929SOL     OW45599   3.792   1.744   4.658 -0.1904 -0.4109  0.1432
14929SOL    HW145600   3.867   1.691   4.632 -1.7405 -1.3613 -2.5267
14929SOL    HW245601   3.778   1.722   4.750  3.3878  0.5433  1.0069
14930SOL     OW45602   2.817   6.562   7.227  0.1295 -0.7498 -0.4531
14930SOL    HW145603   2.745   6.624   7.239  1.6334  1.0981 -0.7399
14930SOL    HW245604   2.857   6.587   7.143 -0.5345 -3.4877 -1.6791
14931SOL     OW45605   3.856   6.162   2.797 -0.0795 -0.5299 -0.3165
14931SOL    HW145606   3.952   6.165   2.803 -0.0134 -0.8390 -1.2035
14931SOL    HW245607   3.826   6.180   2.887  0.7509  2.1214 -0.5184
14932SOL     OW45608   7.632   5.342   4.635  0.2977 -0.3269 -0.0557
14932SOL    HW145609   7.677   5.319   4.716  1.0700  2.4616  0.3595
14932SOL    HW245610   7.697   5.390   4.583 -0.7335 -0.5019 -1.5470
14933SOL     OW45611   6.464   2.196   0.275 -0.1028  0.4735 -0.6594
14933SOL    HW145612   6.559   2.209   0.271 -0.1878  1.4594  0.3141
14933SOL    HW245613   6.438   2.185   0.184  1.2009 -1.7797 -0.8097
14934SOL     OW45614   4.728   6.310   7.981 -0.5284 -0.0384 -0.4201
14934SOL    HW145615   4.679   6.387   8.011 -0.9854 -0.2828 -0.5267
14934SOL    HW245616   4.689   6.289   7.896 -0.3055 -0.3007 -0.4576
14935SOL     OW45617   4.267   1.564   4.955 -0.7264 -0.7042 -0.0613
14935SOL    HW145618   4.220   1.644   4.978 -0.1383 -0.6031  0.8322
14935SOL    HW245619   4.348   1.594   4.915 -0.4856 -0.8454  0.3124
14936SOL     OW45620   4.487   2.069   0.415 -0.1052  0.7312  0.4984
14936SOL    HW145621   4.549   2.111   0.356 -1.7265  1.0269 -1.0492
14936SOL    HW245622   4.509   2.104   0.502  1.6718  1.0475 -0.0609
14937SOL     OW45623   6.659   3.738   7.161 -0.1559 -0.1175  0.0691
14937SOL    HW145624   6.606   3.675   7.210 -0.2102  0.7901  1.2134
14937SOL    HW245625   6.748   3.726   7.195 -0.0839  0.0867 -0.0457
14938SOL     OW45626   4.817   3.213   5.762  0.1812  0.3473 -0.2505
14938SOL    HW145627   4.753   3.284   5.774 -1.6022 -1.3454  0.5126
14938SOL    HW245628   4.776   3.137   5.802  2.1554 -1.0918 -0.8973
14939SOL     OW45629   1.913   1.961   4.320  0.0634 -0.1177 -0.1376
14939SOL    HW145630   1.905   1.933   4.228  1.1607  1.0156 -0.5936
14939SOL    HW245631   2.007   1.962   4.336 -0.1066  0.2130  0.8484
14940SOL     OW45632   3.388   2.426   4.235 -0.5329 -0.3616  0.4701
14940SOL    HW145633   3.461   2.425   4.296  1.8927  0.9603 -2.3220
14940SOL    HW245634   3.363   2.518   4.230  0.3420 -0.2295 -1.7163
14941SOL     OW45635   2.783   1.123   2.982 -0.1075  0.2614 -0.6114
14941SOL    HW145636   2.757   1.043   3.028  0.4742  1.9605  2.7886
14941SOL    HW245637   2.878   1.127   2.994 -0.3196  2.2404  0.5949
14942SOL     OW45638   2.213   7.295   4.678 -0.5169  0.3694  0.1686
14942SOL    HW145639   2.287   7.234   4.672  1.0104  1.9323  2.1436
14942SOL    HW245640   2.215   7.344   4.596 -0.2976 -0.5978 -0.4182
14943SOL     OW45641   6.354   3.173   0.591 -0.2386 -0.3856  0.2225
14943SOL    HW145642   6.342   3.194   0.684 -0.0882 -0.6002  0.2915
14943SOL    HW245643   6.266   3.162   0.557 -0.2552 -1.8405  0.6935
14944SOL     OW45644   6.039   6.966   2.093 -0.2556  0.3406 -0.4897
14944SOL    HW145645   6.042   6.986   2.186 -0.8931  0.5906 -0.5171
14944SOL    HW245646   6.123   6.996   2.059  0.1924 -0.2408  0.1012
14945SOL     OW45647   2.750   4.738   7.429 -0.3423 -0.3534  0.1753
14945SOL    HW145648   2.738   4.730   7.524 -1.4321  0.5402  0.1237
14945SOL    HW245649   2.689   4.674   7.392  0.9520 -1.5684  0.0872
14946SOL     OW45650   7.950   5.627   5.840  0.2486 -0.2038 -0.4685
14946SOL    HW145651   7.990   5.583   5.766 -0.8942 -0.2871 -1.0567
14946SOL    HW245652   7.991   5.587   5.917  1.3080 -0.2380 -1.0457
14947SOL     OW45653   0.326   4.098   2.765 -0.6094  0.4197 -0.1423
14947SOL    HW145654   0.322   4.192   2.747 -0.6655  0.7219  1.3444
14947SOL    HW245655   0.324   4.092   2.861  1.2451 -1.0038 -0.1526
14948SOL     OW45656   6.632   5.326   7.598 -0.2144  0.3285 -0.2097
14948SOL    HW145657   6.563   5.371   7.549 -0.3432  1.5016  1.0276
14948SOL    HW245658   6.586   5.273   7.662  0.0146  0.7334  0.2927
14949SOL     OW45659   3.659   4.295   0.863 -0.0762  0.1514  0.1243
14949SOL    HW145660   3.619   4.379   0.884  1.3155  0.7268  0.4811
14949SOL    HW245661   3.740   4.293   0.914  0.3822 -0.9854 -0.6284
14950SOL     OW45662   2.090   2.511   7.038  0.2961  0.2146 -0.2417
14950SOL    HW145663   2.110   2.446   6.971  1.8645  1.0673 -0.6383
14950SOL    HW245664   2.176   2.542   7.068 -0.3571 -0.8704  2.9067
14951SOL     OW45665   6.419   2.639   4.409 -0.1518  0.2884 -0.0675
14951SOL    HW145666   6.350   2.649   4.344  0.3294  0.5936 -0.5349
14951SOL    HW245667   6.376   2.597   4.483 -0.9006  0.7257 -0.2519
14952SOL     OW45668   6.248   7.669   1.863  0.6032 -0.4715  0.4564
14952SOL    HW145669   6.171   7.625   1.899 -0.0042  0.4230  0.2743
14952SOL    HW245670   6.292   7.602   1.810 -0.9337 -0.5528 -0.7581
14953SOL     OW45671   4.098   0.683   2.858 -0.3513  0.2062  0.0037
14953SOL    HW145672   4.137   0.635   2.785  0.2518  0.3568  0.2235
14953SOL    HW245673   4.035   0.622   2.896  0.3608 -0.3853  0.2414
14954SOL     OW45674   2.287   4.327   2.447 -0.1830  0.0943  0.5276
14954SOL    HW145675   2.342   4.250   2.461  0.8540  0.7338  0.0146
14954SOL    HW245676   2.214   4.315   2.507  1.2591 -0.0462  2.2974
14955SOL     OW45677   2.292   6.928   4.703  0.6518  0.0099  0.5969
14955SOL    HW145678   2.229   6.863   4.676  1.1800 -0.0810 -0.4267
14955SOL    HW245679   2.291   6.924   4.799  1.1410 -1.9384  0.5368
14956SOL     OW45680   4.711   1.578   2.277  0.0241  0.2227 -0.0236
14956SOL    HW145681   4.741   1.656   2.324  0.2230  1.8659 -2.8027
14956SOL    HW245682   4.617   1.573   2.295  0.2245  0.3930  1.1188
14957SOL     OW45683   3.203   0.983   4.525 -0.5485 -0.1122 -0.2113
14957SOL    HW145684   3.216   0.909   4.465  1.2265 -0.2852  0.3681
14957SOL    HW245685   3.145   1.042   4.477  0.7566 -0.2926 -2.0792
14958SOL     OW45686   1.867   3.210   4.702 -0.1182  0.2899  0.0713
14958SOL    HW145687   1.854   3.208   4.607  0.8109  0.8495 -0.0700
14958SOL    HW245688   1.811   3.140   4.735  0.3161 -0.5671 -0.9863
14959SOL     OW45689   0.549   1.483   1.599  0.1049 -0.6770  0.2778
14959SOL    HW145690   0.489   1.499   1.672 -1.6114  0.6563 -1.3718
14959SOL    HW245691   0.531   1.554   1.537  1.6016 -1.7077 -1.3911
14960SOL     OW45692   4.726   3.917   0.164  0.0929 -0.6539 -0.5467
14960SOL    HW145693   4.692   3.838   0.206  1.4074 -1.8360 -1.6421
14960SOL    HW245694   4.649   3.963   0.133 -0.7745 -0.8148  1.2881
14961SOL     OW45695   1.077   7.545   7.471 -0.2489 -0.5654 -0.0423
14961SOL    HW145696   1.007   7.479   7.475 -0.5300 -0.1252  2.8603
14961SOL    HW245697   1.031   7.629   7.475  0.3048 -0.2345 -0.6072
14962SOL     OW45698   5.891   3.949   7.717  0.1827  0.2987  0.3767
14962SOL    HW145699   5.832   3.918   7.785  0.3096  2.9341  1.7578
14962SOL    HW245700   5.975   3.909   7.738  0.6350  2.4098  2.8180
14963SOL     OW45701   7.295   5.261   0.489 -0.3649 -0.0983 -0.2820
14963SOL    HW145702   7.270   5.254   0.581  0.8427  0.1726  0.0781
14963SOL    HW245703   7.335   5.177   0.468 -1.1991 -0.3845 -0.7385
14964SOL     OW45704   0.070   6.937   0.996  0.0452  0.0950  0.1607
14964SOL    HW145705   0.043   6.846   0.995 -1.2068  0.4532  0.7120
14964SOL    HW245706   0.126   6.945   1.074 -0.1142 -0.1254  0.2968
14965SOL     OW45707   6.313   5.996   2.684 -0.3369  0.0855 -0.2280
14965SOL    HW145708   6.397   5.983   2.640 -0.7625 -0.6925 -0.8231
14965SOL    HW245709   6.330   5.975   2.776  0.0688 -0.2812 -0.3870
14966SOL     OW45710   3.356   1.589   7.085 -0.7185 -0.4644  0.1049
14966SOL    HW145711   3.311   1.516   7.126 -2.8750  0.2653 -0.8789
14966SOL    HW245712   3.334   1.664   7.140 -0.8790 -0.0709 -0.4876
14967SOL     OW45713   7.763   2.576   4.902  0.8163 -0.5076  0.2504
14967SOL    HW145714   7.752   2.540   4.990  0.7455 -1.9476 -0.3325
14967SOL    HW245715   7.701   2.648   4.897  1.7783  0.4587  1.8409
14968SOL     OW45716   7.421   4.006   5.798 -0.0704  0.0515  0.6512
14968SOL    HW145717   7.493   3.948   5.824 -0.6792 -1.2066 -0.4035
14968SOL    HW245718   7.363   4.008   5.875  0.5538  0.2141  1.1192
14969SOL     OW45719   4.614   7.841   7.093 -0.2348  1.0586 -0.3087
14969SOL    HW145720   4.636   7.921   7.045  0.4491  1.6332  0.9423
14969SOL    HW245721   4.693   7.821   7.143 -1.4004  1.2734  1.6754
14970SOL     OW45722   7.993   1.977   3.613  0.8672 -0.4686 -0.1594
14970SOL    HW145723   7.959   1.937   3.533  1.0143 -0.7604 -0.0755
14970SOL    HW245724   8.072   1.928   3.633  1.8555  0.7963 -0.8651
14971SOL     OW45725   2.195   7.420   6.599  0.0835  0.0139 -0.0826
14971SOL    HW145726   2.147   7.397   6.520  1.6762  0.0888 -1.0932
14971SOL    HW245727   2.193   7.516   6.602  0.2240  0.0188 -0.1578
14972SOL     OW45728   1.564   4.847   6.002 -0.4582 -0.0528  0.1361
14972SOL    HW145729   1.625   4.779   5.975 -0.7611 -0.3064  0.0977
14972SOL    HW245730   1.527   4.815   6.084  0.9384  1.0080  1.2012
14973SOL     OW45731   3.555   6.834   1.215 -0.1268 -0.4734 -0.3130
14973SOL    HW145732   3.566   6.833   1.120  1.1712  0.3907 -0.1746
14973SOL    HW245733   3.491   6.764   1.232  0.3717 -1.2977 -1.7271
14974SOL     OW45734   3.849   5.153   1.073 -0.2279  0.2623  0.1086
14974SOL    HW145735   3.932   5.105   1.080 -0.3755 -0.4859 -3.0372
14974SOL    HW245736   3.784   5.088   1.049 -0.9483  1.5428 -1.5094
14975SOL     OW45737   1.054   2.588   4.045  0.3004 -0.2162  0.2073
14975SOL    HW145738   1.057   2.679   4.017  1.3374  0.0638  1.2368
14975SOL    HW245739   1.064   2.538   3.963  1.4260  0.5891 -0.1587
14976SOL     OW45740   3.054   1.271   7.694 -0.1133 -0.6369 -0.5519
14976SOL    HW145741   3.131   1.220   7.718 -0.6181 -0.0181  2.5302
14976SOL    HW245742   3.087   1.360   7.681 -0.1405 -0.5829 -0.2533
14977SOL     OW45743   2.106   2.144   3.301  0.2179 -0.1226 -0.2878
14977SOL    HW145744   2.020   2.175   3.270  2.1761  3.8904 -2.0808
14977SOL    HW245745   2.145   2.102   3.224  0.4837 -0.5305  0.0695
14978SOL     OW45746   3.735   5.980   6.881  0.1310 -0.0785  0.1817
14978SOL    HW145747   3.696   5.956   6.965  0.2003  1.4574  0.6827
14978SOL    HW245748   3.813   6.030   6.905 -0.8318  1.9386 -0.7692
14979SOL     OW45749   7.217   3.250   6.543  0.6244  0.0180 -0.7362
14979SOL    HW145750   7.303   3.224   6.577  1.7161  1.9162 -1.9187
14979SOL    HW245751   7.198   3.332   6.590  1.0837  1.4333 -2.9232
14980SOL     OW45752   4.785   3.503   6.974  0.1365  0.1429 -0.4075
14980SOL    HW145753   4.809   3.413   6.995 -1.3633 -0.3485 -0.7610
14980SOL    HW245754   4.748   3.538   7.055  2.9893  1.2844  0.5007
14981SOL     OW45755   7.693   6.963   3.010  0.0009  0.3413 -0.0341
14981SOL    HW145756   7.782   6.999   3.007  0.0847  0.1176 -0.2138
14981SOL    HW245757   7.667   6.957   2.918 -0.9655  2.3181  0.0876
14982SOL     OW45758   7.136   0.669   6.509  0.0647  0.3198  0.2050
14982SOL    HW145759   7.156   0.761   6.522 -1.1515  0.8130 -1.3220
14982SOL    HW245760   7.092   0.643   6.591  1.9109  0.6338  1.3188
14983SOL     OW45761   5.671   4.018   5.507  0.2262 -0.2406  0.0170
14983SOL    HW145762   5.709   3.963   5.575 -0.3486 -1.5516 -0.7040
14983SOL    HW245763   5.584   3.980   5.491  0.2839  0.1623 -1.3242
14984SOL     OW45764   6.438   4.265   4.789  0.3537  0.2079  0.5463
14984SOL    HW145765   6.362   4.303   4.832 -0.1712  0.0720 -0.2611
14984SOL    HW245766   6.451   4.180   4.833  0.1953  0.3423  0.8514
14985SOL     OW45767   6.497   7.623   4.447 -0.5335  0.2786  0.1389
14985SOL    HW145768   6.517   7.544   4.397 -2.7901  0.6554 -1.4080
14985SOL    HW245769   6.579   7.642   4.494  0.6221 -1.9043 -0.8864
14986SOL     OW45770   2.571   4.659   2.541  0.0087  0.3504  0.0297
14986SOL    HW145771   2.480   4.630   2.548 -0.4229  0.9206 -2.4989
14986SOL    HW245772   2.579   4.730   2.605 -1.1262 -0.2070  0.8001
14987SOL     OW45773   7.072   3.421   6.717 -0.4107  0.7389  0.0249
14987SOL    HW145774   6.983   3.386   6.714 -0.8824  1.6891  1.9776
14987SOL    HW245775   7.098   3.412   6.809  1.4006  0.7492 -0.4646
14988SOL     OW45776   2.822   5.992   0.573 -0.0948  0.2912 -0.5232
14988SOL    HW145777   2.744   6.031   0.614  0.0747  1.1896 -1.0280
14988SOL    HW245778   2.856   5.932   0.639 -0.4382  0.9149  0.2398
14989SOL     OW45779   6.736   5.029   5.025  0.2581 -0.0770 -0.0275
14989SOL    HW145780   6.800   5.087   4.983  1.9148 -2.5911 -1.0640
14989SOL    HW245781   6.671   5.089   5.062  0.9563  2.3739 -2.6063
14990SOL     OW45782   4.683   5.033   3.110 -0.3827 -0.1218 -0.2323
14990SOL    HW145783   4.730   4.963   3.065  0.7391  1.2758 -1.2542
14990SOL    HW245784   4.610   5.054   3.053  0.2034  0.6455 -0.7035
14991SOL     OW45785   2.477   5.328   4.821 -0.0551 -0.1012 -0.0545
14991SOL    HW145786   2.533   5.284   4.757 -1.7414 -3.1520  0.4482
14991SOL    HW245787   2.520   5.315   4.905 -0.0808  0.0423 -0.0182
14992SOL     OW45788   2.128   7.576   5.506  0.5296 -0.2261 -0.1920
14992SOL    HW145789   2.175   7.541   5.431 -0.6006 -0.4490 -0.8009
14992SOL    HW245790   2.181   7.651   5.535  0.8161  0.0375 -1.3832
14993SOL     OW45791   2.069   2.084   5.066  0.4481  0.0310 -0.1085
14993SOL    HW145792   2.165   2.079   5.071  0.4637 -0.2582 -0.6160
14993SOL    HW245793   2.046   2.019   5.000 -0.1059  0.0508  0.0681
14994SOL     OW45794   1.070   2.011   5.650 -1.3166  0.2720 -0.1060
14994SOL    HW145795   1.042   1.988   5.739  0.4613 -1.2247  0.0923
14994SOL    HW245796   0.991   2.000   5.597 -2.5200  1.6496  1.3538
14995SOL     OW45797   6.099   0.828   6.461  0.1368 -0.2822  0.6930
14995SOL    HW145798   6.032   0.883   6.422  1.1172  0.7292  0.4252
14995SOL    HW245799   6.109   0.755   6.400 -1.3773 -0.9392  1.2010
14996SOL     OW45800   3.956   6.409   6.200 -0.2256 -0.1871  0.2030
14996SOL    HW145801   3.892   6.461   6.249  1.8721  0.4511  2.3403
14996SOL    HW245802   3.981   6.466   6.127  0.9834  1.2578  1.7134
14997SOL     OW45803   6.427   7.113   6.965  0.1972  0.3683 -0.0254
14997SOL    HW145804   6.352   7.125   7.022 -0.4496 -0.9634 -0.5608
14997SOL    HW245805   6.390   7.115   6.876  0.2286 -3.6908 -0.2122
14998SOL     OW45806   7.843   6.559   2.173 -0.1373 -0.0256  0.2933
14998SOL    HW145807   7.758   6.531   2.209  0.1159 -0.1615  0.7864
14998SOL    HW245808   7.844   6.654   2.186 -0.1091 -0.0555  0.5092
14999SOL     OW45809   4.596   2.147   6.936  0.2383  0.0032 -0.2921
14999SOL    HW145810   4.507   2.182   6.936  1.1058  2.4981 -3.7634
14999SOL    HW245811   4.599   2.090   6.859  0.8422 -2.4428  1.4758
15000SOL     OW45812   1.795   3.559   1.292  0.3188  0.6120 -0.1181
15000SOL    HW145813   1.867   3.580   1.352  0.5921  1.8686 -0.8612
15000SOL    HW245814   1.802   3.465   1.278  0.4423  0.3566  1.5791
15001SOL     OW45815   3.332   7.151   5.258 -0.2703  0.1875 -0.3604
15001SOL    HW145816   3.290   7.074   5.295 -0.8930  0.0677 -1.2930
15001SOL    HW245817   3.289   7.164   5.174  0.3349  1.1223 -0.5397
15002SOL     OW45818   0.851   3.469   2.332  0.1204 -0.0271 -0.5888
15002SOL    HW145819   0.855   3.378   2.362  0.8819 -0.1873 -1.1522
15002SOL    HW245820   0.902   3.470   2.251 -1.9062  0.3928 -1.8937
15003SOL     OW45821   2.219   2.016   2.581 -0.1296 -0.0302 -0.3229
15003SOL    HW145822   2.305   2.009   2.624 -0.0512  0.2345 -0.4350
15003SOL    HW245823   2.233   2.081   2.512 -0.6805  0.7621  0.2981
15004SOL     OW45824   4.741   5.118   5.243  0.0329 -0.0079 -0.3025
15004SOL    HW145825   4.790   5.193   5.277 -0.3179  1.0001 -1.9235
15004SOL    HW245826   4.805   5.048   5.236  1.3947  1.3979 -2.7189
15005SOL     OW45827   2.007   6.944   7.161 -0.6240 -0.0226  0.0564
15005SOL    HW145828   1.981   6.965   7.071 -0.8205  1.6467  0.4852
15005SOL    HW245829   1.965   7.011   7.215  1.1016  0.1958  1.1903
15006SOL     OW45830   4.300   2.285   7.504 -0.0473 -0.0879 -0.7059
15006SOL    HW145831   4.271   2.375   7.515 -0.6858 -0.2442 -1.0653
15006SOL    HW245832   4.375   2.290   7.445  0.8021  0.3437  0.4123
15007SOL     OW45833   0.800   3.065   1.061  0.0757 -0.1040 -0.4946
15007SOL    HW145834   0.872   3.127   1.057 -0.4868  0.4807 -1.9509
15007SOL    HW245835   0.746   3.095   1.135 -0.1910  1.1584 -1.1878
15008SOL     OW45836   2.426   2.426   4.673 -0.1038  0.0625  0.4609
15008SOL    HW145837   2.435   2.353   4.611 -0.0598 -0.1449  0.7100
15008SOL    HW245838   2.332   2.434   4.687 -0.3397  2.2060 -2.1067
15009SOL     OW45839   4.190   2.576   3.330 -0.0850 -0.1237  0.1526
15009SOL    HW145840   4.217   2.609   3.415 -2.9203 -0.3190  1.1788
15009SOL    HW245841   4.128   2.641   3.297  0.9468 -0.0681 -1.7624
15010SOL     OW45842   2.720   6.004   7.912  0.7801  0.2143 -0.0023
15010SOL    HW145843   2.701   6.097   7.924  0.8306  0.3459 -0.9133
15010SOL    HW245844   2.634   5.962   7.907  0.7018  0.5391 -2.0132
15011SOL     OW45845   6.076   3.923   6.017  0.3886 -0.0792  0.1702
15011SOL    HW145846   5.999   3.867   6.021  0.1404  0.1844 -0.7446
15011SOL    HW245847   6.096   3.943   6.109 -1.6462  1.2343  0.3546
15012SOL     OW45848   2.129   4.413   3.405  0.1877 -0.0495 -0.3184
15012SOL    HW145849   2.216   4.454   3.404  0.3610 -0.3735 -2.3508
15012SOL    HW245850   2.143   4.327   3.444  0.9084 -0.3389 -1.2052
15013SOL     OW45851   1.062   4.421   0.616 -0.2126 -0.5720  0.7435
15013SOL    HW145852   1.005   4.494   0.595 -0.9150 -0.8128  1.7580
15013SOL    HW245853   1.148   4.460   0.631 -0.1708 -0.1773 -0.5172
15014SOL     OW45854   4.493   6.262   1.715 -0.1109 -0.7325  0.1103
15014SOL    HW145855   4.446   6.184   1.683 -0.1751 -0.8335  0.4499
15014SOL    HW245856   4.582   6.231   1.731  0.3513 -0.2964 -1.5318
15015SOL     OW45857   4.249   7.986   6.556 -0.2952  0.6996 -0.2921
15015SOL    HW145858   4.212   8.016   6.639  0.2963  1.3743 -0.2670
15015SOL    HW245859   4.196   8.029   6.489 -1.0760 -0.2208 -0.2694
15016SOL     OW45860   7.489   2.333   5.440 -0.2439 -0.1098  0.3204
15016SOL    HW145861   7.516   2.406   5.384  1.8495 -0.0216  1.4097
15016SOL    HW245862   7.437   2.277   5.382  0.6786  0.7037 -1.3308
15017SOL     OW45863   6.228   2.241   2.834  0.1634 -0.0467 -0.5561
15017SOL    HW145864   6.175   2.207   2.762 -0.8751 -1.3920  0.7974
15017SOL    HW245865   6.251   2.330   2.807 -1.2297 -0.0967 -1.9948
15018SOL     OW45866   0.389   1.256   1.700 -0.1831 -0.8531 -0.4380
15018SOL    HW145867   0.435   1.245   1.616 -0.9427  0.0041 -0.9702
15018SOL    HW245868   0.338   1.336   1.689 -0.6838 -1.0195  0.6702
15019SOL     OW45869   1.520   3.493   4.721 -0.0377  0.3462  0.0861
15019SOL    HW145870   1.553   3.441   4.794  1.3630  0.0247 -0.7505
15019SOL    HW245871   1.445   3.540   4.757  0.3033 -0.2157  1.5798
15020SOL     OW45872   5.530   6.053   5.798 -0.3040  0.5683  0.2638
15020SOL    HW145873   5.608   6.023   5.751 -0.1953 -0.6095  1.1651
15020SOL    HW245874   5.522   6.145   5.776 -0.1230  0.0881 -1.8726
15021SOL     OW45875   6.473   0.212   0.905  0.6444 -0.2188  0.0601
15021SOL    HW145876   6.480   0.307   0.893 -0.5211 -0.2395 -0.9006
15021SOL    HW245877   6.554   0.177   0.869  0.7022  0.3538 -0.3758
15022SOL     OW45878   4.465   6.996   0.080 -0.2817 -0.3112  0.1474
15022SOL    HW145879   4.413   7.022   0.156  1.9911 -0.9337  1.9764
15022SOL    HW245880   4.488   7.079   0.038 -0.4104  0.1257  0.9179
15023SOL     OW45881   3.879   2.743   5.968 -0.6305 -0.3460 -0.1254
15023SOL    HW145882   3.791   2.751   6.006  0.2704  0.1683  1.9002
15023SOL    HW245883   3.925   2.684   6.028  1.1102  1.2301  0.1308
15024SOL     OW45884   3.544   2.545   6.406  0.1733 -0.4774  0.1187
15024SOL    HW145885   3.570   2.471   6.352  1.2703  0.1911 -0.2945
15024SOL    HW245886   3.590   2.620   6.367 -1.4715  0.5391  0.0886
15025SOL     OW45887   4.309   4.301   3.384  0.5660 -0.5977 -0.0289
15025SOL    HW145888   4.376   4.299   3.453  0.5572 -0.3580 -0.0149
15025SOL    HW245889   4.307   4.211   3.351  0.0675 -0.8881  0.7686
15026SOL     OW45890   7.777   0.267   0.302 -0.4725  0.6410  0.4744
15026SOL    HW145891   7.772   0.225   0.388  0.3508  0.1452  0.2954
15026SOL    HW245892   7.868   0.253   0.274 -1.2330 -0.9619 -1.3325
15027SOL     OW45893   3.698   0.747   5.622  0.1427 -0.4224 -0.3364
15027SOL    HW145894   3.729   0.678   5.563  1.2722 -0.1883 -0.0382
15027SOL    HW245895   3.696   0.826   5.567  3.3759  0.2919  0.4080
15028SOL     OW45896   4.485   3.795   7.777  0.4392 -0.6293 -0.3298
15028SOL    HW145897   4.415   3.804   7.842  3.1388 -1.3266  2.8170
15028SOL    HW245898   4.504   3.701   7.775  0.9944 -0.5037 -1.5037
15029SOL     OW45899   7.649   0.488   6.374  0.5842 -0.1173  0.0671
15029SOL    HW145900   7.717   0.539   6.331 -1.4730  1.2925 -1.5769
15029SOL    HW245901   7.655   0.513   6.466  1.3048  1.1404 -0.3167
15030SOL     OW45902   6.495   3.433   4.422 -0.4318 -0.3001 -0.0002
15030SOL    HW145903   6.531   3.479   4.497  1.9827  0.0209 -1.2890
15030SOL    HW245904   6.421   3.488   4.393 -0.1483  0.5841  0.9432
15031SOL     OW45905   5.385   3.956   4.373  0.2623 -0.0665  0.0263
15031SOL    HW145906   5.332   3.887   4.412  0.6174  0.0157  0.6492
15031SOL    HW245907   5.415   3.919   4.290  0.8339 -0.8299  0.5697
15032SOL     OW45908   0.395   2.883   7.968 -0.2157 -0.3571 -0.1480
15032SOL    HW145909   0.301   2.875   7.950 -0.6610  1.8974  1.0982
15032SOL    HW245910   0.407   2.837   8.051 -0.6221  1.2974  0.8338
15033SOL     OW45911   7.654   0.952   2.843 -0.3641 -0.2942 -0.3309
15033SOL    HW145912   7.680   0.927   2.754 -2.1927  0.9347 -1.2485
15033SOL    HW245913   7.665   1.047   2.845  0.9902 -0.4636  1.2265
15034SOL     OW45914   7.247   7.511   2.288 -0.6784 -0.3629 -0.0667
15034SOL    HW145915   7.312   7.441   2.280 -2.6234 -2.2686  0.3321
15034SOL    HW245916   7.266   7.553   2.371  0.0022 -0.9436  0.0735
15035SOL     OW45917   3.697   5.272   2.386  0.2211  0.2533  0.6223
15035SOL    HW145918   3.679   5.337   2.454  2.3580 -0.7789  2.2356
15035SOL    HW245919   3.757   5.211   2.427  0.6942 -1.0190 -1.8808
15036SOL     OW45920   4.395   1.727   0.432 -0.3316  0.2082 -0.2646
15036SOL    HW145921   4.419   1.819   0.428 -0.9765  0.4380  0.7694
15036SOL    HW245922   4.475   1.682   0.458  0.1394  0.3993 -1.3827
15037SOL     OW45923   2.442   2.433   3.244  0.4310  0.1077 -0.3619
15037SOL    HW145924   2.531   2.457   3.218  0.6939  1.0278  1.3000
15037SOL    HW245925   2.446   2.338   3.256  1.3914  0.2359  0.4057
15038SOL     OW45926   4.651   7.335   2.548 -0.1880 -0.3952  0.8013
15038SOL    HW145927   4.672   7.242   2.554 -0.5494 -0.4965  0.5622
15038SOL    HW245928   4.599   7.342   2.468  0.7034  0.1797  0.2737
15039SOL     OW45929   2.209   5.540   1.178  0.1621  0.0791  0.0564
15039SOL    HW145930   2.176   5.455   1.206  0.7658 -0.0172  0.4763
15039SOL    HW245931   2.230   5.528   1.085  0.1184 -0.1880  0.0814
15040SOL     OW45932   7.833   1.288   4.341 -0.1837  0.0360  0.0748
15040SOL    HW145933   7.873   1.317   4.423 -0.7064  0.3725  0.2105
15040SOL    HW245934   7.768   1.223   4.367 -0.1550 -0.0598 -0.0931
15041SOL     OW45935   2.046   2.302   5.549 -0.4534  0.1840  0.6512
15041SOL    HW145936   2.025   2.299   5.456 -0.3851 -0.6704  0.6574
15041SOL    HW245937   2.127   2.252   5.557 -0.7183 -0.1581  1.2386
15042SOL     OW45938   6.754   1.296   1.715  0.2387  0.4832 -0.5741
15042SOL    HW145939   6.848   1.300   1.731  0.0029  1.8049  0.5939
15042SOL    HW245940   6.746   1.248   1.633  1.8631 -0.6775 -0.0809
15043SOL     OW45941   3.834   6.017   4.845  0.0210 -0.0912  0.6479
15043SOL    HW145942   3.807   6.031   4.754  1.7032  1.0364  0.2726
15043SOL    HW245943   3.848   5.923   4.852  0.4565 -0.1179 -0.4507
15044SOL     OW45944   6.781   3.745   0.637 -0.3324 -0.2873  0.6477
15044SOL    HW145945   6.810   3.667   0.682 -0.0172 -1.3901 -1.3945
15044SOL    HW245946   6.730   3.793   0.702  1.3818 -1.0483  2.5963
15045SOL     OW45947   7.388   1.242   5.839  0.8899  0.4123  0.0135
15045SOL    HW145948   7.310   1.199   5.873 -0.2486  1.9661 -0.5991
15045SOL    HW245949   7.441   1.170   5.803  0.5152 -0.8329  1.8727
15046SOL     OW45950   5.964   0.554   0.783 -0.2550 -0.2265  0.0779
15046SOL    HW145951   6.037   0.582   0.838  0.1228 -1.0919  0.0200
15046SOL    HW245952   5.992   0.471   0.745 -1.1890 -0.4692 -0.1030
15047SOL     OW45953   6.783   5.715   0.313  0.3190  0.4555  0.0172
15047SOL    HW145954   6.752   5.806   0.310 -1.1659  0.0490  1.8970
15047SOL    HW245955   6.739   5.673   0.239 -0.6941  0.7847  0.4159
15048SOL     OW45956   0.482   0.272   0.575  0.6606 -0.1692 -0.2668
15048SOL    HW145957   0.424   0.213   0.527  0.9936 -0.3435 -0.4651
15048SOL    HW245958   0.466   0.358   0.537 -0.3748  0.0018  0.5403
15049SOL     OW45959   0.068   0.681   5.518  0.3059 -0.1208  0.0551
15049SOL    HW145960   0.136   0.624   5.555  1.8644  1.1896 -0.7248
15049SOL    HW245961   0.014   0.705   5.593  0.7418 -1.1162  0.7063
15050SOL     OW45962   2.201   2.840   2.141 -0.0021 -0.1963 -0.3810
15050SOL    HW145963   2.142   2.850   2.067  1.4331  1.6187 -1.2951
15050SOL    HW245964   2.239   2.927   2.154  0.3610 -0.6714  1.9818
15051SOL     OW45965   4.321   4.800   7.841 -0.1336  0.5163 -0.1025
15051SOL    HW145966   4.413   4.800   7.867  0.1011 -0.5993 -0.8798
15051SOL    HW245967   4.273   4.798   7.924  0.5029  2.5263  0.3375
15052SOL     OW45968   4.950   1.964   3.569 -0.2180 -0.5000 -0.3965
15052SOL    HW145969   4.980   2.050   3.600 -1.1629 -0.9997  1.9705
15052SOL    HW245970   5.020   1.904   3.594 -0.9435 -0.8899  0.7283
15053SOL     OW45971   5.960   1.213   4.653 -0.8260 -0.3927 -0.0684
15053SOL    HW145972   5.965   1.140   4.592  0.6026 -0.2767 -0.1053
15053SOL    HW245973   6.005   1.182   4.732  0.7092  0.7765 -0.4498
15054SOL     OW45974   1.294   5.250   2.820  0.8848  0.7435  0.9864
15054SOL    HW145975   1.245   5.238   2.739 -0.8710  1.0468  1.9766
15054SOL    HW245976   1.352   5.175   2.824 -1.6913 -1.3060  1.2986
15055SOL     OW45977   6.794   5.501   4.184 -0.2469  0.2040 -0.2549
15055SOL    HW145978   6.732   5.572   4.201  0.4008  0.6360  0.2948
15055SOL    HW245979   6.740   5.431   4.148 -0.9194  0.9057 -0.6243
15056SOL     OW45980   4.185   0.791   4.582 -0.0299 -0.4113 -0.4475
15056SOL    HW145981   4.228   0.842   4.514 -1.3441 -0.1707 -1.1104
15056SOL    HW245982   4.119   0.850   4.619  0.8458 -0.4405  1.2259
15057SOL     OW45983   3.206   5.764   6.376  0.0801 -0.0874  0.1448
15057SOL    HW145984   3.262   5.819   6.321  2.7478 -0.4741  2.3571
15057SOL    HW245985   3.190   5.817   6.454 -0.2378 -1.1363  0.8027
15058SOL     OW45986   2.508   3.844   0.455  0.0240  0.1841  0.0600
15058SOL    HW145987   2.423   3.817   0.490 -0.3605  0.4946 -0.6227
15058SOL    HW245988   2.498   3.837   0.360 -0.0622  2.5531 -0.1465
15059SOL     OW45989   4.317   3.729   4.082 -0.2030  0.1587  0.2090
15059SOL    HW145990   4.323   3.809   4.031 -0.5404 -1.5098 -2.5839
15059SOL    HW245991   4.225   3.704   4.079  0.0708 -0.9039  0.1048
15060SOL     OW45992   5.159   4.785   5.195  0.3955 -0.0444  0.3558
15060SOL    HW145993   5.220   4.854   5.221 -1.0170  1.4547 -0.1860
15060SOL    HW245994   5.076   4.810   5.235  0.1094 -2.0183  1.0304
15061SOL     OW45995   1.779   1.498   4.979 -0.5159 -0.6756 -0.5876
15061SOL    HW145996   1.814   1.537   5.059 -1.7106  3.0207 -1.8064
15061SOL    HW245997   1.849   1.440   4.948  1.7208  1.2672  0.7255
15062SOL     OW45998   6.713   6.975   4.733  0.4291 -0.4094  0.2036
15062SOL    HW145999   6.672   7.004   4.815 -1.8141 -0.3082 -0.9082
15062SOL    HW246000   6.806   6.967   4.754 -0.0019  0.3459  2.5528
15063SOL     OW46001   4.691   7.939   4.755  0.4635  0.5148 -0.1939
15063SOL    HW146002   4.775   7.909   4.720  0.0339 -0.1901 -0.6360
15063SOL    HW246003   4.677   8.024   4.715  0.8513  0.5240 -0.3115
15064SOL     OW46004   6.044   0.169   2.034 -0.6090  0.1959  0.0821
15064SOL    HW146005   5.981   0.238   2.015 -1.2220  0.1430  1.8300
15064SOL    HW246006   6.127   0.215   2.050 -1.0316  0.5615  1.3099
15065SOL     OW46007   0.481   0.852   6.927  0.4166  0.0293  0.5138
15065SOL    HW146008   0.549   0.910   6.893  0.7612 -1.1567 -0.8704
15065SOL    HW246009   0.404   0.908   6.936  0.6860  0.6709 -0.9896
15066SOL     OW46010   7.040   7.306   4.109  0.7972 -0.1324  0.1561
15066SOL    HW146011   7.062   7.288   4.018  0.2537 -0.3302  0.0660
15066SOL    HW246012   7.011   7.397   4.110  0.4610 -0.2395  0.0727
15067SOL     OW46013   1.911   4.998   5.002  0.0437 -0.5726  0.0065
15067SOL    HW146014   1.851   4.950   5.058 -1.0978  1.4320  0.5307
15067SOL    HW246015   1.997   4.982   5.041 -0.2541 -2.4500 -0.0417
15068SOL     OW46016   5.623   3.066   1.752  0.3375  0.3611 -0.7926
15068SOL    HW146017   5.676   2.990   1.730  1.0217  1.0937 -1.7488
15068SOL    HW246018   5.596   3.052   1.843  2.0607 -0.0847 -0.3392
15069SOL     OW46019   4.498   2.090   6.027 -0.6181  0.0178  0.5127
15069SOL    HW146020   4.492   2.006   6.073  0.1219  0.4934  1.5159
15069SOL    HW246021   4.417   2.136   6.049 -0.6616 -0.1152  0.6293
15070SOL     OW46022   7.521   3.926   2.422 -0.3419 -0.0727  0.2057
15070SOL    HW146023   7.604   3.926   2.374  0.5774  2.1708  1.6549
15070SOL    HW246024   7.470   3.997   2.382 -0.1744  0.7973  1.4936
15071SOL     OW46025   1.900   6.349   3.551 -0.0853  0.2916 -0.0199
15071SOL    HW146026   1.808   6.337   3.528 -0.0539  1.2062 -0.6663
15071SOL    HW246027   1.947   6.332   3.470  0.3220 -0.1993  0.3167
15072SOL     OW46028   7.038   2.093   6.009  0.4936  0.0737 -0.4542
15072SOL    HW146029   7.015   2.020   6.066  2.1801 -0.3379 -0.2690
15072SOL    HW246030   7.128   2.076   5.983  0.6790  1.7345 -0.9812
15073SOL     OW46031   2.736   4.630   4.043  0.2368  0.2008  0.0154
15073SOL    HW146032   2.799   4.689   4.001 -0.1224  0.3879 -0.2545
15073SOL    HW246033   2.777   4.608   4.127  0.5443  0.5330 -0.0456
15074SOL     OW46034   2.960   2.902   2.300 -0.5708  0.5139 -0.5699
15074SOL    HW146035   3.018   2.826   2.304  0.3654  1.2155 -0.8051
15074SOL    HW246036   3.002   2.962   2.239 -0.5355  1.8765  0.7608
15075SOL     OW46037   7.101   0.680   4.625 -0.2394 -0.2843 -0.3872
15075SOL    HW146038   7.145   0.706   4.706 -2.1290 -1.6170  1.1118
15075SOL    HW246039   7.162   0.704   4.555  1.3708  0.9780  1.4234
15076SOL     OW46040   2.549   0.191   7.055  0.6899 -0.2423 -0.0170
15076SOL    HW146041   2.558   0.096   7.051 -0.5932 -0.4133  0.7533
15076SOL    HW246042   2.585   0.223   6.972  0.5964 -1.4376 -0.5186
15077SOL     OW46043   7.935   6.195   3.186  0.4239 -0.3858 -0.2500
15077SOL    HW146044   7.888   6.277   3.204  1.0406  0.0672 -0.6664
15077SOL    HW246045   8.027   6.217   3.203  0.7163 -0.6876 -1.3950
15078SOL     OW46046   6.038   0.672   3.331 -0.6230  0.0490  0.0200
15078SOL    HW146047   6.131   0.690   3.319  0.0700 -3.0387  0.3533
15078SOL    HW246048   6.023   0.684   3.425  0.0516 -1.8676  0.4027
15079SOL     OW46049   3.867   5.443   7.116  0.1821 -0.3068  1.0380
15079SOL    HW146050   3.957   5.455   7.144 -0.0866 -0.8573  2.1697
15079SOL    HW246051   3.869   5.457   7.021  1.7506 -2.0125  0.8010
15080SOL     OW46052   5.427   0.611   6.820  0.0863  0.3821  0.0002
15080SOL    HW146053   5.339   0.629   6.789 -0.0214  0.1969  0.1994
15080SOL    HW246054   5.481   0.611   6.740 -0.7149 -3.3320 -0.6354
15081SOL     OW46055   3.825   3.541   7.856 -0.2113  0.2441  0.4566
15081SOL    HW146056   3.900   3.569   7.803 -0.7897 -0.0410 -0.5244
15081SOL    HW246057   3.844   3.450   7.877 -0.0495  0.3163  0.6291
15082SOL     OW46058   6.484   7.011   4.985  0.0968  0.2009 -0.2854
15082SOL    HW146059   6.395   7.046   4.983  0.4666  1.1550 -0.4529
15082SOL    HW246060   6.473   6.916   4.979 -0.8282  0.4049 -2.2469
15083SOL     OW46061   7.181   1.235   4.949 -0.2161  0.4890  0.0741
15083SOL    HW146062   7.118   1.277   4.891 -0.5246  1.5918  1.1846
15083SOL    HW246063   7.219   1.307   5.000  0.1443 -0.4300  1.1371
15084SOL     OW46064   4.075   6.523   4.151  0.0340  0.3330 -0.6560
15084SOL    HW146065   4.144   6.546   4.214 -0.8308  0.6726  0.1925
15084SOL    HW246066   4.091   6.431   4.130 -0.8376 -0.3790  1.6265
15085SOL     OW46067   1.029   3.102   5.130 -0.1633  0.1938 -0.1296
15085SOL    HW146068   1.011   3.044   5.204 -2.0154  0.5165 -0.3062
15085SOL    HW246069   0.968   3.176   5.142  0.2754  0.7672 -1.3809
15086SOL     OW46070   5.372   0.265   3.352 -0.0322  0.1368  0.3449
15086SOL    HW146071   5.358   0.266   3.258  1.0323  1.8271  0.1716
15086SOL    HW246072   5.412   0.180   3.370 -1.2330 -0.6267 -0.5579
15087SOL     OW46073   7.057   2.017   0.281  0.0871 -0.3241 -0.1257
15087SOL    HW146074   7.057   2.091   0.342 -0.9146 -1.4228  1.2310
15087SOL    HW246075   7.086   1.942   0.333 -0.7335 -1.2732 -0.9989
15088SOL     OW46076   7.754   3.593   1.846  0.4081 -0.4427  0.5085
15088SOL    HW146077   7.761   3.623   1.756 -2.1936 -4.9037 -1.3820
15088SOL    HW246078   7.703   3.661   1.890 -1.4913  0.1160 -2.3829
15089SOL     OW46079   4.649   4.092   7.458  0.4970  0.7240  0.7863
15089SOL    HW146080   4.558   4.116   7.442  0.5042 -0.4154 -1.1999
15089SOL    HW246081   4.653   4.071   7.551 -1.2492  0.8772  0.9099
15090SOL     OW46082   4.465   6.991   7.748 -0.1116 -0.1304 -0.4040
15090SOL    HW146083   4.475   7.063   7.686 -0.4501 -0.4703 -0.8569
15090SOL    HW246084   4.464   7.033   7.834  0.5876  0.3197 -0.6159
15091SOL     OW46085   2.184   7.405   6.016 -0.2652 -0.2910  0.2147
15091SOL    HW146086   2.096   7.398   6.052 -0.3447  0.0923  0.0978
15091SOL    HW246087   2.236   7.443   6.087 -0.2287 -0.3656  0.2277
15092SOL     OW46088   2.005   5.826   2.935 -0.5153  0.3388 -0.1883
15092SOL    HW146089   2.080   5.776   2.901 -0.5713  0.8311 -1.0543
15092SOL    HW246090   2.042   5.911   2.958 -0.4575 -0.0281  1.1071
15093SOL     OW46091   6.797   3.327   0.045 -0.1798 -0.6680 -1.0189
15093SOL    HW146092   6.736   3.375  -0.011  1.4952  0.5150 -1.8782
15093SOL    HW246093   6.743   3.297   0.118 -1.2957  2.5173 -0.4574
15094SOL     OW46094   1.575   6.008   5.712  0.2270  0.5393 -0.4766
15094SOL    HW146095   1.656   6.046   5.747  0.1427  0.0950  0.2109
15094SOL    HW246096   1.603   5.927   5.670  0.0427 -0.0096  0.4418
15095SOL     OW46097   3.728   0.271   6.985 -0.1854 -0.0656  0.4639
15095SOL    HW146098   3.819   0.256   7.009 -0.7375  0.0087  2.7553
15095SOL    HW246099   3.679   0.202   7.031 -1.4031  0.6323  0.2508
15096SOL     OW46100   1.040   5.881   1.411 -0.2185  0.7264  0.0048
15096SOL    HW146101   1.033   5.953   1.349 -0.9541 -0.2209 -1.0439
15096SOL    HW246102   1.005   5.805   1.364  1.6141 -0.5770  0.6726
15097SOL     OW46103   6.786   1.937   7.423 -0.0880  0.0442 -0.5171
15097SOL    HW146104   6.848   1.878   7.379  0.1348 -0.1578  0.0549
15097SOL    HW246105   6.841   1.986   7.485 -0.3155  0.6693 -0.8125
15098SOL     OW46106   2.268   1.965   3.113 -0.4626  0.0452 -0.1351
15098SOL    HW146107   2.354   1.957   3.155 -1.6558  1.0791  2.6177
15098SOL    HW246108   2.230   1.877   3.122 -1.1397  0.5350  1.9717
15099SOL     OW46109   4.013   2.793   2.637 -0.4621  0.4684 -0.1325
15099SOL    HW146110   3.952   2.759   2.703 -0.7580  1.1999 -0.0231
15099SOL    HW246111   4.012   2.888   2.651 -0.1828  0.5829 -0.8996
15100SOL     OW46112   7.170   3.365   7.777 -0.5920 -0.3948 -0.4399
15100SOL    HW146113   7.103   3.373   7.709 -0.0953  0.0204 -0.8787
15100SOL    HW246114   7.135   3.299   7.837 -1.4771 -0.0592 -0.5792
15101SOL     OW46115   2.198   0.322   1.169  0.3377  0.3105  0.0295
15101SOL    HW146116   2.255   0.322   1.247 -0.0591  0.7403  0.3167
15101SOL    HW246117   2.116   0.283   1.199  0.3622 -0.0146 -0.3109
15102SOL     OW46118   0.044   7.950   3.768  0.4503 -0.1968  0.2900
15102SOL    HW146119   0.038   8.013   3.696  0.1359 -1.8253 -1.1460
15102SOL    HW246120   0.136   7.950   3.793  0.5322  0.5091  0.0057
15103SOL     OW46121   1.260   4.054   6.374 -0.0375 -0.0261  0.0900
15103SOL    HW146122   1.223   4.036   6.460  2.6303  0.4323  1.3498
15103SOL    HW246123   1.345   4.094   6.391  0.2341  0.7558 -2.7517
15104SOL     OW46124   1.859   5.521   0.057 -0.2396  0.0490 -0.2192
15104SOL    HW146125   1.865   5.428   0.076 -2.2452  0.5340  3.1803
15104SOL    HW246126   1.936   5.559   0.099 -0.6355  0.1687  0.4159
15105SOL     OW46127   6.627   5.472   7.967 -1.1068 -0.1213  0.0352
15105SOL    HW146128   6.614   5.486   7.873 -0.5695  0.3186  0.0282
15105SOL    HW246129   6.556   5.522   8.009 -0.1458  1.3274 -0.0537
15106SOL     OW46130   6.695   7.921   2.063  0.3860 -0.4747 -0.2874
15106SOL    HW146131   6.729   8.010   2.075  1.3792 -1.2605  3.1862
15106SOL    HW246132   6.600   7.932   2.066  0.4966  0.2440  2.7165
15107SOL     OW46133   4.645   5.957   7.401  0.3058 -0.2590 -0.3261
15107SOL    HW146134   4.595   5.938   7.480 -0.3611 -0.5435 -0.8163
15107SOL    HW246135   4.622   6.048   7.379  0.2315 -0.2919 -0.3848
15108SOL     OW46136   1.550   3.091   2.854 -0.3455 -0.0446 -0.3599
15108SOL    HW146137   1.579   3.182   2.846 -1.0643  0.3035  0.8620
15108SOL    HW246138   1.500   3.074   2.775  0.6948  0.2744 -1.0982
15109SOL     OW46139   5.514   3.242   4.287 -0.4482  0.7865  0.5485
15109SOL    HW146140   5.427   3.243   4.326 -0.2957  0.9558  0.8886
15109SOL    HW246141   5.499   3.254   4.194 -0.8871 -0.5029  0.4338
15110SOL     OW46142   3.771   1.256   7.783 -0.6067 -0.0716  0.0446
15110SOL    HW146143   3.774   1.217   7.870  0.5782 -0.5657 -0.2086
15110SOL    HW246144   3.861   1.284   7.765 -0.5893 -0.9863 -1.4571
15111SOL     OW46145   5.187   6.496   1.578 -0.3880  0.0352 -0.7127
15111SOL    HW146146   5.225   6.411   1.555  0.9481  0.2835  0.4511
15111SOL    HW246147   5.232   6.520   1.659 -1.2768  1.5225 -0.6495
15112SOL     OW46148   0.661   7.387   4.007 -1.0690  0.0872  0.0770
15112SOL    HW146149   0.681   7.361   4.097  0.6488 -0.4042 -0.4264
15112SOL    HW246150   0.656   7.304   3.959 -2.6633  0.3071 -0.1657
15113SOL     OW46151   0.310   5.486   3.043  0.0657 -0.2059 -0.3871
15113SOL    HW146152   0.231   5.440   3.071  0.6926 -1.5735 -0.8031
15113SOL    HW246153   0.338   5.534   3.121 -0.0060 -1.3894  0.3866
15114SOL     OW46154   5.897   2.244   4.299  0.0710 -0.4526 -0.0855
15114SOL    HW146155   5.973   2.188   4.312 -1.0047 -2.4127 -1.8533
15114SOL    HW246156   5.892   2.297   4.378  2.9399 -0.6663  0.2723
15115SOL     OW46157   1.606   4.253   4.584  0.2044  0.3982 -0.3373
15115SOL    HW146158   1.657   4.311   4.640 -0.1729  0.7537 -0.3554
15115SOL    HW246159   1.594   4.173   4.635  1.2935  0.0840 -0.5725
15116SOL     OW46160   3.463   2.223   2.270 -0.2498 -0.0355 -0.3462
15116SOL    HW146161   3.529   2.204   2.203  0.0075 -0.0579 -0.0852
15116SOL    HW246162   3.389   2.259   2.221  0.0364  0.1883 -0.6116
15117SOL     OW46163   6.281   6.645   2.942  0.3727  0.2260 -0.1740
15117SOL    HW146164   6.279   6.733   2.980 -0.4164 -0.2496  0.9210
15117SOL    HW246165   6.374   6.625   2.930  0.6107  0.5995  1.0153
15118SOL     OW46166   6.808   2.189   4.771  0.0050  0.1795  0.1462
15118SOL    HW146167   6.793   2.188   4.865 -0.5382 -0.5652  0.0579
15118SOL    HW246168   6.853   2.107   4.753  1.0943  0.8194 -0.0930
15119SOL     OW46169   3.334   4.728   2.713 -0.5472 -0.0806 -0.5520
15119SOL    HW146170   3.272   4.694   2.648  1.0757  0.1554 -2.2679
15119SOL    HW246171   3.281   4.784   2.769 -1.9167  0.0687 -1.9549
15120SOL     OW46172   7.482   4.878   4.690 -0.0998  0.0120 -0.6972
15120SOL    HW146173   7.497   4.924   4.608 -0.4549  0.7362 -0.3540
15120SOL    HW246174   7.552   4.909   4.748 -0.5371  0.3726 -0.3606
15121SOL     OW46175   5.419   0.910   6.912 -0.1138  0.1248 -0.2104
15121SOL    HW146176   5.423   0.969   6.988  0.2586 -0.8736  0.5485
15121SOL    HW246177   5.455   0.828   6.943  1.0215  0.0120 -1.7730
15122SOL     OW46178   0.398   1.180   3.925  0.2222  0.6049  0.4861
15122SOL    HW146179   0.380   1.209   4.015  0.3146  2.0431  0.0466
15122SOL    HW246180   0.324   1.214   3.874 -0.4803 -1.2871  0.2156
15123SOL     OW46181   1.911   6.098   7.427 -0.6814 -0.6488  0.3371
15123SOL    HW146182   1.867   6.169   7.473 -0.7153 -0.4059 -0.0628
15123SOL    HW246183   1.949   6.043   7.496  0.2792  0.3593  0.6199
15124SOL     OW46184   5.820   5.199   7.211  0.4174  0.5265 -0.2641
15124SOL    HW146185   5.845   5.227   7.299 -0.3153 -1.1179  0.4987
15124SOL    HW246186   5.726   5.182   7.217  1.0710 -3.6707 -0.1763
15125SOL     OW46187   0.547   6.720   7.699 -0.0007 -0.3388 -0.4339
15125SOL    HW146188   0.558   6.631   7.733 -0.0958 -0.0533  0.3479
15125SOL    HW246189   0.591   6.776   7.764 -2.1066  0.4119  0.3757
15126SOL     OW46190   7.644   3.851   5.123  0.2876 -0.0663  0.1040
15126SOL    HW146191   7.594   3.770   5.115  0.0675 -0.1343  1.9662
15126SOL    HW246192   7.582   3.920   5.101 -0.8501 -0.1086  2.9939
15127SOL     OW46193   7.047   2.027   0.790  0.0162 -0.0654  0.1223
15127SOL    HW146194   7.079   2.017   0.700 -2.0522  1.2623 -0.7991
15127SOL    HW246195   7.088   1.955   0.838 -0.3096 -1.9325 -2.2959
15128SOL     OW46196   5.625   7.935   6.093 -0.4773  0.1214 -0.4936
15128SOL    HW146197   5.593   8.001   6.153  0.8705  0.1168  0.2409
15128SOL    HW246198   5.588   7.853   6.126 -1.0312  0.3222 -0.6085
15129SOL     OW46199   5.872   5.196   7.881  0.0020  0.1464  0.4014
15129SOL    HW146200   5.917   5.271   7.844  0.4525 -0.2387  0.1702
15129SOL    HW246201   5.879   5.128   7.814 -0.8005  0.0395  0.4173
15130SOL     OW46202   2.203   0.701   7.566 -0.4100 -0.6376  0.3276
15130SOL    HW146203   2.251   0.766   7.616  0.5179 -1.2087  0.1878
15130SOL    HW246204   2.138   0.666   7.627 -1.0596  0.5612  0.3356
15131SOL     OW46205   5.380   5.143   4.962 -0.3968  0.5002  0.1382
15131SOL    HW146206   5.471   5.148   4.931 -0.3970  0.0235  0.0571
15131SOL    HW246207   5.345   5.231   4.947  0.1273  0.7542  0.4001
15132SOL     OW46208   7.548   5.380   5.624 -0.1662 -0.0475 -0.3800
15132SOL    HW146209   7.633   5.384   5.581 -0.1995  0.3298 -0.4203
15132SOL    HW246210   7.560   5.431   5.704 -0.3106 -0.1193 -0.3133
15133SOL     OW46211   7.929   0.660   1.292 -0.4284 -0.2954 -0.5281
15133SOL    HW146212   7.940   0.576   1.335 -1.3292  0.0777  0.4571
15133SOL    HW246213   8.016   0.699   1.292 -0.5673  0.1007  1.8279
15134SOL     OW46214   0.399   2.601   6.926  0.4712 -0.7251  0.0445
15134SOL    HW146215   0.321   2.657   6.927  0.9514 -0.0518  0.3777
15134SOL    HW246216   0.365   2.512   6.934 -0.4022 -0.6008 -1.9918
15135SOL     OW46217   3.295   3.610   4.313 -0.1135 -0.3707 -0.2533
15135SOL    HW146218   3.375   3.599   4.365  0.4478 -1.9491 -1.4366
15135SOL    HW246219   3.318   3.578   4.226 -1.8826 -0.3622 -0.7391
15136SOL     OW46220   3.162   0.505   6.130  0.1721 -0.0860 -0.5264
15136SOL    HW146221   3.219   0.467   6.196  0.1947 -0.5304 -0.8022
15136SOL    HW246222   3.138   0.432   6.073 -0.1788  0.2148 -0.7690
15137SOL     OW46223   6.131   3.262   4.463  0.2453  0.3607 -0.1827
15137SOL    HW146224   6.175   3.205   4.526  0.5222  0.6994 -0.0682
15137SOL    HW246225   6.041   3.269   4.496  0.1653 -0.1266 -0.2788
15138SOL     OW46226   4.476   0.848   4.508  0.1976  0.2416  0.0386
15138SOL    HW146227   4.415   0.883   4.572  0.8911 -0.2732  0.9983
15138SOL    HW246228   4.449   0.887   4.425 -2.0448 -0.7845  0.2690
15139SOL     OW46229   4.977   6.476   2.005 -0.1372 -0.6666  0.1225
15139SOL    HW146230   4.908   6.468   1.939  1.1369 -2.7495 -1.0086
15139SOL    HW246231   4.973   6.568   2.032 -3.6888 -0.8404  0.4966
15140SOL     OW46232   3.855   4.807   5.097  0.1156 -0.3903  0.3541
15140SOL    HW146233   3.869   4.889   5.145 -1.9261  0.7171 -0.8352
15140SOL    HW246234   3.838   4.742   5.165  1.7483  0.1528  1.3120
15141SOL     OW46235   1.260   6.064   2.699  0.0546  0.2118 -0.1137
15141SOL    HW146236   1.251   6.088   2.791 -0.4737 -0.7756  0.0938
15141SOL    HW246237   1.210   5.983   2.689  2.5000 -1.3054 -0.6156
15142SOL     OW46238   0.284   0.855   7.278 -0.2550 -0.5832  0.1845
15142SOL    HW146239   0.241   0.939   7.291 -1.3599 -0.8865 -1.3321
15142SOL    HW246240   0.377   0.874   7.289 -0.4341  1.0039 -0.8319
15143SOL     OW46241   4.818   6.706   7.944 -0.0936  0.2855 -0.2677
15143SOL    HW146242   4.791   6.782   7.996  0.8614 -0.0757  0.7871
15143SOL    HW246243   4.746   6.643   7.956 -1.0728  1.1573 -1.4719
15144SOL     OW46244   0.969   5.238   2.141 -0.1971 -0.0143  0.0487
15144SOL    HW146245   1.062   5.261   2.139 -0.0269 -0.7601 -1.8944
15144SOL    HW246246   0.927   5.314   2.180  1.3489 -0.1444  2.0523
15145SOL     OW46247   6.597   4.865   1.659  0.3309  0.0663 -0.8042
15145SOL    HW146248   6.635   4.952   1.660 -0.1379  0.2599  0.4287
15145SOL    HW246249   6.657   4.813   1.605  0.0105  1.4045 -2.4676
15146SOL     OW46250   0.165   1.495   5.625 -0.0221  0.2944  0.2972
15146SOL    HW146251   0.079   1.534   5.607  0.7825  1.6869 -0.6426
15146SOL    HW246252   0.188   1.448   5.545 -0.6699 -1.5890  1.1750
15147SOL     OW46253   3.150   3.379   6.066 -0.4731 -0.4044  0.2835
15147SOL    HW146254   3.201   3.336   6.134 -0.8436 -1.6899 -0.2392
15147SOL    HW246255   3.143   3.314   5.996 -1.4468  0.3351 -0.3281
15148SOL     OW46256   6.790   4.243   3.856 -0.8390 -0.2331 -0.8278
15148SOL    HW146257   6.783   4.220   3.764 -1.1332 -0.8254 -0.6616
15148SOL    HW246258   6.786   4.338   3.858  0.7373 -0.1277 -1.5626
15149SOL     OW46259   3.031   2.379   4.158  0.9068  0.5883  0.3404
15149SOL    HW146260   3.032   2.461   4.207  0.9924  0.5444  0.4102
15149SOL    HW246261   3.079   2.317   4.212 -1.7912 -0.3437  1.7758
15150SOL     OW46262   6.777   2.199   7.648  0.1027 -0.7221  0.3696
15150SOL    HW146263   6.849   2.259   7.669  2.0469 -2.7030 -0.4830
15150SOL    HW246264   6.755   2.219   7.557 -1.1450  0.5610  0.9259
15151SOL     OW46265   2.048   3.377   7.423 -0.2183  0.5334 -0.0987
15151SOL    HW146266   2.091   3.361   7.507  1.3237  1.5717 -0.6689
15151SOL    HW246267   1.995   3.455   7.438 -1.8159 -0.6208  0.5400
15152SOL     OW46268   4.210   6.342   5.843  0.1510 -0.5712  0.5213
15152SOL    HW146269   4.185   6.260   5.799 -1.2338  0.6750 -1.0496
15152SOL    HW246270   4.291   6.369   5.799 -1.7939  1.2287 -2.0800
15153SOL     OW46271   7.545   4.655   2.801 -1.1066 -0.3085  0.2990
15153SOL    HW146272   7.633   4.622   2.818  0.3468  2.8416 -0.6111
15153SOL    HW246273   7.504   4.587   2.748  2.1758 -0.1704 -2.6032
15154SOL     OW46274   3.963   7.812   2.552 -0.2341  0.2998 -0.4638
15154SOL    HW146275   4.018   7.818   2.474 -1.0843 -0.0510 -1.1027
15154SOL    HW246276   4.022   7.832   2.625  0.8954 -0.7399 -1.0768
15155SOL     OW46277   0.783   6.163   4.953 -0.7056  0.1553 -0.1131
15155SOL    HW146278   0.713   6.211   4.995  0.3563 -0.7680  2.8241
15155SOL    HW246279   0.778   6.075   4.990  1.9438  0.0599  0.1576
15156SOL     OW46280   6.282   5.117   2.167  0.0095 -0.3152  0.0663
15156SOL    HW146281   6.366   5.136   2.209 -0.2339 -0.1121  0.4671
15156SOL    HW246282   6.233   5.068   2.233 -1.5068  2.5460  1.1792
15157SOL     OW46283   2.203   3.220   5.140 -0.1935 -0.3117  0.0797
15157SOL    HW146284   2.261   3.177   5.077  0.6542  0.0829  0.5877
15157SOL    HW246285   2.209   3.167   5.219 -0.5491 -0.2936  0.1193
15158SOL     OW46286   2.948   7.376   7.108  0.0196  0.0089 -0.4017
15158SOL    HW146287   3.006   7.302   7.127  1.3843  0.8633 -1.1093
15158SOL    HW246288   2.862   7.348   7.138  0.6896 -1.5272  0.1315
15159SOL     OW46289   5.212   2.627   0.039 -0.0180 -1.1058  0.4720
15159SOL    HW146290   5.215   2.563  -0.033  1.9868 -1.1319  0.5547
15159SOL    HW246291   5.143   2.689   0.014  1.1413 -0.7150 -1.8075
15160SOL     OW46292   2.513   3.508   5.523  0.2481 -0.3118  0.6340
15160SOL    HW146293   2.541   3.594   5.491  0.8960 -1.2190 -1.3105
15160SOL    HW246294   2.491   3.523   5.615 -0.7347  2.1773  0.0509
15161SOL     OW46295   4.366   0.838   0.389 -0.3189 -0.1264  0.7050
15161SOL    HW146296   4.400   0.776   0.324  0.3303 -0.1055  1.0176
15161SOL    HW246297   4.433   0.840   0.457 -0.4346  0.7483  0.8044
15162SOL     OW46298   1.016   7.298   7.896  0.4128 -0.0501  0.9709
15162SOL    HW146299   0.959   7.361   7.851  0.7479 -0.8220 -0.5666
15162SOL    HW246300   1.032   7.337   7.982  1.8612  2.7263 -0.4821
15163SOL     OW46301   0.622   5.115   7.143  0.9487  0.4583  0.4336
15163SOL    HW146302   0.595   5.130   7.052 -0.0039  0.5753  0.7363
15163SOL    HW246303   0.632   5.020   7.149  1.4930  0.4870  0.0774
15164SOL     OW46304   3.829   4.476   6.038  0.0929 -0.1687  0.4366
15164SOL    HW146305   3.734   4.463   6.045  0.0344  0.2008  0.3339
15164SOL    HW246306   3.866   4.388   6.044 -0.2183 -0.2542  1.1789
15165SOL     OW46307   4.117   4.359   2.717  0.2147 -0.6597  0.1419
15165SOL    HW146308   4.190   4.418   2.740 -0.7173 -0.3974  2.6009
15165SOL    HW246309   4.100   4.311   2.798 -2.1234 -0.9603 -0.5152
15166SOL     OW46310   0.109   5.827   0.245 -0.3159 -0.3096  0.4608
15166SOL    HW146311   0.031   5.870   0.278 -0.2355 -0.3785  0.7460
15166SOL    HW246312   0.095   5.819   0.151 -0.3072  0.3804  0.4033
15167SOL     OW46313   1.811   7.554   5.148 -0.0623 -0.1592  0.1869
15167SOL    HW146314   1.740   7.496   5.119 -0.3536  0.5012 -0.4188
15167SOL    HW246315   1.765   7.625   5.193  0.1590  0.8175 -1.1388
15168SOL     OW46316   3.529   1.148   0.149  0.1062  0.1521  0.1398
15168SOL    HW146317   3.564   1.119   0.064  0.8847  0.7306  0.2552
15168SOL    HW246318   3.442   1.110   0.153  0.5654 -0.9976 -0.3430
15169SOL     OW46319   0.981   7.741   2.719 -0.2556 -0.0937 -0.3803
15169SOL    HW146320   0.998   7.652   2.687  0.4927  0.0290 -0.3262
15169SOL    HW246321   0.996   7.737   2.813 -1.5887 -0.2391 -0.1704
15170SOL     OW46322   7.694   2.873   4.282 -0.1207  0.1942 -0.5120
15170SOL    HW146323   7.730   2.842   4.199 -0.5030  2.0727 -1.3950
15170SOL    HW246324   7.600   2.860   4.274 -0.1207 -0.0414 -0.1770
15171SOL     OW46325   0.615   0.988   5.650  0.0965  0.4875 -0.3999
15171SOL    HW146326   0.575   0.902   5.635  0.6637 -0.4279  3.0607
15171SOL    HW246327   0.546   1.039   5.692  0.9873  0.4828  1.0834
15172SOL     OW46328   6.439   6.162   0.451 -0.1913  0.6742  0.4360
15172SOL    HW146329   6.499   6.206   0.391  2.8403 -1.2927  1.9026
15172SOL    HW246330   6.443   6.069   0.426 -0.4154  0.1126  2.3517
15173SOL     OW46331   6.300   5.795   4.861 -0.6858 -0.0614 -0.2589
15173SOL    HW146332   6.296   5.890   4.857 -0.2105  0.0684  1.9417
15173SOL    HW246333   6.363   5.770   4.794 -2.7739  0.9656 -2.7061
15174SOL     OW46334   7.554   0.613   0.643 -0.1087  0.1882 -0.2992
15174SOL    HW146335   7.501   0.641   0.718  2.4610  3.4354  0.3677
15174SOL    HW246336   7.510   0.651   0.567  0.6895  2.0375  0.1580
15175SOL     OW46337   6.612   1.006   7.434 -0.3190 -0.6602 -0.0343
15175SOL    HW146338   6.590   0.920   7.398  0.0574 -0.3696 -1.0034
15175SOL    HW246339   6.620   0.992   7.528 -1.5045 -1.4154 -0.0413
15176SOL     OW46340   6.679   1.784   4.273 -0.5953  0.3015  0.2557
15176SOL    HW146341   6.705   1.734   4.351  0.8396 -0.8111 -0.8999
15176SOL    HW246342   6.593   1.748   4.250  0.3736 -1.6250 -0.4989
15177SOL     OW46343   7.175   7.398   5.346 -0.6262 -0.3690  0.0582
15177SOL    HW146344   7.187   7.459   5.418  2.4039 -1.8513  0.8749
15177SOL    HW246345   7.233   7.431   5.277 -1.4266 -0.5139 -0.6924
15178SOL     OW46346   2.337   1.064   0.307  0.0416  0.5124 -0.3231
15178SOL    HW146347   2.320   0.973   0.329  0.0031  0.5732 -0.0960
15178SOL    HW246348   2.250   1.103   0.297  0.0707  0.0853 -2.2736
15179SOL     OW46349   0.062   6.879   2.205 -0.2728 -0.3574  0.4819
15179SOL    HW146350   0.116   6.953   2.233  1.0133 -1.1833  0.2366
15179SOL    HW246351   0.039   6.833   2.286 -0.3460 -0.1809  0.5604
15180SOL     OW46352   6.190   6.259   7.525 -0.1364  0.4952 -0.4708
15180SOL    HW146353   6.126   6.328   7.508 -1.3126 -0.7439 -1.1804
15180SOL    HW246354   6.252   6.298   7.586 -1.8620  1.5573  0.6380
15181SOL     OW46355   5.252   2.166   6.948  0.0359  0.1356 -0.6131
15181SOL    HW146356   5.261   2.076   6.914  1.2325 -0.1475  0.4087
15181SOL    HW246357   5.333   2.209   6.922 -0.2453  0.7269 -0.5131
15182SOL     OW46358   7.854   2.126   0.416 -0.2412 -0.1341 -0.0766
15182SOL    HW146359   7.765   2.139   0.384  0.4421  1.5629 -1.3981
15182SOL    HW246360   7.894   2.065   0.354  0.0417  0.4773 -0.5005
15183SOL     OW46361   7.951   6.438   6.795  0.0413  0.2618 -0.3845
15183SOL    HW146362   7.953   6.531   6.771  0.7966  0.4832  0.4845
15183SOL    HW246363   7.934   6.392   6.712  1.6917  1.0574 -1.2103
15184SOL     OW46364   6.188   0.216   5.398  0.2723 -0.2825  0.0680
15184SOL    HW146365   6.125   0.205   5.327 -0.3957  0.2477  0.5589
15184SOL    HW246366   6.266   0.169   5.370 -0.1371 -0.4307 -0.8239
15185SOL     OW46367   4.886   1.121   3.913  0.1223  0.1945  0.1800
15185SOL    HW146368   4.870   1.141   4.005 -0.6607  0.6284 -0.0394
15185SOL    HW246369   4.803   1.084   3.882  0.2321  0.4686 -0.4559
15186SOL     OW46370   4.489   2.351   4.673  0.0886 -0.0215  0.0432
15186SOL    HW146371   4.569   2.316   4.634 -1.9404 -2.5294 -2.1526
15186SOL    HW246372   4.474   2.296   4.750 -0.6630 -1.0529 -0.8172
15187SOL     OW46373   0.855   3.214   5.414  0.0643  0.3963 -0.3844
15187SOL    HW146374   0.813   3.162   5.482  0.9545 -1.2153 -1.0393
15187SOL    HW246375   0.793   3.212   5.340  1.1216 -1.7915 -1.2696
15188SOL     OW46376   6.271   2.354   3.496 -0.2270  0.0327  0.2991
15188SOL    HW146377   6.290   2.421   3.430 -1.2840  0.7123  0.6737
15188SOL    HW246378   6.176   2.354   3.504 -0.2155 -1.1916  0.6509
15189SOL     OW46379   6.033   1.712   7.143  0.3852  0.1844 -0.2317
15189SOL    HW146380   6.011   1.651   7.072  1.4096 -1.7566  1.0741
15189SOL    HW246381   5.959   1.707   7.203  1.4949 -1.6003  1.0417
15190SOL     OW46382   5.391   7.008   2.719 -0.0630  0.3977 -0.1805
15190SOL    HW146383   5.415   7.100   2.724 -1.3144  0.7404 -0.4118
15190SOL    HW246384   5.298   7.005   2.741 -0.6352 -0.5130 -2.5355
15191SOL     OW46385   0.981   5.250   5.008  0.3557  0.0060 -0.3306
15191SOL    HW146386   0.932   5.326   5.041  0.1511 -0.4086  0.3318
15191SOL    HW246387   0.934   5.224   4.929  1.2756  1.4546 -1.3674
15192SOL     OW46388   2.065   0.909   5.219  0.7474  0.8310  0.0732
15192SOL    HW146389   2.077   0.919   5.313 -0.6705 -0.9183  0.4850
15192SOL    HW246390   1.975   0.877   5.210  1.2745 -0.2382 -1.7637
15193SOL     OW46391   2.794   1.496   6.145  0.2661  0.7368 -0.0537
15193SOL    HW146392   2.846   1.489   6.066 -0.1696  1.1520 -0.3806
15193SOL    HW246393   2.787   1.590   6.162 -0.8619  0.7125 -0.3421
15194SOL     OW46394   2.568   2.324   1.125 -0.1552  0.1473 -0.3712
15194SOL    HW146395   2.590   2.322   1.219  1.3330 -0.5650 -0.7134
15194SOL    HW246396   2.481   2.364   1.122 -0.5447 -0.4849  1.3713
15195SOL     OW46397   6.501   3.243   6.987  0.4318  0.1007  0.3756
15195SOL    HW146398   6.535   3.293   6.914 -1.1688  2.6694  1.3241
15195SOL    HW246399   6.406   3.251   6.979  0.2172 -0.4776  2.1448
15196SOL     OW46400   5.134   2.035   6.218  0.9491 -0.8367  0.1830
15196SOL    HW146401   5.156   2.117   6.263  0.5065 -1.2444  1.1736
15196SOL    HW246402   5.062   1.999   6.270 -0.8542 -0.3880 -1.9447
15197SOL     OW46403   4.311   6.206   1.054  0.3461  0.1548  0.1714
15197SOL    HW146404   4.318   6.166   0.967  1.0262 -1.5873  1.0001
15197SOL    HW246405   4.346   6.295   1.042  2.7576 -0.8659 -0.8415
15198SOL     OW46406   0.141   2.719   3.580  0.0232 -0.0900 -0.8514
15198SOL    HW146407   0.110   2.782   3.646 -1.6998 -1.6898 -0.0697
15198SOL    HW246408   0.236   2.715   3.593 -0.2188  0.0224  1.2107
15199SOL     OW46409   6.388   3.869   7.642 -0.5342 -0.6574 -0.0711
15199SOL    HW146410   6.482   3.855   7.653 -0.7476 -2.7919 -0.7249
15199SOL    HW246411   6.375   3.869   7.547 -1.1508 -0.1248  0.0143
15200SOL     OW46412   1.453   0.101   4.877  0.9052 -0.4842 -0.7267
15200SOL    HW146413   1.471   0.186   4.837 -0.1409  0.0687 -0.0248
15200SOL    HW246414   1.387   0.119   4.944  1.0962 -1.7530 -0.1838
15201SOL     OW46415   4.030   5.605   6.638  0.1951 -0.3395  0.0081
15201SOL    HW146416   3.994   5.567   6.558  0.2754 -1.3825  0.4529
15201SOL    HW246417   3.974   5.679   6.658  1.0996  0.8934 -1.8757
15202SOL     OW46418   7.120   7.144   0.124 -0.3402 -0.4898  0.6467
15202SOL    HW146419   7.082   7.131   0.038 -0.3316  2.3497  0.1656
15202SOL    HW246420   7.200   7.092   0.124  0.9026  1.3594 -1.9359
15203SOL     OW46421   4.996   6.531   6.385  0.3882 -0.1306 -0.2128
15203SOL    HW146422   4.923   6.584   6.353 -0.2186 -0.2853  0.9031
15203SOL    HW246423   5.009   6.559   6.475  1.8063 -0.0142 -0.4399
15204SOL     OW46424   7.648   1.207   3.255  0.1925  0.4782 -0.5451
15204SOL    HW146425   7.687   1.127   3.289 -0.2852 -0.1239 -1.4012
15204SOL    HW246426   7.706   1.277   3.286 -0.2881 -0.0351  1.5824
15205SOL     OW46427   7.076   3.152   5.851  0.1368  0.3082 -0.0234
15205SOL    HW146428   7.154   3.104   5.824  1.0669  1.0253  1.3748
15205SOL    HW246429   7.109   3.233   5.890 -1.1821 -0.4384  2.7935
15206SOL     OW46430   6.176   7.295   7.005 -0.4690  0.2159  0.7116
15206SOL    HW146431   6.126   7.319   7.083  0.5197  0.2432  1.3591
15206SOL    HW246432   6.221   7.375   6.980 -0.3136  0.0546  0.4772
15207SOL     OW46433   1.190   5.430   7.754  0.2876  0.3976  0.5706
15207SOL    HW146434   1.271   5.449   7.803 -0.3123  0.3008  1.6096
15207SOL    HW246435   1.141   5.372   7.811 -1.3239  1.8786  0.7350
15208SOL     OW46436   2.946   2.506   3.041  0.4139 -0.1428 -0.5452
15208SOL    HW146437   3.010   2.576   3.054 -0.4011  0.4470  0.3598
15208SOL    HW246438   2.969   2.468   2.956  3.0321 -1.1000  0.5707
15209SOL     OW46439   1.255   7.253   2.495 -0.1827  0.8256  0.2943
15209SOL    HW146440   1.234   7.189   2.428 -0.9800  2.1159 -0.7189
15209SOL    HW246441   1.302   7.322   2.448  0.2168  1.2335  1.2703
15210SOL     OW46442   2.820   4.682   5.776 -0.0893 -0.2418  0.0226
15210SOL    HW146443   2.808   4.757   5.717 -1.6675  0.5605  1.3340
15210SOL    HW246444   2.867   4.618   5.723 -0.0009  1.1082 -1.5904
15211SOL     OW46445   1.515   7.040   0.472 -0.2958 -0.5591  0.1022
15211SOL    HW146446   1.440   7.004   0.424  0.7988  0.9419 -2.8964
15211SOL    HW246447   1.591   6.998   0.432  0.6360  0.4276  0.8174
15212SOL     OW46448   0.216   6.966   4.704 -0.1158 -0.2174  0.1276
15212SOL    HW146449   0.304   6.980   4.668  0.0591  0.7918  0.8844
15212SOL    HW246450   0.202   6.872   4.699  1.1167 -0.4136  0.2195
15213SOL     OW46451   3.416   1.011   5.214  0.1211  0.2608  0.6535
15213SOL    HW146452   3.454   1.076   5.155 -0.3924  1.1201  1.2500
15213SOL    HW246453   3.430   1.047   5.302 -1.5521  0.3149  0.9123
15214SOL     OW46454   6.127   1.725   5.122  0.1750  0.5511 -0.6539
15214SOL    HW146455   6.094   1.741   5.033  1.2929  2.0760 -0.8313
15214SOL    HW246456   6.215   1.690   5.108  0.4979  1.1471 -0.1568
15215SOL     OW46457   2.756   5.658   5.679 -0.2445 -0.2015 -0.3875
15215SOL    HW146458   2.668   5.672   5.645 -0.9016 -3.1967 -0.0618
15215SOL    HW246459   2.814   5.685   5.608 -1.4072  1.8081 -0.5992
15216SOL     OW46460   7.621   6.586   0.837 -0.2089 -0.2986  0.4360
15216SOL    HW146461   7.654   6.665   0.794 -0.7866  1.0765  2.4458
15216SOL    HW246462   7.676   6.515   0.802  1.8623  1.3055  0.3506
15217SOL     OW46463   4.751   3.464   4.969 -0.5368  0.1676  0.2560
15217SOL    HW146464   4.697   3.539   4.943 -1.5921 -0.5187  0.4142
15217SOL    HW246465   4.704   3.426   5.044 -0.7588 -1.4801 -0.7097
15218SOL     OW46466   4.494   6.576   3.687 -0.1812  0.3619  0.1825
15218SOL    HW146467   4.496   6.669   3.708  2.5234  0.5153 -0.4561
15218SOL    HW246468   4.525   6.532   3.766 -0.4809  0.1008  0.1547
15219SOL     OW46469   2.782   6.943   7.160  0.2251  0.4518 -0.5114
15219SOL    HW146470   2.699   6.916   7.198  0.7634  0.0508  0.3805
15219SOL    HW246471   2.848   6.892   7.206  0.9237  0.2701 -1.6837
15220SOL     OW46472   4.791   6.990   3.190  0.0007 -0.1205 -0.6948
15220SOL    HW146473   4.697   6.998   3.208 -0.1609  0.3980 -1.7451
15220SOL    HW246474   4.820   6.916   3.244 -0.9802 -0.1936 -0.2665
15221SOL     OW46475   6.927   5.756   4.629 -0.4426 -0.5789 -0.0508
15221SOL    HW146476   6.996   5.690   4.617 -1.1872 -1.2317 -0.8273
15221SOL    HW246477   6.966   5.821   4.688  0.7317 -1.0871 -0.2450
15222SOL     OW46478   3.876   4.551   2.728  0.1821  0.4618  0.4673
15222SOL    HW146479   3.948   4.489   2.742  0.8210  0.7991 -1.1761
15222SOL    HW246480   3.798   4.496   2.719  0.7594 -0.1470 -1.0574
15223SOL     OW46481   7.570   4.560   5.160  0.3939  0.0501 -0.5603
15223SOL    HW146482   7.604   4.632   5.108  1.5440  0.6759  1.0060
15223SOL    HW246483   7.492   4.597   5.203 -0.2395 -0.3026 -1.3823
15224SOL     OW46484   3.646   6.944   2.569 -0.5684  0.0830 -0.0891
15224SOL    HW146485   3.612   6.865   2.612  0.1684 -0.5244 -0.6019
15224SOL    HW246486   3.568   6.987   2.534 -1.0581  0.0040  0.8943
15225SOL     OW46487   4.978   3.913   2.091 -0.3318 -0.0593  0.1332
15225SOL    HW146488   4.995   3.999   2.053  0.7619 -0.7221 -0.9012
15225SOL    HW246489   4.882   3.906   2.091 -0.3726  0.2995 -1.7391
15226SOL     OW46490   3.689   6.462   0.381  0.0202  0.3135 -0.0625
15226SOL    HW146491   3.728   6.379   0.354 -3.8257 -1.9834  0.9165
15226SOL    HW246492   3.620   6.478   0.317 -0.5834  1.6752  0.8980
15227SOL     OW46493   1.368   4.848   0.579 -0.4751  0.6133 -0.2465
15227SOL    HW146494   1.415   4.883   0.504 -0.6212  0.7289 -0.2853
15227SOL    HW246495   1.279   4.833   0.547 -0.0652 -1.1158 -0.6083
15228SOL     OW46496   1.382   4.207   3.648  0.0112  0.5535  0.1224
15228SOL    HW146497   1.409   4.241   3.562 -2.7254  3.2456  0.2633
15228SOL    HW246498   1.402   4.114   3.644  1.4508  0.9340 -2.8329
15229SOL     OW46499   6.164   5.077   7.853  0.2097  0.1331  0.0548
15229SOL    HW146500   6.144   5.147   7.790 -0.5064 -0.1203  0.0015
15229SOL    HW246501   6.139   5.113   7.938 -0.0860 -0.0250  0.0363
15230SOL     OW46502   1.410   3.937   3.662  0.0725  0.4404 -0.1474
15230SOL    HW146503   1.378   3.877   3.729  0.2407 -1.6096 -1.8444
15230SOL    HW246504   1.490   3.895   3.629  0.9561  2.2881 -0.3966
15231SOL     OW46505   0.153   7.754   0.015 -0.3858 -0.0139 -0.2510
15231SOL    HW146506   0.133   7.698   0.090  1.1541 -0.0115  0.1627
15231SOL    HW246507   0.201   7.697  -0.045 -0.6452  0.2965 -0.7579
15232SOL     OW46508   5.203   2.387   1.334 -0.2490 -0.4093 -0.2007
15232SOL    HW146509   5.162   2.457   1.386  2.1495  1.8329 -1.1768
15232SOL    HW246510   5.155   2.387   1.251 -0.0564  0.3411 -0.3192
15233SOL     OW46511   7.120   3.544   1.627  0.5807  0.4444  0.6261
15233SOL    HW146512   7.092   3.458   1.597 -1.3094  1.2960 -0.1739
15233SOL    HW246513   7.152   3.588   1.548 -1.1806  1.4722  0.4466
15234SOL     OW46514   3.268   0.926   1.673 -0.2833  0.0425 -0.4950
15234SOL    HW146515   3.192   0.958   1.624  0.7130  1.4999 -1.1060
15234SOL    HW246516   3.306   0.858   1.617 -0.8032 -0.3083 -0.4298
15235SOL     OW46517   1.729   3.765   5.482  0.0795  0.4568 -0.5280
15235SOL    HW146518   1.719   3.849   5.438  3.2418  0.6249 -1.0841
15235SOL    HW246519   1.817   3.769   5.521  0.0810 -2.3733 -0.1325
15236SOL     OW46520   2.070   3.358   0.377 -0.3803  0.5522  0.5606
15236SOL    HW146521   2.036   3.383   0.463  0.7329  3.1798  0.2746
15236SOL    HW246522   2.163   3.342   0.392 -0.3115  0.4216 -0.0251
15237SOL     OW46523   5.145   6.080   7.116  0.2603 -0.3341 -0.3055
15237SOL    HW146524   5.051   6.082   7.135  0.2348 -0.0886 -0.4460
15237SOL    HW246525   5.156   6.147   7.048  0.4714 -0.6476 -0.5793
15238SOL     OW46526   6.047   4.765   0.419 -0.0559  0.1640 -0.3002
15238SOL    HW146527   6.027   4.784   0.327  0.1583 -0.6575 -0.5210
15238SOL    HW246528   5.962   4.748   0.459  0.0582 -2.2662 -0.9958
15239SOL     OW46529   0.872   1.084   4.114 -0.3487  0.0490 -0.0975
15239SOL    HW146530   0.933   1.105   4.184 -0.4996  2.2138 -0.5818
15239SOL    HW246531   0.928   1.058   4.040  0.0029  1.6734 -0.4252
15240SOL     OW46532   1.049   4.680   6.803 -0.2955 -0.7271 -0.1909
15240SOL    HW146533   1.084   4.667   6.890 -1.5887 -2.3425  0.1302
15240SOL    HW246534   0.996   4.602   6.787 -0.2029 -0.3877 -2.3527
15241SOL     OW46535   6.660   6.388   2.508 -0.5209 -0.2215 -0.3344
15241SOL    HW146536   6.696   6.476   2.510  0.2568 -0.5486  0.0290
15241SOL    HW246537   6.652   6.368   2.414  1.8490 -0.7888 -0.4550
15242SOL     OW46538   4.596   4.063   3.176 -0.5632  0.3904 -0.0801
15242SOL    HW146539   4.666   4.117   3.213  0.5215  0.2132 -1.7945
15242SOL    HW246540   4.639   3.982   3.151 -2.2952 -1.5286  2.9131
15243SOL     OW46541   0.858   0.168   3.556 -0.2008 -0.2495 -0.1444
15243SOL    HW146542   0.848   0.239   3.620  0.5445  0.0445 -0.3385
15243SOL    HW246543   0.926   0.200   3.496 -1.0148 -0.4551 -1.1792
15244SOL     OW46544   5.956   0.656   4.491  0.0231  0.2663  0.2104
15244SOL    HW146545   5.979   0.738   4.534 -0.5049  1.0872 -1.0403
15244SOL    HW246546   5.873   0.630   4.529  0.4989 -0.0225  1.0593
15245SOL     OW46547   0.915   1.159   5.200 -0.5763  0.0017  0.2214
15245SOL    HW146548   0.974   1.093   5.166  0.4133  2.0069 -2.1083
15245SOL    HW246549   0.847   1.109   5.245  0.2314 -2.5721 -1.2874
15246SOL     OW46550   0.107   4.088   3.524  0.0874  0.2585  0.3976
15246SOL    HW146551   0.195   4.063   3.552  1.1404  2.0703 -1.0877
15246SOL    HW246552   0.061   4.005   3.509  2.0657 -0.7426 -0.3342
15247SOL     OW46553   3.980   3.264   6.725  0.7770 -0.2913 -0.2333
15247SOL    HW146554   4.052   3.230   6.674 -0.1363  0.2758 -1.9403
15247SOL    HW246555   4.006   3.353   6.748  1.9689 -1.1578  1.8678
15248SOL     OW46556   2.976   1.414   4.274 -0.2092 -0.1665  0.1658
15248SOL    HW146557   2.901   1.377   4.228 -1.6519  0.9634  1.5314
15248SOL    HW246558   2.946   1.422   4.365  1.1380  1.4092  0.4908
15249SOL     OW46559   3.837   0.436   4.293  0.2785 -0.0304 -0.5399
15249SOL    HW146560   3.932   0.435   4.290  0.3259 -2.4170  0.0107
15249SOL    HW246561   3.816   0.454   4.385  0.1737  1.2517 -0.8084
15250SOL     OW46562   1.610   2.740   6.903  0.2492 -0.0804  0.2428
15250SOL    HW146563   1.695   2.703   6.881  0.5902  0.3521  0.8081
15250SOL    HW246564   1.573   2.679   6.967 -0.0460 -0.4877 -0.3153
15251SOL     OW46565   3.297   1.608   0.113 -0.1215 -0.1684 -0.2936
15251SOL    HW146566   3.348   1.540   0.069  0.6605  0.2462 -0.0403
15251SOL    HW246567   3.361   1.656   0.164 -0.4464  1.5985 -1.5073
15252SOL     OW46568   1.444   0.481   7.282  0.2968 -0.3731 -0.2477
15252SOL    HW146569   1.441   0.546   7.352  2.0855 -0.9161  0.3427
15252SOL    HW246570   1.393   0.521   7.211 -1.2944  0.2980  1.2313
15253SOL     OW46571   6.411   4.293   1.993  0.2530 -0.0617  0.4872
15253SOL    HW146572   6.323   4.297   2.029  0.8960 -1.2974  2.2875
15253SOL    HW246573   6.465   4.341   2.056  1.1368 -0.8162  0.3318
15254SOL     OW46574   7.967   5.414   1.226 -0.0170 -0.3678  0.4725
15254SOL    HW146575   8.046   5.361   1.227 -0.7534 -1.6029 -1.6561
15254SOL    HW246576   7.993   5.495   1.182 -0.0267 -1.0100 -0.7647
15255SOL     OW46577   5.200   4.252   1.008 -0.1369  0.0975 -0.2780
15255SOL    HW146578   5.208   4.237   0.914  0.6547 -1.5530  0.0317
15255SOL    HW246579   5.138   4.185   1.038 -2.1814  2.0571  0.0367
15256SOL     OW46580   1.779   7.580   3.587 -0.4149  0.1284 -0.6044
15256SOL    HW146581   1.794   7.501   3.638 -0.9004  0.0796 -0.5405
15256SOL    HW246582   1.773   7.650   3.652  0.2778  0.2579 -0.6765
15257SOL     OW46583   2.412   4.867   5.143 -0.0667 -0.2310 -0.9686
15257SOL    HW146584   2.436   4.869   5.050  1.1633  1.5378 -0.6307
15257SOL    HW246585   2.477   4.921   5.186 -1.6210  0.3545  0.7188
15258SOL     OW46586   7.581   4.287   4.352  0.0626 -0.2731 -0.2468
15258SOL    HW146587   7.583   4.367   4.404  0.7569 -1.0486  0.9368
15258SOL    HW246588   7.489   4.260   4.353 -0.1540  0.4693 -0.5766
15259SOL     OW46589   5.752   1.665   7.131 -0.3466  0.3225  0.3473
15259SOL    HW146590   5.701   1.627   7.202 -0.7405 -1.0216 -0.6291
15259SOL    HW246591   5.719   1.755   7.123 -0.7787  0.2640  1.3903
15260SOL     OW46592   7.751   3.656   4.952  0.6237 -0.4987 -0.4359
15260SOL    HW146593   7.788   3.649   4.864  0.4730 -0.8425 -0.4723
15260SOL    HW246594   7.726   3.748   4.960  0.6014 -0.4752 -0.7648
15261SOL     OW46595   1.039   0.403   0.321 -0.4367  0.0070  0.2641
15261SOL    HW146596   1.001   0.333   0.375 -0.0594  0.2304  0.8289
15261SOL    HW246597   0.993   0.482   0.351 -0.4733  0.0807  0.0115
15262SOL     OW46598   1.421   3.804   0.299  0.0632 -0.1959  0.3989
15262SOL    HW146599   1.438   3.756   0.218 -0.1508  1.4414 -0.6303
15262SOL    HW246600   1.344   3.760   0.337  0.5699 -1.3880  0.0706
15263SOL     OW46601   6.462   6.465   3.688 -0.3968  0.0174 -0.3785
15263SOL    HW146602   6.537   6.413   3.713  1.6679  2.4134 -1.3556
15263SOL    HW246603   6.458   6.535   3.754  0.6412  2.1126 -2.4562
15264SOL     OW46604   4.545   2.236   6.338 -0.2967  0.4710 -0.2244
15264SOL    HW146605   4.605   2.286   6.393 -0.3884  0.2321  0.0967
15264SOL    HW246606   4.483   2.196   6.400 -0.9199  0.8979 -0.5661
15265SOL     OW46607   0.107   3.098   3.517  0.0570  0.4682 -0.1827
15265SOL    HW146608   0.143   3.013   3.494 -0.5994  0.2577 -0.4466
15265SOL    HW246609   0.080   3.090   3.608 -0.7930  0.1114 -0.4524
15266SOL     OW46610   6.389   0.182   7.152  1.0209 -0.5516  0.2783
15266SOL    HW146611   6.385   0.118   7.081 -0.9192 -0.9944  0.7493
15266SOL    HW246612   6.306   0.172   7.198  1.3496  1.2180  1.3239
15267SOL     OW46613   7.844   3.784   3.707  0.8438  0.6571 -0.0316
15267SOL    HW146614   7.887   3.708   3.746 -2.0297 -1.3566 -0.5979
15267SOL    HW246615   7.812   3.835   3.782 -1.5727 -1.3570  0.3657
15268SOL     OW46616   6.008   3.122   3.723  0.4281  0.4599  0.0695
15268SOL    HW146617   6.009   3.116   3.627 -1.7221  0.2649  0.0237
15268SOL    HW246618   5.923   3.084   3.748  0.7243  1.0335  2.0148
15269SOL     OW46619   0.846   2.084   6.928  0.1406  0.6194  0.5856
15269SOL    HW146620   0.831   2.132   7.010 -0.8006  0.2533  0.6373
15269SOL    HW246621   0.794   2.132   6.863 -1.6180 -0.8859  0.8364
15270SOL     OW46622   6.714   3.651   3.946  0.0924 -0.4707  0.5843
15270SOL    HW146623   6.677   3.573   3.904  0.4993  0.1557 -1.0038
15270SOL    HW246624   6.643   3.715   3.944  0.4476 -0.0867 -0.1733
15271SOL     OW46625   0.924   1.587   1.094  0.4909  0.5929 -0.0866
15271SOL    HW146626   0.857   1.535   1.139  1.3108  0.2128  0.7133
15271SOL    HW246627   0.998   1.589   1.155  0.7488  2.0755 -0.4266
15272SOL     OW46628   5.396   3.676   3.611  0.4786  0.1844  0.7303
15272SOL    HW146629   5.383   3.650   3.702  1.1179 -1.6632  0.3080
15272SOL    HW246630   5.308   3.683   3.574  0.3055 -1.5280  0.8190
15273SOL     OW46631   6.572   4.283   7.094  0.3935  0.7250 -0.3084
15273SOL    HW146632   6.476   4.282   7.085  0.4629  0.0346 -0.9578
15273SOL    HW246633   6.587   4.335   7.173 -0.4752  1.6487 -0.7322
15274SOL     OW46634   3.023   4.566   0.509 -0.4347  0.0318  0.8225
15274SOL    HW146635   3.044   4.496   0.571  0.5132 -1.5183 -1.2039
15274SOL    HW246636   3.050   4.646   0.554  2.6676 -1.2713  1.4147
15275SOL     OW46637   7.593   3.559   1.340  0.7149 -0.0012  0.5254
15275SOL    HW146638   7.576   3.601   1.424 -0.7583 -0.1294  0.3018
15275SOL    HW246639   7.595   3.632   1.277  0.1621 -0.0626  0.4336
15276SOL     OW46640   3.976   5.852   5.733  0.2454 -0.1176 -0.1397
15276SOL    HW146641   3.912   5.861   5.662  0.9511 -1.5799 -0.9848
15276SOL    HW246642   4.061   5.862   5.690  0.6055  3.0353  1.1633
15277SOL     OW46643   3.675   6.209   5.060  0.2446 -0.1226 -0.1524
15277SOL    HW146644   3.741   6.196   4.992  0.6642 -0.6460  0.3478
15277SOL    HW246645   3.723   6.249   5.132 -0.4877  1.7358 -0.6812
15278SOL     OW46646   4.950   4.020   1.504  0.4274 -0.8519 -0.0940
15278SOL    HW146647   4.955   3.979   1.418  0.5284 -1.0052 -0.0132
15278SOL    HW246648   4.856   4.024   1.523  0.2757  1.1202 -1.1533
15279SOL     OW46649   1.393   3.494   0.424 -0.0263 -0.4263  0.4084
15279SOL    HW146650   1.456   3.521   0.490  0.5374 -0.3378 -0.1576
15279SOL    HW246651   1.418   3.405   0.401 -0.1023 -0.3895  0.1761
15280SOL     OW46652   2.566   0.695   7.582 -0.3722  0.1267 -0.0676
15280SOL    HW146653   2.657   0.665   7.584 -0.1441  0.7668 -0.3740
15280SOL    HW246654   2.573   0.791   7.587 -1.1162  0.0983  2.1236
15281SOL     OW46655   6.085   2.067   5.624  0.1855 -0.6739 -0.2240
15281SOL    HW146656   6.048   1.980   5.607  0.2321 -1.0570  1.5568
15281SOL    HW246657   6.169   2.066   5.579 -1.2149 -0.3640 -2.9753
15282SOL     OW46658   6.629   0.184   3.073  0.3688 -0.0928 -0.4060
15282SOL    HW146659   6.537   0.162   3.061  0.7146 -1.6668 -0.3421
15282SOL    HW246660   6.641   0.189   3.167 -0.1962  2.6507 -0.4415
15283SOL     OW46661   3.533   1.414   7.466  0.4152 -0.0702 -0.2550
15283SOL    HW146662   3.588   1.337   7.481  1.0060 -0.0690 -2.2515
15283SOL    HW246663   3.586   1.470   7.410 -0.9947  0.6564 -0.8784
15284SOL     OW46664   2.292   7.524   7.980  0.0981 -0.2346 -0.2435
15284SOL    HW146665   2.226   7.594   7.979  1.1828  0.8231  0.7589
15284SOL    HW246666   2.336   7.534   8.064 -0.6258 -3.0175  0.5131
15285SOL     OW46667   4.193   0.927   1.713 -0.5105 -0.0258 -0.0161
15285SOL    HW146668   4.183   0.898   1.804  0.1024 -3.4253 -0.9647
15285SOL    HW246669   4.110   0.970   1.692 -1.6002 -1.3681  1.4138
15286SOL     OW46670   7.163   0.715   4.234 -0.5258 -0.2553 -0.4322
15286SOL    HW146671   7.226   0.760   4.177  0.4638 -0.9016  0.1403
15286SOL    HW246672   7.213   0.694   4.312 -2.5739  3.2161  1.9622
15287SOL     OW46673   1.016   0.234   4.026 -0.3124 -0.0731 -0.0902
15287SOL    HW146674   0.930   0.274   4.010  0.4141  1.8319  0.5636
15287SOL    HW246675   1.038   0.259   4.115  1.0403 -0.3241 -0.3365
15288SOL     OW46676   1.982   7.551   6.832 -0.7634  0.1403 -0.2066
15288SOL    HW146677   1.914   7.595   6.781  0.5454  0.6866 -1.4940
15288SOL    HW246678   2.051   7.616   6.842  0.4166 -1.0439 -0.5730
15289SOL     OW46679   1.479   3.971   2.951 -0.2166  0.2250 -0.2542
15289SOL    HW146680   1.410   3.914   2.918  1.0414 -1.1971 -0.5321
15289SOL    HW246681   1.559   3.918   2.943  0.3596  0.3235  3.7201
15290SOL     OW46682   3.986   0.236   3.246  0.1878 -0.2335  0.5566
15290SOL    HW146683   3.995   0.251   3.340 -2.1828  1.6140  0.5141
15290SOL    HW246684   4.061   0.282   3.207 -0.1873  1.0820  1.3697
15291SOL     OW46685   3.314   4.361   2.046 -0.0139  0.0291  0.1152
15291SOL    HW146686   3.255   4.430   2.076  0.4704  0.2834  0.4794
15291SOL    HW246687   3.301   4.290   2.108 -0.1753 -0.0371  0.0064
15292SOL     OW46688   4.739   1.074   6.708  0.0748  0.1285  0.2107
15292SOL    HW146689   4.827   1.105   6.686 -0.2336  0.5369 -0.4566
15292SOL    HW246690   4.724   1.001   6.648  0.1663 -0.2802  0.6848
15293SOL     OW46691   1.436   5.526   1.904  0.0508 -0.2854 -0.1754
15293SOL    HW146692   1.516   5.483   1.934  1.3841  1.8901 -0.4330
15293SOL    HW246693   1.398   5.563   1.984  0.0956 -0.0654 -0.2554
15294SOL     OW46694   1.433   7.291   0.578  0.0510 -0.0558 -0.5392
15294SOL    HW146695   1.355   7.239   0.599  1.7089 -2.0368  0.9125
15294SOL    HW246696   1.489   7.230   0.530  0.6596  1.3973 -1.6787
15295SOL     OW46697   4.682   3.231   6.110 -0.1907  0.1883  0.1238
15295SOL    HW146698   4.721   3.229   6.197 -0.0465  0.1769  0.0581
15295SOL    HW246699   4.720   3.156   6.064 -2.6239 -1.6995  1.0704
15296SOL     OW46700   5.922   5.153   3.729 -0.4002  0.1143  0.0093
15296SOL    HW146701   5.961   5.128   3.813  0.1204  0.9670  0.0271
15296SOL    HW246702   5.898   5.070   3.688 -0.3048 -0.3260  0.8326
15297SOL     OW46703   1.700   3.475   0.672 -0.4587  0.0091  0.8556
15297SOL    HW146704   1.717   3.562   0.636  1.6829 -0.7687 -0.0627
15297SOL    HW246705   1.611   3.480   0.706 -0.4531  2.4715  0.5436
15298SOL     OW46706   6.492   3.267   6.132 -0.5226  0.3002 -0.1914
15298SOL    HW146707   6.549   3.335   6.168  0.8012 -1.5619  1.2672
15298SOL    HW246708   6.412   3.314   6.108  0.2396  2.3243  1.1030
15299SOL     OW46709   4.843   1.019   2.708 -0.5731  0.1772  0.2821
15299SOL    HW146710   4.765   1.024   2.763 -0.8279 -0.2257 -0.0406
15299SOL    HW246711   4.811   1.036   2.620 -0.4125 -0.6818  0.0532
15300SOL     OW46712   0.304   5.712   4.048 -0.3968  0.0948 -0.2960
15300SOL    HW146713   0.281   5.687   3.959 -0.6015 -0.8434  0.0188
15300SOL    HW246714   0.223   5.702   4.098  0.0810 -0.8119  0.3020
15301SOL     OW46715   6.148   0.111   2.781  0.1022  0.2917 -0.0957
15301SOL    HW146716   6.088   0.095   2.709  3.1232 -0.5223 -2.5275
15301SOL    HW246717   6.197   0.189   2.755 -0.8320  1.8319  2.5247
15302SOL     OW46718   3.743   1.129   4.653  0.2308  0.5262 -0.5088
15302SOL    HW146719   3.747   1.220   4.682  0.6250  0.3932 -0.1399
15302SOL    HW246720   3.651   1.105   4.666  0.1595  0.8199 -0.4531
15303SOL     OW46721   3.011   5.790   0.464 -0.1452 -0.0788  0.0387
15303SOL    HW146722   2.970   5.743   0.537 -0.9833 -1.7505 -1.4386
15303SOL    HW246723   2.951   5.863   0.447  1.0411  1.4411  2.2074
15304SOL     OW46724   2.248   7.868   1.501 -0.2600 -0.0112 -0.7300
15304SOL    HW146725   2.171   7.911   1.464  0.8292  1.2015 -1.6382
15304SOL    HW246726   2.262   7.912   1.585 -1.7024 -1.5764  0.3567
15305SOL     OW46727   0.929   2.480   3.563 -0.0440  0.1416  0.2661
15305SOL    HW146728   0.881   2.419   3.508 -0.6515 -0.6568  1.6575
15305SOL    HW246729   0.901   2.566   3.533  0.1275 -0.2626 -1.0998
15306SOL     OW46730   5.926   6.362   7.056  0.5426  0.0704 -0.1344
15306SOL    HW146731   5.991   6.325   7.116  1.2220 -0.8270 -1.4073
15306SOL    HW246732   5.843   6.356   7.104  1.2376  0.2696  1.0937
15307SOL     OW46733   7.208   3.772   7.229 -0.0473  0.1066 -0.1919
15307SOL    HW146734   7.280   3.822   7.191 -0.0173 -0.1617 -0.4877
15307SOL    HW246735   7.251   3.711   7.288 -0.0640  0.2373 -0.0442
15308SOL     OW46736   3.330   1.464   5.555 -0.1427  0.1859 -0.3426
15308SOL    HW146737   3.240   1.493   5.540 -0.0821  0.1750 -0.7282
15308SOL    HW246738   3.326   1.415   5.637 -0.3039  1.0132  0.1459
15309SOL     OW46739   4.665   0.382   2.806  0.0720  0.3500 -0.1618
15309SOL    HW146740   4.604   0.384   2.733 -0.5260 -0.1288  0.3140
15309SOL    HW246741   4.747   0.351   2.768 -0.0089  0.8997 -0.7843
15310SOL     OW46742   5.086   6.154   1.677 -0.0846  0.0661 -1.0088
15310SOL    HW146743   5.049   6.181   1.760  0.6570 -1.4287 -0.1627
15310SOL    HW246744   5.022   6.182   1.611 -0.6392  1.3048  0.0577
15311SOL     OW46745   7.614   0.283   4.790  0.1207  0.1989  0.1382
15311SOL    HW146746   7.682   0.344   4.818  0.5179 -0.8569  1.5051
15311SOL    HW246747   7.571   0.328   4.717 -0.2058  2.5225  1.6970
15312SOL     OW46748   3.032   1.936   6.179 -0.5061  0.0674 -0.1487
15312SOL    HW146749   3.016   1.864   6.241 -0.0597  1.3079  1.4388
15312SOL    HW246750   2.956   1.993   6.189  0.1621  0.9138  0.1950
15313SOL     OW46751   6.033   6.493   5.106 -0.0781 -0.3328  0.4987
15313SOL    HW146752   6.088   6.503   5.184 -1.3287 -2.2781  1.6656
15313SOL    HW246753   5.945   6.479   5.141 -0.9747  0.6139 -1.3198
15314SOL     OW46754   3.585   5.540   6.050 -0.3058  0.4881 -0.1521
15314SOL    HW146755   3.634   5.579   6.123  0.0694  0.7665 -0.5502
15314SOL    HW246756   3.642   5.550   5.974 -0.6817  0.1695 -0.4814
15315SOL     OW46757   5.569   2.546   5.905  0.0934  0.4230 -0.1676
15315SOL    HW146758   5.634   2.533   5.836 -0.0604  0.5548 -0.3379
15315SOL    HW246759   5.613   2.520   5.985 -0.0001 -0.5210 -0.4205
15316SOL     OW46760   2.736   2.502   7.122 -0.0004 -0.0475  0.1930
15316SOL    HW146761   2.733   2.533   7.213 -1.6185  0.1699  0.0832
15316SOL    HW246762   2.672   2.556   7.077 -1.9041 -2.6410 -0.2906
15317SOL     OW46763   5.627   5.401   1.761 -0.2159  0.5034 -0.0755
15317SOL    HW146764   5.590   5.341   1.696 -0.1794 -1.5533  1.7288
15317SOL    HW246765   5.551   5.430   1.812  0.2156 -1.3684  1.7215
15318SOL     OW46766   1.089   2.027   5.302 -0.2976  0.2715  0.2708
15318SOL    HW146767   1.061   1.936   5.307  0.5513  0.0259  0.7168
15318SOL    HW246768   1.048   2.069   5.378  1.5383 -0.3761  1.6727
15319SOL     OW46769   2.148   0.669   3.267  0.0417 -0.6110 -0.1416
15319SOL    HW146770   2.159   0.578   3.294 -0.3376 -0.5429  0.2403
15319SOL    HW246771   2.153   0.719   3.348 -1.3737 -0.4307 -0.1677
15320SOL     OW46772   7.319   2.750   1.191 -0.2154  0.6315 -0.3711
15320SOL    HW146773   7.310   2.830   1.243 -0.9446  0.0096  0.4763
15320SOL    HW246774   7.244   2.696   1.217  0.9534 -0.8476  0.0062
15321SOL     OW46775   5.610   7.301   4.937  0.8341  0.0273  0.1804
15321SOL    HW146776   5.684   7.295   4.998  0.2472 -0.0800  0.8801
15321SOL    HW246777   5.621   7.386   4.894  0.2325  0.9089  1.7475
15322SOL     OW46778   3.981   3.370   7.273 -0.3864  0.4389 -0.1275
15322SOL    HW146779   3.916   3.436   7.296 -0.3748  0.2734  0.3916
15322SOL    HW246780   3.986   3.313   7.350  0.1280  0.2561 -0.2914
15323SOL     OW46781   4.196   6.969   0.020  0.0026  0.1630  0.2870
15323SOL    HW146782   4.274   6.914   0.023 -0.4435 -0.4858  0.3105
15323SOL    HW246783   4.124   6.907   0.006 -0.3837  0.8740 -0.8984
15324SOL     OW46784   6.087   0.167   6.209  0.5613  0.4111  0.5214
15324SOL    HW146785   6.061   0.218   6.286  0.4523 -0.2389  0.9232
15324SOL    HW246786   6.042   0.210   6.136  1.6990  1.8296  0.6271
15325SOL     OW46787   4.683   3.512   5.363  0.2966  0.3195  0.1423
15325SOL    HW146788   4.654   3.593   5.321 -0.8690 -0.1626 -0.0144
15325SOL    HW246789   4.641   3.443   5.311 -0.4678 -0.3070  1.5810
15326SOL     OW46790   0.294   7.498   6.565 -0.1928 -0.4043  0.1336
15326SOL    HW146791   0.198   7.496   6.565 -0.1967 -0.4092 -0.7338
15326SOL    HW246792   0.318   7.487   6.657 -1.0599  1.6476  0.6282
15327SOL     OW46793   5.664   5.876   4.150 -0.4050 -0.4727  0.2073
15327SOL    HW146794   5.584   5.829   4.176 -0.3633 -0.1369  0.9491
15327SOL    HW246795   5.647   5.904   4.060 -1.3206 -0.0024  0.5164
15328SOL     OW46796   3.169   2.321   4.687  0.6857  0.4450  0.1711
15328SOL    HW146797   3.176   2.358   4.775 -0.0091  0.7461  0.0987
15328SOL    HW246798   3.252   2.273   4.675  1.7384  2.2405  0.1230
15329SOL     OW46799   7.707   7.852   0.100  0.4338 -0.3748  0.3014
15329SOL    HW146800   7.706   7.935   0.052  0.1600 -0.5417  0.0132
15329SOL    HW246801   7.775   7.863   0.166  0.5750 -0.0145  0.0987
15330SOL     OW46802   0.979   0.496   2.001  0.1470 -0.0223  0.0281
15330SOL    HW146803   0.893   0.464   2.026 -0.4757  0.5041 -1.4277
15330SOL    HW246804   0.977   0.499   1.905  1.1707  1.6694  0.0405
15331SOL     OW46805   5.227   1.113   3.480  0.4530 -0.3352  0.0035
15331SOL    HW146806   5.233   1.141   3.388  0.3616 -1.8427 -0.4796
15331SOL    HW246807   5.215   1.194   3.529  1.4226  0.5858 -1.2285
15332SOL     OW46808   1.564   2.186   5.965 -0.3054  0.0850 -0.0057
15332SOL    HW146809   1.548   2.092   5.952 -1.5079  0.0268  1.6327
15332SOL    HW246810   1.573   2.221   5.877  0.5456 -1.6377 -0.6322
15333SOL     OW46811   1.265   5.831   6.939 -0.2532 -0.0285 -0.2433
15333SOL    HW146812   1.253   5.845   7.033 -1.2238 -1.4090 -0.1515
15333SOL    HW246813   1.359   5.814   6.929 -0.7109 -3.8084  1.0298
15334SOL     OW46814   3.137   1.701   3.454  0.0104 -0.4303  0.5043
15334SOL    HW146815   3.176   1.651   3.382 -0.0499  0.1772  0.0529
15334SOL    HW246816   3.077   1.640   3.496 -0.3696 -0.6121 -0.2994
15335SOL     OW46817   3.374   5.562   0.000 -0.0973 -0.6360 -0.1844
15335SOL    HW146818   3.420   5.609   0.070  1.7435 -0.8879 -1.1945
15335SOL    HW246819   3.347   5.479   0.041  0.0626 -0.3469  0.5230
15336SOL     OW46820   4.829   4.770   4.249 -0.0163  0.3000 -0.4369
15336SOL    HW146821   4.844   4.852   4.296 -2.0443  0.6194 -0.3287
15336SOL    HW246822   4.750   4.734   4.289  1.1268 -1.9775 -0.1227
15337SOL     OW46823   5.084   6.245   4.412 -0.5819 -0.7781 -0.8751
15337SOL    HW146824   5.005   6.289   4.380 -0.3461  1.4492  1.4327
15337SOL    HW246825   5.140   6.316   4.444  1.0883 -2.5417  0.2695
15338SOL     OW46826   4.269   7.431   2.975  0.0201 -0.5935  0.1615
15338SOL    HW146827   4.356   7.402   3.001  0.0953  0.9894  1.8451
15338SOL    HW246828   4.282   7.474   2.891  0.8726 -0.3632  0.4041
15339SOL     OW46829   1.367   4.831   3.303  0.3794 -0.3369  0.4561
15339SOL    HW146830   1.377   4.897   3.235  1.8426 -1.5448 -0.5443
15339SOL    HW246831   1.272   4.818   3.311  0.2243 -1.6000 -2.7784
15340SOL     OW46832   6.729   2.065   7.881  0.4144 -0.6687  0.1528
15340SOL    HW146833   6.725   2.096   7.791 -1.6705  1.8886  1.0564
15340SOL    HW246834   6.642   2.081   7.916  0.5918 -3.4903  2.0651
15341SOL     OW46835   7.319   3.092   7.918  0.3933 -0.1568 -0.0341
15341SOL    HW146836   7.395   3.045   7.885  0.8239 -0.5295  1.4428
15341SOL    HW246837   7.266   3.109   7.841  1.5333 -0.7011 -0.9540
15342SOL     OW46838   0.831   3.771   1.336  0.4105  0.2795  0.2768
15342SOL    HW146839   0.810   3.681   1.364  2.2000 -0.2792 -0.0914
15342SOL    HW246840   0.804   3.774   1.244 -0.7048  0.4846  0.6061
15343SOL     OW46841   3.123   4.706   2.036  0.3314 -0.2719  0.4175
15343SOL    HW146842   3.212   4.725   2.008  0.9018  0.9575  2.9611
15343SOL    HW246843   3.133   4.636   2.100 -0.4701  0.2398  1.1104
15344SOL     OW46844   0.339   4.348   2.714 -0.2269  0.3340  0.4438
15344SOL    HW146845   0.300   4.401   2.644 -2.6302 -2.3862 -0.3496
15344SOL    HW246846   0.424   4.321   2.679 -1.8032 -1.7804 -1.8633
15345SOL     OW46847   5.239   5.928   7.941  0.4634  0.4316  0.0223
15345SOL    HW146848   5.326   5.897   7.917  0.4940  0.1481  0.4933
15345SOL    HW246849   5.230   6.012   7.896  0.8794  0.3437 -0.2282
15346SOL     OW46850   5.268   6.485   3.748 -0.3539 -0.0029  0.0481
15346SOL    HW146851   5.183   6.514   3.781 -0.2646 -0.0509  0.3285
15346SOL    HW246852   5.265   6.503   3.654  0.0219  1.7172  0.3563
15347SOL     OW46853   3.740   3.495   0.259 -0.3882  0.3959 -0.1956
15347SOL    HW146854   3.668   3.500   0.196  1.7539 -1.4240 -2.9139
15347SOL    HW246855   3.714   3.427   0.321 -1.4044  0.3882 -0.6371
15348SOL     OW46856   1.523   5.243   0.908 -0.4101  0.2286 -0.1464
15348SOL    HW146857   1.590   5.306   0.936 -0.9098  1.0896 -0.8481
15348SOL    HW246858   1.479   5.217   0.989 -0.0032  0.5569  0.1858
15349SOL     OW46859   1.253   7.058   3.563  0.0910  0.2083  0.2838
15349SOL    HW146860   1.215   6.970   3.561  0.3092 -0.0065  2.8718
15349SOL    HW246861   1.272   7.079   3.472  0.1639 -2.4903 -0.3542
15350SOL     OW46862   6.771   2.082   1.989  0.4731  0.2867  0.8502
15350SOL    HW146863   6.682   2.117   1.985  0.2691 -0.1518  1.5620
15350SOL    HW246864   6.827   2.159   1.979  0.0187  0.5057 -0.1029
15351SOL     OW46865   6.996   1.109   2.895 -0.0228 -0.0395 -0.5942
15351SOL    HW146866   6.910   1.141   2.922 -0.0860 -0.2435 -0.5522
15351SOL    HW246867   7.057   1.148   2.957 -0.2079 -0.8564  0.1196
15352SOL     OW46868   0.265   3.688   3.708 -0.5017  0.2634  0.0625
15352SOL    HW146869   0.329   3.618   3.719 -0.5121  0.4223  1.2051
15352SOL    HW246870   0.281   3.722   3.620  1.4680  0.7835  0.5979
15353SOL     OW46871   3.506   7.768   6.123  0.3047 -0.2961 -0.4423
15353SOL    HW146872   3.468   7.855   6.122  0.1183 -0.3784 -2.3134
15353SOL    HW246873   3.534   7.753   6.032  1.0717 -1.8471  0.0354
15354SOL     OW46874   1.409   2.692   1.232 -0.1550  0.4148 -0.2611
15354SOL    HW146875   1.423   2.677   1.139 -2.1723  0.8249 -0.6549
15354SOL    HW246876   1.465   2.766   1.253 -1.0578  1.4933 -1.5743
15355SOL     OW46877   2.378   4.089   2.137  0.2690 -0.2978 -0.2877
15355SOL    HW146878   2.444   4.121   2.075  0.4059 -1.8832 -0.9748
15355SOL    HW246879   2.311   4.048   2.082 -1.0837  0.8938  0.4374
15356SOL     OW46880   3.423   6.966   7.391  0.2474  0.2229 -0.0699
15356SOL    HW146881   3.399   6.878   7.359  0.5870 -0.4955  1.6191
15356SOL    HW246882   3.497   6.992   7.335 -0.1986 -0.3366 -0.9329
15357SOL     OW46883   7.917   5.029   6.465 -0.1959 -0.6983 -0.1451
15357SOL    HW146884   7.978   5.068   6.528  0.4631 -1.2273 -0.4414
15357SOL    HW246885   7.972   4.969   6.414 -0.6878 -0.1562 -1.3195
15358SOL     OW46886   5.038   1.557   1.867  0.0629  0.3747 -0.0153
15358SOL    HW146887   5.084   1.492   1.921 -1.6084 -0.0285  0.9943
15358SOL    HW246888   4.969   1.507   1.824 -0.4403  1.2431 -0.2317
15359SOL     OW46889   4.995   6.795   6.843 -0.2808 -0.2814 -0.0279
15359SOL    HW146890   4.914   6.840   6.867 -0.6091 -0.2618 -1.1451
15359SOL    HW246891   5.044   6.787   6.926 -1.6760 -0.8168  0.7531
15360SOL     OW46892   4.054   7.582   3.883  1.1244  0.3226  0.1647
15360SOL    HW146893   3.963   7.577   3.912  0.5317  3.5969 -0.9661
15360SOL    HW246894   4.053   7.547   3.794  0.9609  0.3769  0.1441
15361SOL     OW46895   3.549   6.114   3.839 -0.3191 -0.1476 -0.0902
15361SOL    HW146896   3.476   6.155   3.794 -0.0193  0.5577  0.0527
15361SOL    HW246897   3.592   6.060   3.773 -0.9988 -0.6057 -0.1582
15362SOL     OW46898   6.283   3.462   1.788  0.3880  0.7288 -0.0329
15362SOL    HW146899   6.338   3.507   1.724 -0.5478 -1.1376 -2.2321
15362SOL    HW246900   6.198   3.455   1.745 -0.0830 -1.1192  1.1435
15363SOL     OW46901   4.891   7.949   2.954 -0.3333  0.8895  0.0300
15363SOL    HW146902   4.849   7.864   2.938 -1.1703  1.7613 -2.6650
15363SOL    HW246903   4.826   7.999   3.002 -0.1889  0.3419  0.8146
15364SOL     OW46904   5.737   2.526   5.677  0.1080 -0.4048 -0.1334
15364SOL    HW146905   5.708   2.610   5.641  0.1208 -1.1901 -2.0699
15364SOL    HW246906   5.814   2.547   5.730 -0.4105  0.9143  0.1041
15365SOL     OW46907   1.294   3.092   7.439 -0.0430 -0.7522 -0.2468
15365SOL    HW146908   1.378   3.102   7.484  0.1141  0.5301 -0.7882
15365SOL    HW246909   1.233   3.145   7.490  0.1148  0.6180 -1.4582
15366SOL     OW46910   0.478   4.151   4.096 -0.3178 -0.7360 -0.6146
15366SOL    HW146911   0.566   4.157   4.134 -0.6366 -2.2062  0.4036
15366SOL    HW246912   0.424   4.205   4.155 -0.5332 -1.7832  0.1532
15367SOL     OW46913   6.425   5.436   2.556 -0.6811 -0.0966 -0.1969
15367SOL    HW146914   6.501   5.405   2.508  0.6434  1.4256  0.8864
15367SOL    HW246915   6.443   5.412   2.647 -1.1862  0.8672  0.1623
15368SOL     OW46916   5.205   0.804   2.596  0.5290 -0.2404 -0.0302
15368SOL    HW146917   5.267   0.836   2.530  0.4953 -0.6000 -0.2371
15368SOL    HW246918   5.135   0.764   2.545  0.3299 -0.2015  0.2164
15369SOL     OW46919   7.223   6.382   7.896  0.0234  0.0956 -0.0270
15369SOL    HW146920   7.280   6.324   7.947 -0.4925  0.4426  0.9412
15369SOL    HW246921   7.280   6.456   7.873  0.6996 -0.8155 -1.3195
15370SOL     OW46922   2.200   6.741   6.629 -0.2307 -0.5752  0.0131
15370SOL    HW146923   2.128   6.680   6.620 -1.0102  0.3813 -0.3598
15370SOL    HW246924   2.200   6.790   6.546  0.8280 -0.5551  0.0142
15371SOL     OW46925   2.493   3.951   2.779  0.4421 -0.1087 -0.3170
15371SOL    HW146926   2.484   3.876   2.837 -2.0652  0.8601  0.6164
15371SOL    HW246927   2.579   3.939   2.737 -0.1713 -3.7790 -0.6708
15372SOL     OW46928   4.480   4.198   6.656  0.2743 -0.0225  0.6431
15372SOL    HW146929   4.550   4.162   6.710  0.1859 -0.4682  0.4631
15372SOL    HW246930   4.521   4.211   6.570  0.6217  1.3917  1.0134
15373SOL     OW46931   6.291   0.190   0.219 -0.1932  0.0789 -0.5873
15373SOL    HW146932   6.358   0.215   0.156 -0.8441 -0.0183 -1.3224
15373SOL    HW246933   6.305   0.096   0.233 -0.5327 -0.0567 -1.1644
15374SOL     OW46934   3.429   6.444   6.502  0.1051 -0.3505 -0.4811
15374SOL    HW146935   3.422   6.365   6.556  0.1889 -0.3160 -0.4184
15374SOL    HW246936   3.523   6.460   6.496  0.1653 -1.0230 -1.6146
15375SOL     OW46937   7.315   7.157   3.096 -0.6958 -0.5155 -0.1961
15375SOL    HW146938   7.350   7.088   3.153 -0.5441 -0.2223  0.0679
15375SOL    HW246939   7.321   7.121   3.008  1.3823 -0.0335 -0.3002
15376SOL     OW46940   1.319   4.277   2.902 -0.2927  0.3115 -0.6566
15376SOL    HW146941   1.351   4.203   2.953 -0.8456 -0.0325 -0.8025
15376SOL    HW246942   1.277   4.334   2.966  0.1982  0.5363 -0.5335
15377SOL     OW46943   0.102   7.895   4.764 -0.1399  0.1281 -0.5297
15377SOL    HW146944   0.087   7.948   4.842 -1.1557  0.6323 -1.0577
15377SOL    HW246945   0.022   7.843   4.753 -0.1939  0.3889 -1.4773
15378SOL     OW46946   3.558   3.553   4.451  0.1008 -0.4622 -0.1945
15378SOL    HW146947   3.574   3.484   4.387  1.2958  0.6820 -1.1376
15378SOL    HW246948   3.633   3.611   4.444 -1.4360  1.5954 -0.2491
15379SOL     OW46949   4.758   7.097   2.279  0.7336  0.4070 -0.0610
15379SOL    HW146950   4.753   7.117   2.373  0.6050  1.5272 -0.2947
15379SOL    HW246951   4.850   7.076   2.265  0.4609 -1.2971  0.6056
15380SOL     OW46952   7.751   4.091   6.540 -0.3278  0.4898 -0.0215
15380SOL    HW146953   7.734   4.172   6.588 -2.2534  0.2063 -0.1703
15380SOL    HW246954   7.765   4.025   6.607  1.4484  0.9551  0.1012
15381SOL     OW46955   3.301   0.006   5.618 -0.2094 -0.4707  0.5768
15381SOL    HW146956   3.312   0.073   5.550  1.0142  0.2827  1.4918
15381SOL    HW246957   3.209  -0.017   5.614 -0.0863 -0.6664 -1.5506
15382SOL     OW46958   5.185   1.220   3.249 -0.0215 -1.0288  0.1134
15382SOL    HW146959   5.208   1.152   3.186 -1.8767 -1.2047 -0.4021
15382SOL    HW246960   5.114   1.269   3.206  0.0346  0.0731  1.2510
15383SOL     OW46961   4.726   2.310   4.555  0.4975  0.8595 -0.2540
15383SOL    HW146962   4.746   2.388   4.504  2.2154  0.5609 -0.0865
15383SOL    HW246963   4.794   2.308   4.623 -1.2620  0.8065  1.5502
15384SOL     OW46964   0.781   3.541   5.421  1.1182 -0.0687 -0.0998
15384SOL    HW146965   0.847   3.472   5.411  1.0550 -0.3010  1.0027
15384SOL    HW246966   0.767   3.575   5.333  1.9739 -0.7110 -0.4800
15385SOL     OW46967   3.365   0.674   2.311 -0.0954 -0.0135  0.1927
15385SOL    HW146968   3.270   0.674   2.303 -0.0312 -0.1649 -0.6371
15385SOL    HW246969   3.382   0.660   2.404 -0.8718 -0.8891  0.2069
15386SOL     OW46970   5.574   1.847   5.715  0.0304  0.2686  0.4405
15386SOL    HW146971   5.544   1.797   5.639 -1.7315  1.4396  0.3309
15386SOL    HW246972   5.650   1.895   5.684 -0.1186  0.0180 -0.3291
15387SOL     OW46973   3.377   5.039   2.066  0.4333  0.5629 -0.0951
15387SOL    HW146974   3.386   4.943   2.064  0.8251  0.6109 -0.6065
15387SOL    HW246975   3.370   5.064   1.974 -1.8750  0.8239  0.1325
15388SOL     OW46976   1.574   7.177   5.467  0.4602  0.0176 -0.4942
15388SOL    HW146977   1.566   7.260   5.422  1.4074  0.2049 -0.3216
15388SOL    HW246978   1.538   7.193   5.554  2.4703  0.7952  0.2067
15389SOL     OW46979   6.999   5.566   3.696 -0.8206  0.2288  0.0256
15389SOL    HW146980   7.076   5.574   3.640 -2.0730  1.3684 -1.5608
15389SOL    HW246981   7.018   5.491   3.752  0.6483 -0.6471 -1.6171
15390SOL     OW46982   0.087   6.359   4.009  0.1791 -0.3917  0.6652
15390SOL    HW146983   0.016   6.422   3.997  0.5004  0.0628  1.1311
15390SOL    HW246984   0.123   6.346   3.921 -2.1172 -2.5881 -0.0240
15391SOL     OW46985   1.067   1.837   3.042  0.2929  0.0074  0.0184
15391SOL    HW146986   1.104   1.924   3.029  0.0260 -0.1511 -1.8937
15391SOL    HW246987   0.979   1.854   3.078  1.6202  0.4014  3.2783
15392SOL     OW46988   5.353   5.016   5.239 -0.0555  0.8984  0.4928
15392SOL    HW146989   5.309   5.073   5.302 -5.2992 -1.3719 -0.8637
15392SOL    HW246990   5.355   5.067   5.158  0.4723  1.2538  0.7244
15393SOL     OW46991   0.789   4.050   1.341  0.1682 -0.0995  0.1333
15393SOL    HW146992   0.700   4.044   1.377 -0.1669 -0.4739 -0.7379
15393SOL    HW246993   0.822   3.960   1.345  0.0805 -0.1689 -0.5960
15394SOL     OW46994   1.948   4.129   0.174  0.5328 -0.3854  0.1094
15394SOL    HW146995   1.982   4.088   0.095  0.2318  0.1120 -0.2877
15394SOL    HW246996   1.877   4.185   0.143 -1.5889 -2.4679  1.0766
15395SOL     OW46997   5.264   3.901   0.829  0.0192  0.2302 -0.6581
15395SOL    HW146998   5.245   3.977   0.884 -2.1154  0.6978 -1.9683
15395SOL    HW246999   5.332   3.854   0.876  0.4163  2.2396  0.8484
15396SOL     OW47000   4.434   0.064   0.441 -0.5938  0.7277 -0.1301
15396SOL    HW147001   4.448   0.099   0.529 -0.2664  0.5542 -0.1123
15396SOL    HW247002   4.499   0.108   0.387 -0.9866  1.0481 -0.3424
15397SOL     OW47003   2.324   6.633   3.816  0.4361  0.3082 -0.0510
15397SOL    HW147004   2.363   6.638   3.903 -0.1377 -0.3815  0.2575
15397SOL    HW247005   2.390   6.670   3.757  0.5733  1.3627  0.7504
15398SOL     OW47006   2.305   5.946   1.707 -0.2161 -0.3657 -0.3276
15398SOL    HW147007   2.255   5.879   1.754 -0.2322  0.0586  0.2801
15398SOL    HW247008   2.266   6.029   1.737  0.6590 -0.0385 -0.0710
15399SOL     OW47009   6.204   4.331   2.154 -0.4424  0.5738  0.3308
15399SOL    HW147010   6.234   4.332   2.244 -0.6898 -0.2837  0.4257
15399SOL    HW247011   6.133   4.395   2.152  0.8303  2.0234  0.2849
15400SOL     OW47012   7.993   6.549   1.503 -0.0361  0.7309 -0.0756
15400SOL    HW147013   7.977   6.559   1.409  2.1382  1.0904 -0.4425
15400SOL    HW247014   8.065   6.486   1.509 -0.1698  0.6908  1.3517
15401SOL     OW47015   1.974   5.854   7.255 -0.0595  0.5509 -0.5780
15401SOL    HW147016   1.924   5.898   7.323 -0.5077  1.4470 -1.4827
15401SOL    HW247017   2.048   5.913   7.238  2.0980 -1.3759  1.6951
15402SOL     OW47018   6.584   1.626   3.900 -0.1802 -0.0867 -0.2710
15402SOL    HW147019   6.560   1.568   3.828 -0.7551  0.2904 -0.3833
15402SOL    HW247020   6.663   1.586   3.937 -0.7884 -1.1597 -0.0978
15403SOL     OW47021   0.009   5.396   6.433 -0.1558 -0.1175 -0.1478
15403SOL    HW147022  -0.021   5.368   6.519  0.3227 -0.7898 -0.2024
15403SOL    HW247023   0.094   5.436   6.449  0.0383 -0.4509 -0.3400
15404SOL     OW47024   0.119   7.277   3.767 -0.4994 -0.2276 -0.0604
15404SOL    HW147025   0.171   7.205   3.803 -2.2767 -0.1696  2.8092
15404SOL    HW247026   0.178   7.352   3.765  0.6194 -1.1152 -0.5602
15405SOL     OW47027   0.006   3.446   7.886 -0.1020  0.4135  0.7744
15405SOL    HW147028  -0.025   3.359   7.908 -0.9541  0.5646  0.2142
15405SOL    HW247029   0.091   3.432   7.844 -0.4870 -0.1932  0.1872
15406SOL     OW47030   2.922   0.467   5.349  1.0037 -0.0440 -0.0336
15406SOL    HW147031   2.953   0.483   5.438  2.6420 -0.8061 -0.4491
15406SOL    HW247032   2.955   0.542   5.299 -1.9951  1.6835  0.4231
15407SOL     OW47033   2.727   1.943   2.297  0.6600 -0.5128  0.3511
15407SOL    HW147034   2.760   1.908   2.214  0.5025  0.7779 -0.2713
15407SOL    HW247035   2.747   1.875   2.361 -1.7895 -2.7904 -1.1911
15408SOL     OW47036   1.459   3.514   7.926 -0.4579  0.4651  0.0502
15408SOL    HW147037   1.398   3.450   7.889 -0.6919  1.2108 -0.8393
15408SOL    HW247038   1.411   3.552   8.000 -0.0916 -0.8126  0.9838
15409SOL     OW47039   0.684   4.891   5.543 -0.0109  0.1323  0.3452
15409SOL    HW147040   0.734   4.878   5.624  0.9110  1.1498 -0.0406
15409SOL    HW247041   0.693   4.809   5.496 -0.2331 -0.3320  1.1017
15410SOL     OW47042   0.905   6.593   1.814  0.1475 -0.1812 -0.1505
15410SOL    HW147043   0.871   6.504   1.826 -0.5456  0.2547  1.1842
15410SOL    HW247044   0.865   6.623   1.732 -0.0312 -0.8986 -0.3314
15411SOL     OW47045   0.705   3.119   5.664 -0.2390  0.2407 -0.5496
15411SOL    HW147046   0.681   3.163   5.746 -0.8790  0.9708 -1.1206
15411SOL    HW247047   0.622   3.083   5.632  0.2874 -1.4448 -0.0618
15412SOL     OW47048   3.049   3.526   3.516  0.5623 -0.5565  0.5310
15412SOL    HW147049   3.094   3.566   3.590  2.2124  0.6042 -1.0629
15412SOL    HW247050   3.119   3.484   3.465 -0.2997  0.2521 -1.3462
15413SOL     OW47051   2.457   0.057   2.557 -0.5581  0.8417  0.1096
15413SOL    HW147052   2.407   0.023   2.631  3.0973  2.2526  3.3838
15413SOL    HW247053   2.427   0.148   2.548 -2.1656  0.2060 -1.2820
15414SOL     OW47054   1.786   3.713   0.545 -0.2422 -0.1236  0.8323
15414SOL    HW147055   1.832   3.746   0.468 -0.6331 -1.7769 -0.1392
15414SOL    HW247056   1.710   3.770   0.554  0.1854  0.5124  0.4025
15415SOL     OW47057   4.475   6.965   1.665 -0.2091  0.2282  0.1979
15415SOL    HW147058   4.443   6.954   1.754 -0.7514 -1.3742 -0.1877
15415SOL    HW247059   4.559   7.010   1.675 -0.2476  0.0123  1.5123
15416SOL     OW47060   2.037   3.953   3.610  0.1295  0.1453  0.2442
15416SOL    HW147061   2.061   3.903   3.532 -0.6870  0.0857  0.0236
15416SOL    HW247062   1.945   3.976   3.596  0.1051  0.5082  0.9870
15417SOL     OW47063   3.142   5.505   5.251 -0.5506  0.7715 -0.2991
15417SOL    HW147064   3.123   5.587   5.297  0.5799  1.0126 -0.2487
15417SOL    HW247065   3.188   5.452   5.316 -2.5545 -0.5043  0.1563
15418SOL     OW47066   4.461   5.062   2.941 -0.4522 -0.2487  0.5013
15418SOL    HW147067   4.469   5.153   2.914 -0.5172 -0.2282  0.5532
15418SOL    HW247068   4.411   5.020   2.872 -1.6587  0.0649  1.1726
15419SOL     OW47069   4.330   4.440   6.682  0.0609  0.3536 -0.0669
15419SOL    HW147070   4.400   4.375   6.689 -0.2816  0.0746  0.8563
15419SOL    HW247071   4.284   4.435   6.766 -0.3908  1.3059 -0.2497
15420SOL     OW47072   5.852   4.691   3.128  0.4580  0.8964 -0.2477
15420SOL    HW147073   5.891   4.705   3.214  1.0512 -2.2282  0.0480
15420SOL    HW247074   5.768   4.649   3.146  1.1522 -0.9560 -1.2025
15421SOL     OW47075   6.630   7.599   5.928 -0.4173  0.0742 -0.1078
15421SOL    HW147076   6.575   7.677   5.928 -0.3511  0.1215  0.6205
15421SOL    HW247077   6.652   7.585   5.836 -0.6298  0.7685 -0.2641
15422SOL     OW47078   3.998   3.199   5.250 -0.4711 -0.3610  0.0059
15422SOL    HW147079   4.014   3.291   5.225  1.1211 -0.8168 -0.7246
15422SOL    HW247080   4.047   3.188   5.332 -0.6908 -0.5402  0.1118
15423SOL     OW47081   2.080   4.710   2.271  0.2984 -0.2224 -0.2925
15423SOL    HW147082   1.986   4.703   2.288  0.1896  3.6966  1.1634
15423SOL    HW247083   2.095   4.651   2.197 -2.8523 -2.6472  0.8685
15424SOL     OW47084   4.100   5.027   1.149  0.1323  0.2557  0.0934
15424SOL    HW147085   4.179   4.977   1.126  0.0220 -0.5268  1.3595
15424SOL    HW247086   4.127   5.118   1.142  0.4761  0.0333 -1.7782
15425SOL     OW47087   0.115   1.705   1.670  0.1858 -0.4232 -0.2403
15425SOL    HW147088   0.121   1.661   1.586 -0.2326  3.3259 -2.3662
15425SOL    HW247089   0.150   1.793   1.653  1.5182 -0.0334  3.8830
15426SOL     OW47090   6.289   2.356   6.725 -0.0629  0.3536 -0.0011
15426SOL    HW147091   6.281   2.337   6.818  1.7442  0.3152  0.1551
15426SOL    HW247092   6.264   2.275   6.681  0.5076 -0.0886  0.4883
15427SOL     OW47093   5.255   3.969   0.333 -0.5015  0.3045  0.6721
15427SOL    HW147094   5.325   3.991   0.393  0.4297 -1.2813  0.2209
15427SOL    HW247095   5.254   4.040   0.269  0.6896  0.3592  0.7025
15428SOL     OW47096   2.397   7.687   3.315  0.8896 -0.6677 -0.2012
15428SOL    HW147097   2.388   7.688   3.411  4.1246  0.4228  0.1480
15428SOL    HW247098   2.458   7.615   3.298 -0.4074 -1.4795 -1.5706
15429SOL     OW47099   0.501   1.836   2.158 -0.4232  0.0098  0.0892
15429SOL    HW147100   0.502   1.779   2.235 -0.2467 -0.0261  0.0613
15429SOL    HW247101   0.539   1.919   2.189  1.4391 -0.6286 -0.4345
15430SOL     OW47102   5.188   1.360   3.628 -0.8527  0.2888 -0.0445
15430SOL    HW147103   5.164   1.425   3.561 -0.8204 -1.4884 -1.8329
15430SOL    HW247104   5.107   1.341   3.674 -0.8761  1.5281  0.4699
15431SOL     OW47105   3.827   2.136   0.136  0.2876  0.1973  0.5632
15431SOL    HW147106   3.767   2.209   0.149  0.7647  0.3616  1.8632
15431SOL    HW247107   3.885   2.166   0.066 -0.1658  0.6478  0.3701
15432SOL     OW47108   5.179   7.424   1.064  0.3966 -0.6023  0.5801
15432SOL    HW147109   5.243   7.463   1.004  0.0850 -0.1022  0.5693
15432SOL    HW247110   5.105   7.401   1.008 -0.1846  0.5126  0.8760
15433SOL     OW47111   2.093   3.730   7.910 -0.2766 -0.4411 -0.7439
15433SOL    HW147112   2.064   3.711   7.821 -1.5420  1.1149 -0.6840
15433SOL    HW247113   2.102   3.643   7.951  0.7224 -1.1882 -2.4809
15434SOL     OW47114   4.688   0.084   1.323 -0.6651  0.4443  0.1641
15434SOL    HW147115   4.753   0.062   1.390 -0.2965  0.6550 -0.1237
15434SOL    HW247116   4.739   0.121   1.251 -0.9261 -1.0535 -0.8063
15435SOL     OW47117   2.100   5.661   0.060 -0.3171  0.2684 -0.0017
15435SOL    HW147118   2.088   5.576   0.016 -0.0184  1.4826 -2.5345
15435SOL    HW247119   2.188   5.657   0.096 -0.5523 -0.7542  0.4916
15436SOL     OW47120   2.914   5.884   0.812 -0.2399 -0.1805  0.0065
15436SOL    HW147121   2.973   5.873   0.887  1.8977  2.4194 -1.2245
15436SOL    HW247122   2.907   5.796   0.775  0.8100 -1.0086  1.6917
15437SOL     OW47123   0.552   5.443   6.898 -0.5287 -0.4460 -0.0720
15437SOL    HW147124   0.569   5.450   6.992  2.1238  0.3010 -0.5736
15437SOL    HW247125   0.536   5.349   6.884 -0.6807 -0.6019  1.0858
15438SOL     OW47126   1.485   7.466   4.255 -0.1522 -0.3976 -0.3878
15438SOL    HW147127   1.499   7.417   4.174  1.2364  1.3753 -1.2448
15438SOL    HW247128   1.421   7.533   4.232  0.0170 -0.0775  0.0677
15439SOL     OW47129   6.913   6.814   1.606  0.1421  0.2426 -0.4775
15439SOL    HW147130   6.909   6.909   1.592  1.2335  0.4569  0.5347
15439SOL    HW247131   7.000   6.799   1.644  0.3967 -1.3014 -1.6121
15440SOL     OW47132   1.332   1.066   2.265  0.6340  0.0253  0.4663
15440SOL    HW147133   1.312   1.021   2.182  1.3775 -0.6723  0.6617
15440SOL    HW247134   1.323   0.998   2.331  0.3436  0.5142  0.9310
15441SOL     OW47135   6.893   5.510   7.944 -0.5657  0.1210  0.2120
15441SOL    HW147136   6.917   5.562   7.868 -0.4887  0.1639  0.2650
15441SOL    HW247137   6.798   5.520   7.952 -0.7221 -0.7364 -0.5008
15442SOL     OW47138   3.404   0.803   0.054  0.1390 -0.3824  0.0855
15442SOL    HW147139   3.455   0.882   0.036  1.5287 -1.0231  1.1772
15442SOL    HW247140   3.316   0.825   0.023  0.7540  1.2082 -0.6096
15443SOL     OW47141   7.516   3.164   3.759 -0.2022  0.2159 -0.0011
15443SOL    HW147142   7.596   3.130   3.800 -0.4791 -0.7595 -0.2516
15443SOL    HW247143   7.502   3.107   3.684 -1.5915 -0.1520  0.5269
15444SOL     OW47144   3.776   3.623   3.408 -0.2839  0.1491 -0.2444
15444SOL    HW147145   3.770   3.718   3.399 -1.0319  0.3082  1.6463
15444SOL    HW247146   3.869   3.607   3.427 -0.2336  0.5305 -0.1556
15445SOL     OW47147   5.877   4.115   0.565  0.3517  0.0598 -1.4241
15445SOL    HW147148   5.876   4.058   0.489  0.5381 -1.2074 -0.4837
15445SOL    HW247149   5.891   4.057   0.639 -0.8273  1.1622 -0.3070
15446SOL     OW47150   6.796   6.038   2.943 -0.0485 -0.6054  0.3871
15446SOL    HW147151   6.816   6.030   2.849  0.2000 -0.4251  0.4239
15446SOL    HW247152   6.726   5.975   2.958  0.6583 -1.4125  0.3098
15447SOL     OW47153   2.521   0.986   2.807 -0.2777 -0.8309  0.2238
15447SOL    HW147154   2.507   1.064   2.861  0.3053  0.0120 -0.8175
15447SOL    HW247155   2.499   0.913   2.865  1.6218 -0.0197  2.0176
15448SOL     OW47156   3.060   7.514   4.493  0.1299  0.3187 -0.2281
15448SOL    HW147157   3.123   7.457   4.538  0.5770  1.3396  0.4647
15448SOL    HW247158   3.009   7.455   4.437  1.0594 -0.6515 -0.0582
15449SOL     OW47159   3.497   7.611   1.920 -0.1839  0.1487  0.1874
15449SOL    HW147160   3.415   7.563   1.907 -0.5654  0.5225  1.1754
15449SOL    HW247161   3.474   7.703   1.910  0.4489  0.1620 -1.1867
15450SOL     OW47162   2.745   2.239   6.998  0.0869  0.0550 -0.2940
15450SOL    HW147163   2.754   2.331   7.022  0.1797 -0.0655  0.1469
15450SOL    HW247164   2.732   2.239   6.903 -0.7345  0.5751 -0.1842
15451SOL     OW47165   1.630   5.140   5.328 -0.1450  0.4540 -0.6436
15451SOL    HW147166   1.703   5.202   5.334 -1.5552  2.2191 -1.1447
15451SOL    HW247167   1.554   5.195   5.308 -1.7734 -1.2411  0.7038
15452SOL     OW47168   0.191   2.644   2.775 -0.5683 -0.2723 -0.0947
15452SOL    HW147169   0.285   2.659   2.768 -0.3380 -0.8522  1.5270
15452SOL    HW247170   0.181   2.549   2.781 -1.2381 -0.2124 -0.1453
15453SOL     OW47171   2.927   5.338   5.364 -0.3655  0.0975  0.2932
15453SOL    HW147172   2.962   5.406   5.306 -1.7691 -0.8517 -1.6988
15453SOL    HW247173   2.832   5.346   5.358 -0.5534  0.0673  2.6012
15454SOL     OW47174   0.052   2.051   5.057  0.0019 -0.2349  0.5978
15454SOL    HW147175   0.111   2.006   4.996  0.2850  1.0490 -0.1016
15454SOL    HW247176   0.098   2.132   5.079 -1.5495  0.8436 -0.0676
15455SOL     OW47177   2.918   2.877   6.396  0.0635  0.1197 -0.2601
15455SOL    HW147178   2.989   2.879   6.332 -0.5056 -0.4519 -0.9153
15455SOL    HW247179   2.900   2.784   6.411 -1.1831  0.2569 -0.8215
15456SOL     OW47180   7.076   4.598   0.030  0.4621  0.4795  0.6769
15456SOL    HW147181   7.112   4.514   0.004  0.7202  1.2585 -1.5633
15456SOL    HW247182   7.144   4.637   0.085  0.7238 -0.3771  0.9652
15457SOL     OW47183   2.895   0.394   7.827 -0.2013  0.4351  0.2689
15457SOL    HW147184   2.935   0.411   7.912 -0.3329  1.0359  0.2123
15457SOL    HW247185   2.950   0.326   7.787 -0.5489 -0.3537  1.1202
15458SOL     OW47186   1.238   7.322   7.588  0.2177 -0.3155  0.2514
15458SOL    HW147187   1.302   7.270   7.540 -1.3075 -1.2021 -0.8847
15458SOL    HW247188   1.195   7.375   7.521 -2.2006 -1.8416  0.5362
15459SOL     OW47189   6.907   5.763   4.345 -0.4851  0.1108 -0.2648
15459SOL    HW147190   7.000   5.762   4.369 -0.7212 -1.3929  0.6764
15459SOL    HW247191   6.866   5.702   4.406 -2.1193  0.8118 -0.6216
15460SOL     OW47192   7.866   4.158   2.067  0.0694 -0.8342 -0.1148
15460SOL    HW147193   7.836   4.068   2.053  1.5572 -0.9966 -2.6295
15460SOL    HW247194   7.958   4.156   2.042 -0.0923  1.5869 -1.0048
15461SOL     OW47195   2.840   5.621   2.298  0.0300 -0.0783 -0.7958
15461SOL    HW147196   2.767   5.675   2.268 -2.0925 -1.0413  2.3960
15461SOL    HW247197   2.855   5.559   2.227 -0.2322  2.0190 -2.7384
15462SOL     OW47198   6.363   2.257   0.684 -0.3806 -0.1705 -0.1340
15462SOL    HW147199   6.411   2.328   0.641  0.3812 -0.7383 -0.2421
15462SOL    HW247200   6.399   2.178   0.644  0.3379 -0.7028  1.5466
15463SOL     OW47201   0.825   3.470   3.346 -0.2136  0.2456  0.1746
15463SOL    HW147202   0.811   3.379   3.372  0.8325  0.0718  0.1648
15463SOL    HW247203   0.875   3.464   3.264 -1.2880  0.8197 -0.5363
15464SOL     OW47204   6.794   6.749   0.560 -0.2774 -0.4640  0.5379
15464SOL    HW147205   6.719   6.744   0.619 -1.0521 -2.4866 -0.5633
15464SOL    HW247206   6.816   6.658   0.541  1.2101  0.1273 -0.7256
15465SOL     OW47207   7.498   4.359   5.907  0.2068 -0.0885 -0.1197
15465SOL    HW147208   7.543   4.286   5.949 -0.1176  0.5932  1.4409
15465SOL    HW247209   7.496   4.336   5.814 -0.9376 -2.6384  0.4930
15466SOL     OW47210   7.788   5.673   5.489  0.9171 -0.0872  0.2516
15466SOL    HW147211   7.711   5.669   5.433  1.1387  0.8492 -0.1380
15466SOL    HW247212   7.829   5.587   5.480  1.3604  0.3021 -1.6340
15467SOL     OW47213   1.542   2.645   5.364 -0.1247 -0.3398 -0.4691
15467SOL    HW147214   1.513   2.568   5.414  0.6002  0.3475  1.0435
15467SOL    HW247215   1.627   2.620   5.328  0.9358  0.3425  1.4835
15468SOL     OW47216   1.220   5.730   1.080 -0.1879 -0.1392  0.0260
15468SOL    HW147217   1.252   5.643   1.099  1.0450  0.8873  2.8211
15468SOL    HW247218   1.137   5.736   1.127  0.3168  0.6026  0.8304
15469SOL     OW47219   1.176   4.421   0.006 -0.2069  0.0292 -0.2397
15469SOL    HW147220   1.199   4.372   0.085 -0.7273 -1.0447 -0.7498
15469SOL    HW247221   1.087   4.393  -0.014 -0.1949  0.5450 -1.0314
15470SOL     OW47222   1.005   2.641   6.411  0.0702  0.3219 -0.4643
15470SOL    HW147223   1.069   2.570   6.412  0.2364  0.4798  0.7722
15470SOL    HW247224   1.045   2.708   6.355  0.4704 -0.0472 -0.6221
15471SOL     OW47225   5.468   6.308   5.676 -0.6264 -0.2606  0.3784
15471SOL    HW147226   5.549   6.290   5.628 -1.5843 -2.1979 -0.5750
15471SOL    HW247227   5.456   6.403   5.669  0.5126 -0.2187 -1.1771
15472SOL     OW47228   5.025   5.931   3.709 -0.2563 -0.0085  0.3311
15472SOL    HW147229   5.027   6.018   3.749  0.1319  0.3071 -0.3489
15472SOL    HW247230   5.110   5.923   3.666 -0.9446 -0.0064 -1.0795
15473SOL     OW47231   5.265   7.897   3.962 -0.2841  0.0439  0.3077
15473SOL    HW147232   5.288   7.807   3.941  0.7945  0.4835 -0.4452
15473SOL    HW247233   5.243   7.937   3.877 -2.8009 -0.0673  0.8817
15474SOL     OW47234   4.385   1.146   0.895 -0.2425 -0.0491 -0.6716
15474SOL    HW147235   4.471   1.104   0.907  0.4658  1.1559 -1.3870
15474SOL    HW247236   4.403   1.239   0.904 -1.7225  0.1344  0.4209
15475SOL     OW47237   7.844   6.336   6.565  0.3129 -0.1183 -0.0714
15475SOL    HW147238   7.841   6.422   6.524  1.5386  0.1666  0.4185
15475SOL    HW247239   7.768   6.290   6.529  0.0194  0.9345 -0.8322
15476SOL     OW47240   4.099   7.380   3.279  0.1152 -0.0082  0.2137
15476SOL    HW147241   4.047   7.456   3.303  1.1859  0.5002  0.9396
15476SOL    HW247242   4.187   7.399   3.311  0.0566 -2.2372  1.7850
15477SOL     OW47243   4.220   3.549   3.713 -0.1685  0.6495 -0.5805
15477SOL    HW147244   4.127   3.566   3.697 -0.5859 -0.6410  0.3576
15477SOL    HW247245   4.233   3.459   3.683  0.6953  0.7075 -0.3952
15478SOL     OW47246   0.470   0.511   4.981  0.4989 -0.1082 -0.3435
15478SOL    HW147247   0.500   0.595   4.946  1.1037 -0.2112 -0.0737
15478SOL    HW247248   0.503   0.509   5.070  0.1572 -0.4666 -0.2234
15479SOL     OW47249   4.016   7.648   5.671 -0.6674  0.3899  0.2179
15479SOL    HW147250   4.096   7.603   5.697 -0.6254  0.3366 -0.0059
15479SOL    HW247251   4.031   7.674   5.581 -1.9428 -2.0273 -0.7508
15480SOL     OW47252   3.363   5.950   6.225 -0.1793 -0.1811  0.3210
15480SOL    HW147253   3.389   5.908   6.143  0.3143  0.9049 -0.0779
15480SOL    HW247254   3.444   5.981   6.264 -0.2207 -2.1288  2.0424
15481SOL     OW47255   6.260   1.323   0.393 -0.2578  0.3488 -0.3827
15481SOL    HW147256   6.255   1.363   0.306 -2.2806 -0.2512 -0.5653
15481SOL    HW247257   6.263   1.229   0.376  2.8491  0.3236  0.1015
15482SOL     OW47258   0.278   1.572   4.462 -0.2647 -0.4432  0.2977
15482SOL    HW147259   0.305   1.485   4.431 -1.2152 -1.1838  1.4896
15482SOL    HW247260   0.266   1.560   4.557 -0.9878  0.8400  0.3692
15483SOL     OW47261   4.232   4.172   4.668  0.3706 -0.0903 -0.2355
15483SOL    HW147262   4.211   4.119   4.591 -0.5177  1.6817 -1.2461
15483SOL    HW247263   4.150   4.215   4.691  0.7586 -0.1952  1.4113
15484SOL     OW47264   3.429   6.731   5.391  0.4253 -0.1142  0.0221
15484SOL    HW147265   3.336   6.739   5.413  0.7560  0.6019  1.1858
15484SOL    HW247266   3.431   6.674   5.313 -0.9816 -0.0776 -0.0430
15485SOL     OW47267   6.938   4.710   1.038 -0.0496  0.0799  0.2457
15485SOL    HW147268   6.921   4.769   1.112  1.0567 -0.5185  0.9784
15485SOL    HW247269   6.955   4.769   0.964  1.2715  0.7054  1.0255
15486SOL     OW47270   2.027   7.044   0.705  0.0330 -0.1048  0.6086
15486SOL    HW147271   2.089   7.097   0.656 -1.2005  2.0876  1.3654
15486SOL    HW247272   1.972   7.003   0.637  1.4166 -0.9695 -0.0020
15487SOL     OW47273   2.340   2.138   6.645  0.5645  0.3051  0.6365
15487SOL    HW147274   2.245   2.144   6.633  0.2990  0.0665  2.5178
15487SOL    HW247275   2.376   2.165   6.561 -1.1575  1.0327  0.1082
15488SOL     OW47276   4.160   0.016   4.027 -0.4700  0.0693 -0.2719
15488SOL    HW147277   4.208   0.095   4.054  0.6261 -1.4926  2.4402
15488SOL    HW247278   4.228  -0.043   3.994 -1.3854  0.5394 -3.1392
15489SOL     OW47279   0.006   1.937   5.753 -0.2786 -0.1293  0.3069
15489SOL    HW147280  -0.088   1.935   5.735 -0.2888 -1.7983  0.4318
15489SOL    HW247281   0.012   1.946   5.848 -0.3446 -1.5659  0.4599
15490SOL     OW47282   7.007   1.217   1.194  0.2647  0.0299  0.6132
15490SOL    HW147283   6.924   1.176   1.169 -0.6796  0.5962  2.7125
15490SOL    HW247284   7.062   1.145   1.223 -0.1394 -0.1605  0.9164
15491SOL     OW47285   2.356   1.807   1.458  0.2821 -0.6848  0.0491
15491SOL    HW147286   2.302   1.885   1.454 -0.8633 -1.2402  3.2258
15491SOL    HW247287   2.435   1.829   1.408 -0.9916  1.6553 -0.9927
15492SOL     OW47288   4.462   5.675   2.389  0.3410 -0.4484 -0.0555
15492SOL    HW147289   4.534   5.701   2.446  0.6641  0.9936 -1.0840
15492SOL    HW247290   4.404   5.624   2.445  1.0458  0.2695  1.3514
15493SOL     OW47291   7.986   2.586   7.378  0.8122 -0.6483  0.5116
15493SOL    HW147292   7.985   2.583   7.282  1.2227 -2.1270  0.5387
15493SOL    HW247293   8.069   2.544   7.402  0.5509 -0.5937  1.5191
15494SOL     OW47294   7.861   6.021   4.561 -0.2017  0.5640 -0.4544
15494SOL    HW147295   7.880   6.098   4.507  0.2401  0.5224 -0.3636
15494SOL    HW247296   7.854   6.055   4.650  1.0903  0.3502 -0.2594
15495SOL     OW47297   7.742   1.934   2.346 -0.1416 -0.1963  0.5291
15495SOL    HW147298   7.691   2.007   2.381 -0.3447  0.0457 -0.2434
15495SOL    HW247299   7.829   1.971   2.332 -0.3331  0.0095 -0.1843
15496SOL     OW47300   0.869   4.178   5.049  0.4421 -0.3029 -0.2665
15496SOL    HW147301   0.881   4.129   5.130  0.3721  0.0970 -0.0157
15496SOL    HW247302   0.955   4.218   5.033 -0.0122  1.0086  0.5175
15497SOL     OW47303   0.833   5.476   7.965 -0.3534 -0.2894  0.0273
15497SOL    HW147304   0.762   5.422   8.000  0.8137 -2.5942 -1.1355
15497SOL    HW247305   0.800   5.506   7.880 -0.6567  0.1640  0.3000
15498SOL     OW47306   2.955   5.451   1.939  0.6799  0.0691  0.0370
15498SOL    HW147307   2.872   5.486   1.908 -0.2009 -1.7260  0.3111
15498SOL    HW247308   2.937   5.422   2.029  1.4065 -0.9381 -0.1299
15499SOL     OW47309   1.412   6.604   7.948 -0.1497  0.2221 -0.0558
15499SOL    HW147310   1.441   6.560   8.028  0.1273  1.9024  0.7987
15499SOL    HW247311   1.444   6.694   7.958  0.2038  0.3561 -2.2366
15500SOL     OW47312   5.842   7.509   0.536 -0.1152 -0.1357  0.0879
15500SOL    HW147313   5.867   7.417   0.529  2.0164  0.4397 -0.5378
15500SOL    HW247314   5.823   7.536   0.446 -1.4942 -0.1473  0.3644
15501SOL     OW47315   4.713   2.589   4.907  0.0151 -0.2466 -0.1623
15501SOL    HW147316   4.764   2.548   4.838 -1.1660  1.2849 -1.9702
15501SOL    HW247317   4.739   2.542   4.987  3.1433 -0.4891 -1.2345
15502SOL     OW47318   3.372   3.237   2.599 -0.1239  0.9332  0.6892
15502SOL    HW147319   3.354   3.275   2.685  1.6389 -0.1125  1.5636
15502SOL    HW247320   3.340   3.147   2.605 -1.6681  1.3912 -0.3947
15503SOL     OW47321   5.867   7.202   3.424  0.0146  0.0671 -0.2152
15503SOL    HW147322   5.846   7.291   3.398  0.8749 -0.0286 -1.2492
15503SOL    HW247323   5.792   7.174   3.477  0.2313  1.7767  1.0435
15504SOL     OW47324   5.316   5.862   3.643  0.0431 -0.5811 -0.5240
15504SOL    HW147325   5.349   5.814   3.719 -2.2428  0.1074  0.9609
15504SOL    HW247326   5.376   5.935   3.632 -0.2785 -0.0236  1.3626
15505SOL     OW47327   0.695   4.956   7.816  0.5186  0.0188  0.7438
15505SOL    HW147328   0.775   4.987   7.860  1.2161  0.6880 -0.9508
15505SOL    HW247329   0.720   4.871   7.779  0.4964  0.2990  0.0802
15506SOL     OW47330   1.734   4.902   6.750 -0.6476  0.0282  0.1778
15506SOL    HW147331   1.720   4.837   6.681 -1.4663  0.5311 -0.1273
15506SOL    HW247332   1.753   4.849   6.828 -2.9276 -0.6503  0.3129
15507SOL     OW47333   0.777   4.688   5.337 -0.0582  0.0936  0.4208
15507SOL    HW147334   0.717   4.743   5.287 -0.1635  0.4311  0.9129
15507SOL    HW247335   0.825   4.637   5.271  0.2898  1.0296 -0.0571
15508SOL     OW47336   0.283   1.131   5.565  0.2704  0.1954  0.1086
15508SOL    HW147337   0.300   1.205   5.507 -3.1062  1.8391  1.0637
15508SOL    HW247338   0.282   1.169   5.653 -0.0931 -1.2632  0.7610
15509SOL     OW47339   3.791   6.637   3.143 -0.3323  0.0814 -0.0260
15509SOL    HW147340   3.885   6.641   3.165 -0.4008 -0.1292  0.3214
15509SOL    HW247341   3.788   6.650   3.049 -0.1540  2.7229  0.3022
15510SOL     OW47342   5.365   3.513   6.396 -0.1370  0.2214 -0.4465
15510SOL    HW147343   5.419   3.525   6.318 -1.4200  1.5396 -1.1711
15510SOL    HW247344   5.286   3.469   6.363 -0.4001  0.1747  0.2362
15511SOL     OW47345   7.071   3.856   6.201  0.7758  0.1888 -0.4327
15511SOL    HW147346   6.991   3.803   6.193 -0.0232  0.9484  1.9608
15511SOL    HW247347   7.043   3.945   6.179  0.3868  0.8530  2.5132
15512SOL     OW47348   5.450   4.144   0.789 -0.3934 -0.2883  0.1268
15512SOL    HW147349   5.485   4.060   0.760  0.4577  0.1069  0.0208
15512SOL    HW247350   5.369   4.154   0.739 -0.1748 -0.7474 -0.3213
15513SOL     OW47351   7.452   6.399   5.330 -0.7881 -0.3222  0.4654
15513SOL    HW147352   7.469   6.336   5.260 -1.9977 -0.5023  0.3219
15513SOL    HW247353   7.534   6.403   5.379 -0.4641 -1.4551  0.0358
15514SOL     OW47354   0.798   4.526   4.322  0.2555 -0.0218  0.0644
15514SOL    HW147355   0.867   4.569   4.271  1.1294  0.2092  1.4290
15514SOL    HW247356   0.783   4.585   4.396 -1.0852 -0.3003  0.0209
15515SOL     OW47357   6.589   4.748   7.224 -0.1759 -0.3676 -0.4609
15515SOL    HW147358   6.607   4.797   7.305 -0.6183 -0.7883 -0.1070
15515SOL    HW247359   6.494   4.737   7.224 -0.1905 -0.2401 -1.1175
15516SOL     OW47360   6.232   0.158   7.378 -0.6645  0.4897  0.1015
15516SOL    HW147361   6.149   0.133   7.338 -1.0399 -0.0277  1.1894
15516SOL    HW247362   6.274   0.075   7.400 -0.4828  0.7676  0.8097
15517SOL     OW47363   4.669   6.489   5.992  0.1384 -0.0874  0.4028
15517SOL    HW147364   4.731   6.438   5.940 -2.2482 -1.5817 -1.0790
15517SOL    HW247365   4.659   6.438   6.073  2.3228  1.1983  1.5192
15518SOL     OW47366   7.780   3.930   6.778  0.3857 -0.1851  0.2409
15518SOL    HW147367   7.780   3.835   6.771 -0.1158 -0.1325 -0.5707
15518SOL    HW247368   7.695   3.950   6.818  0.3981 -0.0604  0.2034
15519SOL     OW47369   6.107   2.801   4.458  0.0913 -0.7651 -0.6757
15519SOL    HW147370   6.067   2.807   4.545  0.6961  0.0979 -0.4532
15519SOL    HW247371   6.082   2.714   4.426 -1.1457 -0.6186 -0.1423
15520SOL     OW47372   5.993   7.205   1.258 -0.5413 -0.0140  0.0350
15520SOL    HW147373   5.948   7.246   1.332 -0.9495  1.3994 -0.9858
15520SOL    HW247374   6.076   7.175   1.295  0.0418  2.3106  0.6701
15521SOL     OW47375   6.734   4.183   5.005  0.2586  0.0831  1.0163
15521SOL    HW147376   6.746   4.251   4.939  1.2441  0.3920  1.5111
15521SOL    HW247377   6.785   4.109   4.973  0.3139  0.0521  1.1756
15522SOL     OW47378   2.417   6.012   6.677  0.1067  0.2011 -0.3514
15522SOL    HW147379   2.484   6.012   6.608  2.1137  1.0506  1.5212
15522SOL    HW247380   2.457   5.964   6.749 -0.8921  1.6270  1.1933
15523SOL     OW47381   3.675   6.845   5.401  0.1725  0.6359 -0.8477
15523SOL    HW147382   3.677   6.904   5.325  0.1945 -0.2190 -1.5248
15523SOL    HW247383   3.587   6.807   5.399  0.3372  0.2447 -0.7421
15524SOL     OW47384   0.145   0.322   6.556  0.3733 -0.3262  0.0296
15524SOL    HW147385   0.097   0.242   6.537 -0.9537  0.4234  0.1932
15524SOL    HW247386   0.148   0.369   6.473 -0.4471  0.2972  0.3474
15525SOL     OW47387   0.461   6.029   6.916 -0.1652 -0.0198 -0.8067
15525SOL    HW147388   0.374   6.013   6.951  0.3743 -1.2794  0.0007
15525SOL    HW247389   0.498   6.097   6.972  0.3549 -1.3872  0.5436
15526SOL     OW47390   6.045   5.436   5.807 -0.4267  0.8233 -0.0003
15526SOL    HW147391   6.128   5.484   5.806  0.6180 -0.9231 -0.6981
15526SOL    HW247392   6.033   5.409   5.716 -0.4551 -1.0890  0.5476
15527SOL     OW47393   6.512   5.342   1.473  0.7334 -0.0450 -0.2459
15527SOL    HW147394   6.526   5.270   1.411  1.8736 -0.0941  0.0598
15527SOL    HW247395   6.511   5.420   1.417  0.2241 -0.2291 -0.4968
15528SOL     OW47396   0.506   1.324   5.173 -0.4940  0.4836 -0.0845
15528SOL    HW147397   0.601   1.314   5.162 -0.3701  1.9702 -0.5301
15528SOL    HW247398   0.470   1.297   5.089 -0.5825 -1.3394  0.5143
15529SOL     OW47399   2.851   5.209   7.643  0.1662  0.0193 -0.0916
15529SOL    HW147400   2.795   5.247   7.710 -1.1015 -2.3025  0.2227
15529SOL    HW247401   2.823   5.250   7.561  0.3429  1.3542  0.5025
15530SOL     OW47402   6.595   4.438   2.127  0.8145  0.5843  0.0646
15530SOL    HW147403   6.591   4.533   2.118  2.4445  0.5711 -0.9757
15530SOL    HW247404   6.628   4.424   2.217  0.1222  0.9871  0.3807
15531SOL     OW47405   0.449   0.491   5.803 -0.6097  0.4428  0.7166
15531SOL    HW147406   0.502   0.413   5.822 -0.3820 -0.5265 -3.4358
15531SOL    HW247407   0.505   0.546   5.748 -3.3004  0.0345 -2.6021
15532SOL     OW47408   2.975   5.189   1.844 -0.4264  0.5014 -0.4436
15532SOL    HW147409   2.940   5.273   1.874 -0.0617  1.1652 -1.8101
15532SOL    HW247410   3.025   5.211   1.765 -3.1594 -1.4247 -2.8401
15533SOL     OW47411   7.614   1.078   5.968  0.1361  0.2946  0.0125
15533SOL    HW147412   7.622   1.058   5.874 -1.3194  0.3335 -0.1299
15533SOL    HW247413   7.596   1.172   5.971  1.6594  0.5982  0.4282
15534SOL     OW47414   0.869   5.932   6.426 -0.1645 -0.4782  0.1238
15534SOL    HW147415   0.901   6.004   6.373 -1.1325 -0.6480 -0.7082
15534SOL    HW247416   0.860   5.859   6.365  0.9658 -1.3669  0.9870
15535SOL     OW47417   0.348   7.903   7.226  0.8254 -0.5030  0.7055
15535SOL    HW147418   0.257   7.926   7.244  0.4933 -1.4128  0.2304
15535SOL    HW247419   0.361   7.925   7.134  1.0098 -0.5988  0.7070
15536SOL     OW47420   6.139   6.394   4.354 -0.1002  0.4658 -0.2864
15536SOL    HW147421   6.072   6.383   4.287 -0.5510 -0.2709  0.2920
15536SOL    HW247422   6.173   6.483   4.339  1.2006 -0.3899 -2.7786
15537SOL     OW47423   5.306   3.662   5.614 -0.5494  0.6163  0.6632
15537SOL    HW147424   5.286   3.595   5.549  0.4087 -0.5363  1.5181
15537SOL    HW247425   5.224   3.711   5.625 -1.0915 -0.0375 -0.4018
15538SOL     OW47426   6.558   7.694   1.496 -0.1007 -0.0604  0.1140
15538SOL    HW147427   6.509   7.727   1.421 -1.3822 -0.4007  0.7848
15538SOL    HW247428   6.531   7.602   1.503  1.2579 -0.4673 -0.0044
15539SOL     OW47429   5.825   5.471   2.014 -0.2693  0.4067 -0.0659
15539SOL    HW147430   5.767   5.532   1.968 -1.2327 -0.1176  0.4438
15539SOL    HW247431   5.885   5.439   1.946 -1.2287  0.1700 -0.8047
15540SOL     OW47432   7.067   5.670   5.811 -0.1638 -0.1271  0.1144
15540SOL    HW147433   7.136   5.615   5.774  0.1025  0.6416 -0.5577
15540SOL    HW247434   7.111   5.752   5.833 -0.5152 -0.2455  1.2831
15541SOL     OW47435   7.235   6.681   2.182  0.0608  0.1461  0.2688
15541SOL    HW147436   7.298   6.746   2.153  1.9458 -1.2742  1.1278
15541SOL    HW247437   7.244   6.678   2.277 -0.3065 -1.0428  0.2807
15542SOL     OW47438   3.480   5.935   0.460 -0.1110  0.2318  0.2618
15542SOL    HW147439   3.523   5.864   0.412 -0.5945 -0.2466  0.5331
15542SOL    HW247440   3.525   6.014   0.431 -0.0427 -0.1096 -0.5803
15543SOL     OW47441   3.067   3.704   4.475  0.0351 -0.3724 -0.5065
15543SOL    HW147442   3.054   3.674   4.565  2.0514  0.6881  0.1763
15543SOL    HW247443   3.151   3.665   4.449  0.0123  0.2412 -1.5362
15544SOL     OW47444   6.834   3.177   3.470  0.2379 -0.1201 -0.1461
15544SOL    HW147445   6.852   3.099   3.418 -0.3254  0.8276 -1.8059
15544SOL    HW247446   6.885   3.246   3.428 -1.3248  0.9629 -0.2975
15545SOL     OW47447   4.867   4.247   3.914  0.2592 -0.4634  0.5181
15545SOL    HW147448   4.911   4.328   3.941  0.9999 -0.4788 -0.6161
15545SOL    HW247449   4.802   4.231   3.983 -0.7751  1.8001  0.1064
15546SOL     OW47450   1.261   7.377   5.175  0.3381  0.3694  0.2554
15546SOL    HW147451   1.295   7.406   5.260  1.3146 -0.0440  0.0153
15546SOL    HW247452   1.317   7.303   5.152  0.2685  0.6748 -0.8857
15547SOL     OW47453   1.500   3.041   0.188  0.2339 -0.6698 -0.5786
15547SOL    HW147454   1.449   2.964   0.166 -1.9659  0.8466 -0.9137
15547SOL    HW247455   1.569   3.044   0.122  0.3135 -2.2982 -0.5828
15548SOL     OW47456   0.741   4.183   4.173 -0.0192 -0.0442  0.3578
15548SOL    HW147457   0.776   4.210   4.258  0.9787 -1.5233  0.4402
15548SOL    HW247458   0.775   4.248   4.111 -1.3004  1.4288  1.1639
15549SOL     OW47459   6.766   2.634   4.898  0.7201 -0.6829 -0.5413
15549SOL    HW147460   6.716   2.606   4.974 -0.1998  2.3017 -0.0253
15549SOL    HW247461   6.703   2.633   4.826  0.6949  0.0895 -0.5246
15550SOL     OW47462   5.936   5.551   3.435 -0.2011  0.1171 -0.3602
15550SOL    HW147463   5.841   5.543   3.429 -0.2313 -0.3172  0.6294
15550SOL    HW247464   5.967   5.462   3.450  0.3620  0.2709 -0.5816
15551SOL     OW47465   2.237   3.254   2.446 -0.5252 -0.3635  0.4369
15551SOL    HW147466   2.195   3.175   2.482 -0.0873 -0.6562  0.3057
15551SOL    HW247467   2.318   3.263   2.497 -1.5813  1.2071  1.9128
15552SOL     OW47468   7.346   3.102   2.813  0.2524 -0.4713 -0.4088
15552SOL    HW147469   7.416   3.058   2.862 -0.5370 -0.3369  0.8727
15552SOL    HW247470   7.270   3.045   2.825 -0.4300  0.5295  0.1033
15553SOL     OW47471   6.711   1.850   3.238  0.5377 -0.0591 -0.3885
15553SOL    HW147472   6.747   1.925   3.286 -0.1104 -0.4548  0.7361
15553SOL    HW247473   6.679   1.888   3.156 -0.6685  1.0777  0.5858
15554SOL     OW47474   6.607   2.087   6.662  0.4853 -0.0897  0.5614
15554SOL    HW147475   6.662   2.141   6.719 -0.3514  0.4749  0.8432
15554SOL    HW247476   6.530   2.067   6.715 -0.1258  0.1263 -0.2301
15555SOL     OW47477   2.211   1.563   7.730 -0.5202 -0.4478 -0.2006
15555SOL    HW147478   2.171   1.639   7.688 -1.9416 -0.1308  1.6886
15555SOL    HW247479   2.301   1.562   7.697 -0.9801  1.0581 -1.5436
15556SOL     OW47480   4.536   2.114   1.756 -0.6003  0.5619  0.6360
15556SOL    HW147481   4.595   2.089   1.828  0.0505 -0.3061 -0.1819
15556SOL    HW247482   4.512   2.204   1.775  0.4162  0.6919  1.3721
15557SOL     OW47483   2.378   5.398   3.338 -0.0103 -0.0724 -0.2339
15557SOL    HW147484   2.313   5.460   3.306  0.3810  0.7437  0.5576
15557SOL    HW247485   2.462   5.438   3.317  0.2710 -1.4767 -1.9545
15558SOL     OW47486   6.327   2.605   6.994  0.4228 -0.5930 -0.0472
15558SOL    HW147487   6.289   2.673   7.050  1.7447 -0.9179  1.2780
15558SOL    HW247488   6.280   2.525   7.019  0.5492 -0.6154  0.1170
15559SOL     OW47489   6.822   4.367   1.238 -0.4576  0.3469  0.0681
15559SOL    HW147490   6.836   4.431   1.308  1.3725  2.0725 -1.8205
15559SOL    HW247491   6.904   4.319   1.233 -0.8987 -0.3775 -0.3511
15560SOL     OW47492   7.813   6.246   3.944  0.7731 -0.2362 -0.2278
15560SOL    HW147493   7.766   6.319   3.905  1.1906 -0.0761 -0.4412
15560SOL    HW247494   7.870   6.214   3.874  0.0102 -1.2828 -0.3910
15561SOL     OW47495   7.891   1.382   1.671  0.0551 -0.3829 -0.2547
15561SOL    HW147496   7.835   1.323   1.723  1.8055 -1.1826  0.7734
15561SOL    HW247497   7.908   1.456   1.729  2.1722 -1.3651  0.4054
15562SOL     OW47498   3.625   3.036   3.640  0.3739 -0.4235 -0.3607
15562SOL    HW147499   3.642   2.989   3.721  2.4184  1.4453  0.3429
15562SOL    HW247500   3.685   3.111   3.642 -0.7629  0.6235 -2.7777
15563SOL     OW47501   4.809   1.081   1.219  0.3341  0.1969  0.1408
15563SOL    HW147502   4.868   1.018   1.180 -0.5395 -1.1759  0.9826
15563SOL    HW247503   4.772   1.036   1.295 -0.1664  1.7789  0.8672
15564SOL     OW47504   3.007   4.210   2.299 -0.3135 -0.2757 -0.1360
15564SOL    HW147505   2.965   4.286   2.259  0.2351 -0.5412 -1.2640
15564SOL    HW247506   2.948   4.137   2.278 -0.3807 -0.3059  0.1575
15565SOL     OW47507   3.304   1.277   3.215 -0.1556  0.5863  0.3422
15565SOL    HW147508   3.231   1.241   3.165 -0.8393 -0.1168  1.8080
15565SOL    HW247509   3.382   1.257   3.163 -0.9004  0.3377 -0.6803
15566SOL     OW47510   2.264   7.166   0.630  0.6235 -0.6272  0.5204
15566SOL    HW147511   2.327   7.095   0.641 -0.2254 -1.4444  0.2676
15566SOL    HW247512   2.317   7.245   0.626  1.6680 -1.3453 -0.2167
15567SOL     OW47513   6.211   6.852   4.545 -0.1679  0.1485 -0.7095
15567SOL    HW147514   6.212   6.803   4.463 -0.3522  0.5904 -0.9797
15567SOL    HW247515   6.123   6.837   4.581 -0.1040 -0.0044 -0.6174
15568SOL     OW47516   4.285   2.338   5.919  0.6715  0.5832 -0.2876
15568SOL    HW147517   4.259   2.337   6.011 -1.0994 -0.5085 -0.7813
15568SOL    HW247518   4.253   2.422   5.885  0.0598  0.3724 -0.2439
15569SOL     OW47519   3.306   2.470   7.556  0.0944  0.1764 -0.8471
15569SOL    HW147520   3.244   2.427   7.614 -0.6194 -1.2805 -2.6581
15569SOL    HW247521   3.294   2.564   7.573 -2.5990 -0.0793 -1.1798
15570SOL     OW47522   6.399   2.058   3.386  0.3642 -0.4721  0.3736
15570SOL    HW147523   6.434   2.121   3.323  1.5066  1.7297  3.1165
15570SOL    HW247524   6.305   2.058   3.371  0.7498 -1.1192 -2.3061
15571SOL     OW47525   0.921   6.381   3.737  0.1932  0.3445  0.0208
15571SOL    HW147526   0.919   6.317   3.666 -1.2612 -0.0503  0.4034
15571SOL    HW247527   0.843   6.434   3.724 -1.0105 -0.8050  2.2803
15572SOL     OW47528   5.169   0.888   6.537  0.0934  0.3592 -0.3783
15572SOL    HW147529   5.169   0.849   6.624 -0.4177  1.4398  0.1173
15572SOL    HW247530   5.256   0.926   6.527 -0.5332  2.0694  0.5137
15573SOL     OW47531   5.812   1.291   6.151 -0.4568 -0.4650  0.3838
15573SOL    HW147532   5.732   1.339   6.174  0.2255  0.8588  0.0653
15573SOL    HW247533   5.882   1.354   6.165  0.1887 -0.3436 -2.9975
15574SOL     OW47534   7.227   7.794   0.773 -0.7209  0.0060 -0.3414
15574SOL    HW147535   7.144   7.746   0.779 -1.3893  0.9789 -1.5071
15574SOL    HW247536   7.238   7.811   0.679  0.4365  0.5270 -0.1236
15575SOL     OW47537   6.911   4.419   4.064 -0.3196  0.6035 -1.0166
15575SOL    HW147538   6.973   4.485   4.034  0.9531  0.7042  1.6959
15575SOL    HW247539   6.935   4.340   4.017  0.6277  1.1194 -1.4102
15576SOL     OW47540   2.044   6.097   4.314 -0.1957  0.3779  0.0753
15576SOL    HW147541   2.025   6.098   4.408 -0.7575  0.0556 -0.0294
15576SOL    HW247542   2.061   6.189   4.292 -3.8961  1.0591 -0.2514
15577SOL     OW47543   0.617   7.325   3.222  0.0995  0.5957  0.1926
15577SOL    HW147544   0.543   7.278   3.183 -0.7149  0.0941  2.2591
15577SOL    HW247545   0.669   7.256   3.264 -0.5904  1.3858  2.4204
15578SOL     OW47546   3.289   2.692   1.072 -0.0737 -0.2074 -0.3636
15578SOL    HW147547   3.283   2.600   1.097 -2.5128  0.0361  0.0778
15578SOL    HW247548   3.201   2.727   1.088 -0.4341  1.1494 -4.7757
15579SOL     OW47549   2.944   1.797   3.192  0.5347  0.0723  0.1447
15579SOL    HW147550   2.954   1.783   3.098 -0.7339  0.3691 -0.0441
15579SOL    HW247551   3.031   1.783   3.228  1.0927  0.2605 -1.1180
15580SOL     OW47552   0.702   6.954   0.099 -0.1595 -0.1727  0.2037
15580SOL    HW147553   0.616   6.992   0.114 -0.3824 -0.5713 -0.0373
15580SOL    HW247554   0.711   6.886   0.167  0.6498  0.9644  1.2625
15581SOL     OW47555   5.895   7.382   1.492 -0.1933  0.6935  0.1981
15581SOL    HW147556   5.818   7.423   1.452 -1.0703  0.1308  1.2730
15581SOL    HW247557   5.943   7.455   1.531 -0.9827  0.8783  0.8424
15582SOL     OW47558   4.906   2.533   3.206  0.4360  0.7930  0.2689
15582SOL    HW147559   4.892   2.556   3.115  0.3697  0.1962  0.1238
15582SOL    HW247560   4.825   2.558   3.251 -0.3949 -0.9411 -0.2300
15583SOL     OW47561   3.641   1.076   1.168  0.1170 -0.0279  0.0502
15583SOL    HW147562   3.626   1.116   1.254 -1.5457  0.3285 -0.4018
15583SOL    HW247563   3.608   0.986   1.178 -0.1280  0.0314 -0.2341
15584SOL     OW47564   7.350   2.970   4.099 -0.2814 -0.0516 -0.1935
15584SOL    HW147565   7.288   2.898   4.107  1.2659 -1.5166 -0.9696
15584SOL    HW247566   7.354   3.009   4.187 -0.0894 -1.8097  0.5954
15585SOL     OW47567   3.634   4.846   0.028 -0.0958  0.2275 -0.1163
15585SOL    HW147568   3.625   4.791   0.105 -0.5771  2.3722  1.3999
15585SOL    HW247569   3.555   4.829  -0.023 -0.6388  0.1304  0.7477
15586SOL     OW47570   1.954   6.216   1.633 -0.0206 -0.5198 -1.0564
15586SOL    HW147571   1.891   6.181   1.570 -0.3614  0.0953 -1.0566
15586SOL    HW247572   1.973   6.305   1.603  0.5413 -0.5585 -0.8292
15587SOL     OW47573   5.444   6.955   7.408 -0.6063 -0.6902  0.1087
15587SOL    HW147574   5.404   7.040   7.393 -0.5587 -0.8278 -0.7955
15587SOL    HW247575   5.536   6.967   7.385  0.1465 -0.0799  3.2201
15588SOL     OW47576   6.560   2.681   1.055 -0.7091  0.6041  0.6568
15588SOL    HW147577   6.635   2.644   1.009 -2.2251 -0.6222 -0.9123
15588SOL    HW247578   6.592   2.763   1.092  0.6503  1.5106 -2.3855
15589SOL     OW47579   6.699   3.011   2.978 -0.3395  0.0164 -0.3185
15589SOL    HW147580   6.662   3.099   2.986 -0.1161  0.3857 -2.7666
15589SOL    HW247581   6.624   2.952   2.987 -0.6852  0.5159  0.0987
15590SOL     OW47582   0.528   4.260   1.910  0.5899  0.1788 -0.3678
15590SOL    HW147583   0.573   4.303   1.983 -0.6096 -0.2168  0.6285
15590SOL    HW247584   0.526   4.326   1.841 -0.6645  1.5477  0.9186
15591SOL     OW47585   2.712   7.003   3.939 -0.6516  0.2440  0.0783
15591SOL    HW147586   2.763   7.076   3.972 -0.2260 -0.6720  1.4678
15591SOL    HW247587   2.694   6.948   4.016 -0.3029 -1.5149 -1.0559
15592SOL     OW47588   6.166   3.091   5.378  0.2502 -0.0898 -0.4304
15592SOL    HW147589   6.121   3.172   5.403  1.8675  0.9383 -0.7393
15592SOL    HW247590   6.148   3.082   5.284 -1.6208 -1.2134  0.0114
15593SOL     OW47591   2.152   3.188   6.399 -0.3566  0.3405 -0.4101
15593SOL    HW147592   2.129   3.274   6.435 -0.0205  0.1209  0.3366
15593SOL    HW247593   2.068   3.151   6.370 -0.4448  1.1062 -1.1612
15594SOL     OW47594   2.936   0.083   5.241 -0.0936 -0.0663  0.4797
15594SOL    HW147595   2.973   0.167   5.214 -0.1562  0.3004  1.5146
15594SOL    HW247596   2.936   0.030   5.161 -0.3563  1.0207 -0.2560
15595SOL     OW47597   5.178   0.174   4.565 -0.0680  0.7253  0.0576
15595SOL    HW147598   5.150   0.188   4.475  0.0151 -1.3874 -0.3135
15595SOL    HW247599   5.249   0.238   4.578  1.2340 -0.2688 -2.0055
15596SOL     OW47600   7.022   2.877   6.393  0.2727  0.1875  0.3837
15596SOL    HW147601   6.965   2.932   6.340  2.4090  2.8688  0.7539
15596SOL    HW247602   7.051   2.808   6.334  0.1973  1.3957 -1.1034
15597SOL     OW47603   4.113   2.674   6.138 -0.1702  0.5333 -0.4319
15597SOL    HW147604   4.194   2.623   6.146 -1.2060 -0.9168  1.1413
15597SOL    HW247605   4.143   2.765   6.136  1.6461 -0.0659 -2.5213
15598SOL     OW47606   4.403   5.926   5.765 -0.3541  0.0924 -0.2537
15598SOL    HW147607   4.444   5.977   5.835  1.8499 -0.7012 -0.9264
15598SOL    HW247608   4.348   5.989   5.719  0.6072  1.3523  0.2756
15599SOL     OW47609   0.975   6.333   4.092 -0.6273 -0.1554  0.4060
15599SOL    HW147610   1.017   6.372   4.168  0.3097  2.4801 -1.4052
15599SOL    HW247611   1.046   6.296   4.040 -0.8882  0.9871 -0.8028
15600SOL     OW47612   3.489   6.920   1.694 -0.1241  0.0034 -0.1049
15600SOL    HW147613   3.404   6.945   1.658 -0.5223 -0.5707  0.4090
15600SOL    HW247614   3.494   6.966   1.778  1.4169  2.4738 -1.4859
15601SOL     OW47615   3.954   4.468   0.416 -0.6571 -0.1883 -0.2293
15601SOL    HW147616   3.878   4.414   0.395 -1.1314  0.4786 -0.2411
15601SOL    HW247617   3.923   4.526   0.486 -0.4146  0.6830 -0.8442
15602SOL     OW47618   7.203   5.966   4.481  0.5622 -0.0103  0.0985
15602SOL    HW147619   7.235   5.897   4.539 -0.5689 -0.3558  0.3225
15602SOL    HW247620   7.211   5.929   4.393  3.0971  0.8381 -0.0691
15603SOL     OW47621   5.613   6.803   0.385 -0.6262  0.1259 -0.0967
15603SOL    HW147622   5.545   6.850   0.337 -1.3795 -0.1850  0.6681
15603SOL    HW247623   5.580   6.714   0.394 -0.4911  0.1763  0.9994
15604SOL     OW47624   4.377   7.900   3.904 -0.2631 -0.6617 -0.3978
15604SOL    HW147625   4.370   7.913   3.809 -0.4878  2.5579  0.0002
15604SOL    HW247626   4.438   7.969   3.933 -2.5511  0.3742  2.1856
15605SOL     OW47627   5.650   3.983   6.391  0.0789  0.4420 -0.2941
15605SOL    HW147628   5.589   3.917   6.358 -0.0160  0.1542  0.4417
15605SOL    HW247629   5.683   3.946   6.473  0.4005  1.0866 -0.1305
15606SOL     OW47630   1.562   4.730   0.258 -0.3508  0.5968  0.2700
15606SOL    HW147631   1.585   4.803   0.315  0.9817 -0.4842  1.1785
15606SOL    HW247632   1.640   4.674   0.259 -0.3026  0.5508 -2.6405
15607SOL     OW47633   6.892   1.346   5.653  0.1968  0.3089 -0.3120
15607SOL    HW147634   6.962   1.400   5.690 -0.2758  0.0535  1.0038
15607SOL    HW247635   6.812   1.380   5.694 -0.4930  0.7981 -2.0269
15608SOL     OW47636   1.183   3.797   4.629 -0.5011  0.0909  0.1261
15608SOL    HW147637   1.268   3.815   4.590 -1.2485  1.1937 -1.0390
15608SOL    HW247638   1.165   3.874   4.684 -0.8763  0.0088  0.1219
15609SOL     OW47639   7.413   4.860   3.371 -0.9850 -0.1371  0.0795
15609SOL    HW147640   7.505   4.849   3.393 -1.1731  0.6259  1.3106
15609SOL    HW247641   7.366   4.834   3.450 -1.8269 -0.4857 -0.5240
15610SOL     OW47642   3.414   4.878   4.047  0.2544  0.2883 -0.1309
15610SOL    HW147643   3.425   4.953   4.106 -0.7332  0.5458 -0.2612
15610SOL    HW247644   3.403   4.918   3.960  1.0404 -0.0584 -0.3870
15611SOL     OW47645   0.109   2.548   5.119  0.3867 -0.5415 -0.1659
15611SOL    HW147646   0.170   2.490   5.073  1.5942  0.2029  0.4566
15611SOL    HW247647   0.081   2.611   5.051  0.5611 -0.6940 -0.3806
15612SOL     OW47648   3.294   0.978   7.789 -0.7863  0.1960  0.4283
15612SOL    HW147649   3.376   0.956   7.745 -0.5700 -0.8549  1.3429
15612SOL    HW247650   3.310   1.064   7.828  0.3394 -0.5929  1.7251
15613SOL     OW47651   3.800   3.570   6.131 -0.1236  0.6467  0.0389
15613SOL    HW147652   3.808   3.635   6.200 -0.0469  0.7106 -0.0301
15613SOL    HW247653   3.732   3.605   6.074  0.6134  1.1579 -0.5394
15614SOL     OW47654   0.528   3.934   7.399  0.0797  0.3530  0.6183
15614SOL    HW147655   0.532   4.007   7.337 -0.3551 -0.8684 -0.8994
15614SOL    HW247656   0.442   3.895   7.383  1.1500 -1.7925 -0.1415
15615SOL     OW47657   6.858   3.415   4.817 -0.2747 -0.1433 -0.2251
15615SOL    HW147658   6.904   3.352   4.873  2.8358  0.0643 -2.4449
15615SOL    HW247659   6.851   3.494   4.871  1.6837 -0.2965  0.2893
15616SOL     OW47660   6.991   0.121   7.740 -0.6009  0.5888  0.2924
15616SOL    HW147661   7.044   0.062   7.793 -0.0880  0.4553 -0.3594
15616SOL    HW247662   7.019   0.209   7.767  1.0411  0.5214 -1.1032
15617SOL     OW47663   5.794   4.759   0.767 -0.3741 -0.0742  0.4065
15617SOL    HW147664   5.808   4.734   0.675  2.4246  0.1544  0.7169
15617SOL    HW247665   5.749   4.684   0.805  2.5184 -2.1798 -0.1261
15618SOL     OW47666   3.755   5.417   5.830  0.6431 -0.3413 -0.5992
15618SOL    HW147667   3.740   5.338   5.882 -0.7202 -0.3454 -0.9907
15618SOL    HW247668   3.824   5.463   5.878  1.7067 -1.9231 -0.5625
15619SOL     OW47669   1.760   0.280   3.803 -0.7034  0.5386  0.0825
15619SOL    HW147670   1.680   0.318   3.841 -2.4388  1.0136 -3.8358
15619SOL    HW247671   1.750   0.186   3.816 -1.4755  0.6600  0.3898
15620SOL     OW47672   3.338   2.396   1.946  0.1013  0.1899  0.1141
15620SOL    HW147673   3.400   2.460   1.982 -1.4277  1.2982  0.7917
15620SOL    HW247674   3.285   2.369   2.021 -0.5128 -0.4596 -0.5486
15621SOL     OW47675   5.349   1.342   2.596  0.4715  0.1718 -0.0728
15621SOL    HW147676   5.296   1.372   2.670  0.3472 -0.6297  0.1609
15621SOL    HW247677   5.288   1.338   2.523  0.4795  0.4321 -0.0968
15622SOL     OW47678   5.870   2.762   2.979  0.3061 -0.4852  0.0684
15622SOL    HW147679   5.891   2.781   3.070  0.9796 -0.8191 -0.0141
15622SOL    HW247680   5.807   2.830   2.954 -2.8141 -2.5217  1.9039
15623SOL     OW47681   1.610   7.069   1.887 -0.9233 -0.1219  0.6378
15623SOL    HW147682   1.632   7.138   1.949 -0.8725 -0.0305  0.5176
15623SOL    HW247683   1.665   6.995   1.912  1.4258  0.9485 -1.2965
15624SOL     OW47684   1.038   3.446   6.754  0.3507  0.5210  0.5228
15624SOL    HW147685   1.049   3.478   6.844 -0.6759  0.5771  0.6259
15624SOL    HW247686   1.072   3.516   6.699 -0.6292  1.2136  0.8005
15625SOL     OW47687   7.055   4.264   1.249  0.5100 -0.7496  0.4016
15625SOL    HW147688   7.150   4.263   1.256  0.5308  0.9127  0.5767
15625SOL    HW247689   7.031   4.172   1.238  2.0757 -1.2633  1.0958
15626SOL     OW47690   6.726   7.104   3.360 -0.1954 -0.0979 -0.2126
15626SOL    HW147691   6.759   7.067   3.278  1.6282  0.4719  0.2451
15626SOL    HW247692   6.750   7.197   3.355  1.4760 -0.3951  1.7059
15627SOL     OW47693   5.277   7.428   3.065 -0.3447 -0.6039  0.1643
15627SOL    HW147694   5.269   7.333   3.074  0.7252 -0.5470  1.9455
15627SOL    HW247695   5.366   7.442   3.034  0.7821 -0.0182  3.5054
15628SOL     OW47696   0.758   2.000   6.244 -0.3756  0.3309  0.2588
15628SOL    HW147697   0.708   2.051   6.308  0.1418  0.8053  0.2829
15628SOL    HW247698   0.846   2.036   6.247 -0.1672 -0.1285 -0.2014
15629SOL     OW47699   5.470   3.509   2.156 -1.0114 -0.2683  0.1734
15629SOL    HW147700   5.427   3.479   2.236 -2.3303  1.5294  0.1610
15629SOL    HW247701   5.560   3.529   2.183 -1.5072  0.5473  1.2790
15630SOL     OW47702   0.707   3.937   6.450  0.4573 -0.6596 -0.2764
15630SOL    HW147703   0.743   3.892   6.374  1.3576  0.9309 -0.8134
15630SOL    HW247704   0.621   3.967   6.421  0.2509 -1.2008 -0.2282
15631SOL     OW47705   6.105   6.275   7.229 -0.2831 -0.1503 -0.1919
15631SOL    HW147706   6.118   6.267   7.324  2.1958  1.9164 -0.3027
15631SOL    HW247707   6.115   6.186   7.196  0.8041 -0.5971  1.2822
15632SOL     OW47708   5.719   5.141   6.768  0.1841 -0.0626  0.1690
15632SOL    HW147709   5.754   5.090   6.841  0.5930  0.0358  0.0412
15632SOL    HW247710   5.650   5.195   6.808  0.4666  0.0572  0.4958
15633SOL     OW47711   2.972   4.650   7.553 -0.1627  0.4233  0.1085
15633SOL    HW147712   2.931   4.689   7.476 -1.8238  0.6481  1.0865
15633SOL    HW247713   2.902   4.647   7.618  0.8779 -0.9611  1.1881
15634SOL     OW47714   1.963   6.130   2.365  0.3396  0.2106  0.3440
15634SOL    HW147715   1.981   6.048   2.411 -2.8298 -0.8405 -0.1237
15634SOL    HW247716   2.002   6.120   2.279 -0.7378 -1.1587  0.0107
15635SOL     OW47717   3.202   1.861   6.525  0.3974  0.2668  0.1055
15635SOL    HW147718   3.133   1.849   6.460 -1.0903  0.8757  1.5274
15635SOL    HW247719   3.208   1.956   6.537  0.5878  0.1543  0.9297
15636SOL     OW47720   6.165   4.211   7.433 -0.3618  0.0642 -0.1654
15636SOL    HW147721   6.137   4.148   7.367  1.1686 -1.5865  0.7234
15636SOL    HW247722   6.086   4.229   7.484 -0.3002 -3.2183  1.2434
15637SOL     OW47723   6.355   1.546   0.552 -0.1390  0.3741 -0.1240
15637SOL    HW147724   6.307   1.483   0.497 -1.4066 -0.0599  1.4288
15637SOL    HW247725   6.327   1.525   0.641  0.6166  2.1500  0.5408
15638SOL     OW47726   1.223   6.489   2.381  0.2189 -0.5119  0.5452
15638SOL    HW147727   1.237   6.405   2.425 -0.2917  0.2990  2.2623
15638SOL    HW247728   1.167   6.538   2.440 -2.0415 -0.1011 -1.8390
15639SOL     OW47729   2.503   5.364   2.293 -0.0298 -0.7700 -0.3250
15639SOL    HW147730   2.471   5.394   2.208 -0.6271  0.8956  0.4774
15639SOL    HW247731   2.456   5.282   2.308  0.5364 -1.4008 -1.8638
15640SOL     OW47732   6.722   6.178   6.231  0.2944 -0.5839 -0.4837
15640SOL    HW147733   6.635   6.186   6.193  1.3038 -1.4191 -3.0246
15640SOL    HW247734   6.712   6.113   6.300 -1.0714 -0.6835 -0.7592
15641SOL     OW47735   1.053   7.732   4.690 -0.0003 -0.6254 -0.4625
15641SOL    HW147736   1.131   7.684   4.719  0.3687 -0.7649 -1.6549
15641SOL    HW247737   0.980   7.676   4.717  0.4791 -2.6527 -3.1954
15642SOL     OW47738   7.589   0.273   1.648 -0.0556  0.1365 -0.2721
15642SOL    HW147739   7.661   0.320   1.690  0.4990 -0.8336 -0.1085
15642SOL    HW247740   7.603   0.286   1.555 -0.0445  0.5088 -0.2163
15643SOL     OW47741   4.977   0.403   5.741 -0.0708  0.2461  0.0465
15643SOL    HW147742   4.914   0.332   5.753 -0.7784  0.6917 -0.9520
15643SOL    HW247743   5.062   0.362   5.758 -0.5652 -0.5549  0.6257
15644SOL     OW47744   2.091   6.005   0.788  0.5152 -0.6472 -0.2796
15644SOL    HW147745   2.067   6.097   0.797  1.0817 -0.3344 -1.7139
15644SOL    HW247746   2.173   6.007   0.739 -0.0024 -1.9357 -1.2373
15645SOL     OW47747   5.092   4.008   4.021  0.3883  0.2626  0.4790
15645SOL    HW147748   5.053   4.086   4.061 -0.4538 -0.2660  0.7003
15645SOL    HW247749   5.038   3.991   3.944 -0.3738 -0.9739  1.2606
15646SOL     OW47750   0.611   7.262   2.673 -0.4318  0.2874  0.3698
15646SOL    HW147751   0.569   7.225   2.595  1.3968  0.5714 -0.7631
15646SOL    HW247752   0.646   7.186   2.719 -0.4604  0.2357  0.3068
15647SOL     OW47753   5.945   6.236   5.680 -0.5213  0.9551  0.2844
15647SOL    HW147754   5.956   6.312   5.623 -0.9193  0.9148  0.1471
15647SOL    HW247755   5.974   6.162   5.627 -0.5768  0.9570  0.2504
15648SOL     OW47756   1.114   1.060   5.512 -0.0746  0.2773  1.1901
15648SOL    HW147757   1.096   1.142   5.465 -0.0189 -0.3812  0.0036
15648SOL    HW247758   1.105   1.083   5.604 -0.5718  1.5022  0.8459
15649SOL     OW47759   5.566   4.306   1.924  0.3446  0.4299 -0.4133
15649SOL    HW147760   5.637   4.370   1.925  0.3382  0.4416 -1.0364
15649SOL    HW247761   5.497   4.346   1.977  1.2369 -0.0807  1.1877
15650SOL     OW47762   3.660   3.744   7.737  0.4988 -0.5467  0.1778
15650SOL    HW147763   3.603   3.781   7.805  0.6713 -0.4427  0.2686
15650SOL    HW247764   3.705   3.672   7.781  0.5548 -0.5273  0.1520
15651SOL     OW47765   7.252   4.348   1.583  0.4683 -0.5617 -0.0692
15651SOL    HW147766   7.346   4.342   1.563  0.6190 -1.7324  0.9589
15651SOL    HW247767   7.247   4.333   1.677 -0.7973 -0.8228 -0.1724
15652SOL     OW47768   0.535   2.033   4.581 -0.1464 -0.2364 -0.0627
15652SOL    HW147769   0.599   1.980   4.630 -0.6783 -1.0113 -0.1934
15652SOL    HW247770   0.585   2.069   4.508 -0.1109 -1.7430 -0.7922
15653SOL     OW47771   2.339   4.431   6.544 -0.1078 -0.0334 -0.2223
15653SOL    HW147772   2.422   4.471   6.572  0.0173  0.0334 -0.6877
15653SOL    HW247773   2.320   4.472   6.460  0.1550 -1.1341 -0.8267
15654SOL     OW47774   6.419   2.458   6.478 -0.1416  0.2766  0.3848
15654SOL    HW147775   6.342   2.508   6.450 -0.2461  0.1508  0.4433
15654SOL    HW247776   6.398   2.429   6.567  1.5910  3.5234  1.9210
15655SOL     OW47777   1.741   7.199   0.851  0.1679  0.7323  0.0396
15655SOL    HW147778   1.804   7.270   0.836 -0.2163  0.7931 -1.3589
15655SOL    HW247779   1.736   7.153   0.768  1.2657 -1.6719  1.2572
15656SOL     OW47780   2.921   3.988   5.104  0.0926  1.1165 -0.3610
15656SOL    HW147781   2.840   4.038   5.113 -0.4203 -0.0316  2.0809
15656SOL    HW247782   2.895   3.898   5.124  1.4937  0.3033 -2.0869
15657SOL     OW47783   6.980   1.674   4.203  0.0294 -0.2171  0.4361
15657SOL    HW147784   6.923   1.651   4.276 -0.7270  0.7662  0.1716
15657SOL    HW247785   7.039   1.599   4.194 -0.2342 -0.5859  1.6857
15658SOL     OW47786   7.853   0.145   1.753 -0.3776 -0.4300 -0.2310
15658SOL    HW147787   7.906   0.110   1.825  0.0985  0.6368 -0.0359
15658SOL    HW247788   7.763   0.119   1.774 -0.3447  0.5056  1.1671
15659SOL     OW47789   6.901   6.616   7.985 -0.0420 -0.5158  0.0991
15659SOL    HW147790   6.945   6.531   7.992  1.1807 -0.1113 -2.1920
15659SOL    HW247791   6.971   6.677   7.964 -0.8071  1.2203  2.4207
15660SOL     OW47792   0.975   1.596   5.614 -0.2537  0.0339  0.5079
15660SOL    HW147793   1.015   1.514   5.639  0.6571  0.5133  0.6342
15660SOL    HW247794   0.888   1.572   5.582 -0.3008 -0.8805  1.3195
15661SOL     OW47795   1.155   2.111   4.176 -0.0708 -0.1435 -0.0405
15661SOL    HW147796   1.077   2.085   4.224 -1.0436  2.8984  0.1382
15661SOL    HW247797   1.222   2.121   4.244 -0.6600  1.2682  0.3560
15662SOL     OW47798   2.719   4.287   4.739  0.0330  0.2320 -0.1942
15662SOL    HW147799   2.626   4.311   4.745  0.4420  1.7496  0.1730
15662SOL    HW247800   2.719   4.203   4.693 -1.4838  0.5575 -0.8088
15663SOL     OW47801   3.256   1.926   0.742  0.2080  0.7558 -0.0880
15663SOL    HW147802   3.166   1.927   0.711  0.5928 -0.4765 -1.2814
15663SOL    HW247803   3.298   2.001   0.700 -0.0399  0.8291 -0.2014
15664SOL     OW47804   1.477   0.066   2.377  0.0616 -0.1705  0.3746
15664SOL    HW147805   1.416   0.004   2.338  0.1883 -0.3616  0.4777
15664SOL    HW247806   1.426   0.110   2.445 -0.1115  0.0476  0.1031
15665SOL     OW47807   0.798   3.388   6.542  0.5012 -0.3210 -0.2235
15665SOL    HW147808   0.779   3.339   6.622 -0.4698 -1.5891 -1.2204
15665SOL    HW247809   0.722   3.372   6.486  0.6247  1.5310 -0.9495
15666SOL     OW47810   4.795   0.852   4.275  0.6469 -0.0787 -0.4460
15666SOL    HW147811   4.810   0.936   4.233 -0.4555 -0.2068 -1.1185
15666SOL    HW247812   4.776   0.873   4.367  0.7064  0.3813 -0.5418
15667SOL     OW47813   7.489   1.554   0.625 -0.2165 -0.3468 -0.0170
15667SOL    HW147814   7.503   1.646   0.650  0.1681  0.1021 -1.8325
15667SOL    HW247815   7.551   1.538   0.555  1.0575 -2.5957  1.5490
15668SOL     OW47816   3.593   1.806   4.920 -0.0092  0.1862 -0.2530
15668SOL    HW147817   3.594   1.712   4.940 -0.7644  0.5702  1.7566
15668SOL    HW247818   3.602   1.849   5.006 -2.1993  1.9539 -0.8501
15669SOL     OW47819   3.691   6.905   6.087  0.3349 -0.5962  0.1930
15669SOL    HW147820   3.771   6.925   6.039 -0.2258 -0.4646 -0.6885
15669SOL    HW247821   3.713   6.921   6.179  0.6188  1.7210 -0.2558
15670SOL     OW47822   3.407   2.230   4.647 -0.0927  0.3321  0.4324
15670SOL    HW147823   3.439   2.162   4.588 -1.0487  1.2771 -1.2408
15670SOL    HW247824   3.480   2.293   4.652 -0.0305  0.2836  0.1802
15671SOL     OW47825   4.195   5.820   5.520 -0.5456 -0.0501 -0.4597
15671SOL    HW147826   4.145   5.773   5.453  2.0362 -2.3202 -0.8450
15671SOL    HW247827   4.256   5.875   5.470  0.0598 -0.2777  0.0340
15672SOL     OW47828   5.771   5.687   0.357 -0.4410  0.2797  0.2060
15672SOL    HW147829   5.847   5.630   0.363 -0.5111  0.2420  0.7369
15672SOL    HW247830   5.778   5.727   0.270 -0.4444 -0.6009 -0.2010
15673SOL     OW47831   6.970   4.366   3.576  0.0508 -0.1262  0.8159
15673SOL    HW147832   6.941   4.279   3.551  0.3969 -0.5037  1.6989
15673SOL    HW247833   6.914   4.426   3.526  0.4073 -0.8471 -0.4724
15674SOL     OW47834   3.917   6.336   4.867 -0.0482  0.1121 -0.1585
15674SOL    HW147835   3.993   6.332   4.925  0.0530  0.0257 -0.2945
15674SOL    HW247836   3.939   6.277   4.795 -0.6785 -0.7040  0.3089
15675SOL     OW47837   4.227   3.026   7.318 -0.2598  0.4370  0.0053
15675SOL    HW147838   4.278   2.972   7.379 -0.1147  1.5573  0.8945
15675SOL    HW247839   4.220   2.972   7.239 -1.0539 -1.3393  1.2486
15676SOL     OW47840   4.257   4.605   1.614 -0.3820  0.3418 -0.0623
15676SOL    HW147841   4.247   4.650   1.530 -2.0736 -0.0529 -0.0873
15676SOL    HW247842   4.323   4.538   1.598  0.3168  1.1732 -0.6955
15677SOL     OW47843   6.777   2.295   5.349  0.5360  0.0068  0.0098
15677SOL    HW147844   6.696   2.257   5.316  0.5005 -1.2855  1.5021
15677SOL    HW247845   6.796   2.368   5.290 -2.1706  0.8682  0.1312
15678SOL     OW47846   1.955   2.156   4.694 -0.3589  0.1338 -0.1525
15678SOL    HW147847   1.907   2.090   4.643 -0.4115 -0.0684  0.1562
15678SOL    HW247848   2.023   2.106   4.739  0.4011  0.4838 -0.9107
15679SOL     OW47849   5.551   0.270   4.158  0.0979 -0.1348 -0.0986
15679SOL    HW147850   5.627   0.303   4.206  1.0976  1.3661 -2.6455
15679SOL    HW247851   5.588   0.208   4.095 -1.0256 -0.8981 -0.0205
15680SOL     OW47852   7.169   7.938   6.466 -0.9268  0.2410  0.5759
15680SOL    HW147853   7.199   8.008   6.408 -0.6994  0.5662  1.0854
15680SOL    HW247854   7.115   7.882   6.410  0.4217 -0.2111 -0.2909
15681SOL     OW47855   3.385   5.385   1.974 -0.6237 -0.4633  0.4581
15681SOL    HW147856   3.401   5.327   2.048  1.0501 -0.7968 -0.1406
15681SOL    HW247857   3.470   5.392   1.930 -1.0402  1.6159 -0.0743
15682SOL     OW47858   4.463   7.208   5.742  0.7075 -0.2192  0.2726
15682SOL    HW147859   4.440   7.292   5.782 -0.4075  0.5690 -1.9452
15682SOL    HW247860   4.392   7.149   5.768 -1.0357  0.7835 -1.9988
15683SOL     OW47861   2.386   2.398   5.147 -0.0757 -0.1521  0.1825
15683SOL    HW147862   2.433   2.472   5.110  1.6680 -0.7976  1.0390
15683SOL    HW247863   2.300   2.401   5.106 -0.1394  2.4996  0.3932
15684SOL     OW47864   3.129   1.520   7.610 -0.6526  0.2215  0.5664
15684SOL    HW147865   3.118   1.595   7.551  1.7919  0.5570  0.4775
15684SOL    HW247866   3.143   1.560   7.696  1.2986 -0.0822  0.4129
15685SOL     OW47867   7.640   1.735   6.712  0.0823 -0.6627  0.4906
15685SOL    HW147868   7.615   1.708   6.801  0.0936 -0.3009  0.6060
15685SOL    HW247869   7.628   1.830   6.712 -2.1540 -0.9259 -0.6152
15686SOL     OW47870   6.009   6.099   6.723 -0.4262  0.3999 -0.1737
15686SOL    HW147871   6.033   6.188   6.750  0.2738 -0.4920  2.2928
15686SOL    HW247872   6.090   6.048   6.734 -1.6059 -1.1896  1.5113
15687SOL     OW47873   7.441   7.241   5.993  0.0752 -0.0462  0.4059
15687SOL    HW147874   7.494   7.312   6.029 -0.3188  0.5056 -0.1074
15687SOL    HW247875   7.444   7.254   5.898  0.4095 -1.0035  0.2705
15688SOL     OW47876   4.591   6.494   3.945 -0.9963  0.4377 -0.0065
15688SOL    HW147877   4.636   6.429   3.890 -1.2884  0.3050 -0.0862
15688SOL    HW247878   4.534   6.443   4.002  0.2200  0.4796  1.2834
15689SOL     OW47879   4.894   7.717   7.181 -0.3557  0.3806 -0.1060
15689SOL    HW147880   4.943   7.734   7.100  0.7753 -2.2022  0.0066
15689SOL    HW247881   4.943   7.765   7.248  0.3902  0.1442 -0.4704
15690SOL     OW47882   6.932   5.178   6.618  0.1207 -0.5526  1.1152
15690SOL    HW147883   6.954   5.269   6.638  1.6343 -0.9276  1.2202
15690SOL    HW247884   6.837   5.174   6.628 -0.0557  1.1918  0.3565
15691SOL     OW47885   1.861   2.442   5.691 -0.2561 -0.1420 -0.1275
15691SOL    HW147886   1.883   2.535   5.695 -0.7834 -0.0681  1.5788
15691SOL    HW247887   1.939   2.400   5.654 -0.1492  1.0174 -1.2258
15692SOL     OW47888   0.499   5.409   7.997  0.2936 -0.0848 -0.1848
15692SOL    HW147889   0.455   5.469   7.937 -2.0409 -1.1975  0.3683
15692SOL    HW247890   0.557   5.358   7.940 -0.4780  0.1616 -1.2091
15693SOL     OW47891   7.208   4.446   5.881 -0.1897  0.9155  0.0891
15693SOL    HW147892   7.270   4.514   5.855 -0.9770  1.7806  0.4237
15693SOL    HW247893   7.262   4.373   5.909  0.6730  1.3426 -0.4308
15694SOL     OW47894   7.269   2.734   3.720 -0.6054 -0.7049  0.3572
15694SOL    HW147895   7.204   2.686   3.669  0.1392 -0.6240 -0.6689
15694SOL    HW247896   7.224   2.816   3.744 -0.2820  0.1794 -1.9267
15695SOL     OW47897   1.199   7.760   3.702  0.0765  0.6616  0.3652
15695SOL    HW147898   1.206   7.809   3.784  0.9433  0.1305  0.6081
15695SOL    HW247899   1.105   7.753   3.687 -0.0648  3.4860 -0.3260
15696SOL     OW47900   1.755   0.844   1.971 -0.1973  0.3964  0.1178
15696SOL    HW147901   1.775   0.751   1.974 -0.7232  0.2824  0.2431
15696SOL    HW247902   1.811   0.879   1.902 -1.5984 -0.4221 -1.4915
15697SOL     OW47903   5.535   0.082   3.843 -0.1639  0.3390 -1.0503
15697SOL    HW147904   5.572   0.126   3.767  1.0124  0.2615 -0.5243
15697SOL    HW247905   5.441   0.103   3.839  0.0284  1.0455 -2.0349
15698SOL     OW47906   4.428   2.892   5.844 -0.2477  0.0799  0.4394
15698SOL    HW147907   4.416   2.974   5.891  0.4948  1.0517 -1.0043
15698SOL    HW247908   4.521   2.873   5.851 -0.3030 -0.2983  0.2027
15699SOL     OW47909   5.926   7.753   0.180 -0.0728 -0.2759 -0.2084
15699SOL    HW147910   5.880   7.798   0.250  1.0877 -0.5147  0.7177
15699SOL    HW247911   5.903   7.661   0.192 -0.5934 -0.2155 -0.7011
15700SOL     OW47912   7.786   0.210   5.896 -0.8115 -0.0736  0.3236
15700SOL    HW147913   7.694   0.218   5.871 -1.4379 -4.1645  0.9714
15700SOL    HW247914   7.825   0.295   5.873 -4.4360  1.2715 -1.1541
15701SOL     OW47915   7.574   2.843   6.807 -0.0920  0.2411  0.2799
15701SOL    HW147916   7.619   2.764   6.837  0.7881  1.1475  1.4150
15701SOL    HW247917   7.501   2.811   6.754  0.5717 -1.3108  0.2815
15702SOL     OW47918   3.181   4.484   7.516 -0.1033 -0.1160 -0.5729
15702SOL    HW147919   3.099   4.533   7.518 -0.5131 -0.6806 -2.3357
15702SOL    HW247920   3.209   4.478   7.607 -1.8491  0.3787 -0.0029
15703SOL     OW47921   2.504   5.731   7.817  0.1310 -0.0662  0.2200
15703SOL    HW147922   2.484   5.637   7.814  1.9027 -0.4202 -1.0007
15703SOL    HW247923   2.464   5.761   7.899 -0.5956 -1.8366  0.5475
15704SOL     OW47924   6.607   0.870   1.499 -0.0238 -0.4999 -0.4659
15704SOL    HW147925   6.594   0.962   1.477  0.6448 -0.5086 -0.9441
15704SOL    HW247926   6.675   0.871   1.567 -1.2368 -0.5456  0.7581
15705SOL     OW47927   7.975   6.509   5.073  0.1498  0.1464 -0.1392
15705SOL    HW147928   7.899   6.552   5.035  1.3724  2.1214 -0.4406
15705SOL    HW247929   8.022   6.579   5.118  1.2037 -1.2570  0.9856
15706SOL     OW47930   7.075   1.912   0.003  0.5218  0.1910  0.2983
15706SOL    HW147931   7.124   1.830   0.000 -0.6344 -0.5432  1.2747
15706SOL    HW247932   7.088   1.944   0.093  0.1563  0.5764  0.2135
15707SOL     OW47933   7.018   5.964   6.444 -0.2402  0.4851 -0.6776
15707SOL    HW147934   6.952   5.906   6.406  1.2346 -1.7373  0.0105
15707SOL    HW247935   7.014   5.946   6.538  1.7380 -0.1914 -0.6813
15708SOL     OW47936   3.972   7.897   7.663 -0.1852  0.7641  0.2756
15708SOL    HW147937   4.051   7.934   7.703  0.8005  0.3751 -1.2496
15708SOL    HW247938   4.005   7.848   7.587 -1.9446  1.0236 -0.6777
15709SOL     OW47939   1.140   0.836   5.343  0.0275  0.4265  0.3611
15709SOL    HW147940   1.110   0.907   5.399 -1.0618 -0.4290  0.8685
15709SOL    HW247941   1.183   0.775   5.403  2.8550  1.6504 -0.3570
15710SOL     OW47942   3.384   7.104   5.940 -0.4751  0.2770 -0.3033
15710SOL    HW147943   3.435   7.174   5.982 -0.1069 -0.7121  0.9502
15710SOL    HW247944   3.390   7.123   5.847 -0.1560  1.7696  0.0059
15711SOL     OW47945   4.693   3.898   2.955  0.0401  0.3792  0.0403
15711SOL    HW147946   4.678   3.864   2.867 -0.9575  0.0020  0.3519
15711SOL    HW247947   4.736   3.826   3.002  1.0049  0.7442 -0.2623
15712SOL     OW47948   7.189   1.632   7.913  0.3243 -0.0810 -0.1135
15712SOL    HW147949   7.177   1.557   7.855 -2.0983  1.0179 -1.1270
15712SOL    HW247950   7.182   1.596   8.001 -2.2700 -0.8599 -0.6049
15713SOL     OW47951   3.210   3.103   1.518 -0.0999 -0.2335 -0.3800
15713SOL    HW147952   3.265   3.108   1.441  0.3607  2.1874  0.0680
15713SOL    HW247953   3.132   3.153   1.495  0.7780  1.9776  1.2859
15714SOL     OW47954   5.694   4.776   1.841  0.2293 -0.1702  0.1116
15714SOL    HW147955   5.741   4.849   1.800  2.5728 -0.4133  2.1971
15714SOL    HW247956   5.645   4.816   1.912  0.4087 -0.4417  0.3892
15715SOL     OW47957   0.156   6.379   0.519 -0.4423  0.4935  0.0016
15715SOL    HW147958   0.122   6.400   0.606 -2.0775 -1.3600 -0.1607
15715SOL    HW247959   0.237   6.332   0.536 -1.0746 -0.4172  0.5620
15716SOL     OW47960   6.172   1.408   5.318  0.1053 -0.0762 -0.0617
15716SOL    HW147961   6.147   1.315   5.324  1.5223 -0.3736  1.7337
15716SOL    HW247962   6.267   1.406   5.313  0.1281  1.2954 -0.2093
15717SOL     OW47963   2.538   0.821   5.084  0.2367  0.0401 -0.0537
15717SOL    HW147964   2.522   0.894   5.024  0.0709  0.1584  0.1362
15717SOL    HW247965   2.625   0.838   5.120  0.0809  0.2904  0.2020
15718SOL     OW47966   4.545   2.368   3.008 -0.0798  0.0059 -0.5369
15718SOL    HW147967   4.544   2.410   3.094 -0.8042  2.0741 -1.4923
15718SOL    HW247968   4.481   2.297   3.015 -0.9831  0.8832  0.3036
15719SOL     OW47969   3.277   0.463   4.358 -0.0018 -0.0975 -0.4222
15719SOL    HW147970   3.336   0.389   4.367 -0.9484 -0.9403 -1.0379
15719SOL    HW247971   3.295   0.498   4.271 -0.9891 -0.8782 -0.9495
15720SOL     OW47972   5.398   6.066   5.456 -0.1544 -0.7929  0.0297
15720SOL    HW147973   5.332   5.999   5.444 -0.9191 -0.5965  2.8562
15720SOL    HW247974   5.365   6.121   5.527  2.4953 -0.0242  0.7438
15721SOL     OW47975   6.004   6.433   7.479 -0.1453  0.1048 -0.2767
15721SOL    HW147976   5.926   6.408   7.528 -0.7939 -0.0940 -1.3943
15721SOL    HW247977   5.972   6.450   7.390  0.8872  1.2171 -0.4488
15722SOL     OW47978   1.307   7.667   2.720  0.2030 -0.4395 -0.3398
15722SOL    HW147979   1.258   7.591   2.752  1.2226 -1.0675 -0.2651
15722SOL    HW247980   1.338   7.642   2.633 -0.9832  0.5775 -1.0784
15723SOL     OW47981   5.018   5.194   5.146  0.3672 -0.1039  0.0055
15723SOL    HW147982   5.076   5.188   5.222  0.4128  2.4504  0.2150
15723SOL    HW247983   4.996   5.287   5.139 -1.1861 -0.5645 -1.9657
15724SOL     OW47984   5.136   7.568   0.524  0.0088 -0.1498 -0.2171
15724SOL    HW147985   5.064   7.547   0.464 -0.7493  1.7372 -0.0018
15724SOL    HW247986   5.178   7.484   0.542 -0.2073 -0.8728 -2.8137
15725SOL     OW47987   0.259   2.382   5.449  0.4421 -0.4815 -0.2565
15725SOL    HW147988   0.208   2.334   5.383 -1.6869 -0.5544  1.3889
15725SOL    HW247989   0.336   2.327   5.463  0.2128 -1.1862 -1.6291
15726SOL     OW47990   2.853   3.943   4.206 -0.1816 -0.3351 -0.0646
15726SOL    HW147991   2.780   3.988   4.163 -0.4048 -0.6469 -0.0060
15726SOL    HW247992   2.828   3.851   4.209  0.3566 -0.4956 -0.3389
15727SOL     OW47993   7.766   1.780   3.480  0.0262  0.2337  0.9193
15727SOL    HW147994   7.713   1.855   3.506 -1.3089  0.1580 -1.4253
15727SOL    HW247995   7.841   1.818   3.434  0.7054  0.2294  2.0109
15728SOL     OW47996   5.154   2.490   7.763 -0.6003 -0.2461  0.5272
15728SOL    HW147997   5.135   2.414   7.817  1.0877 -0.4474  0.8445
15728SOL    HW247998   5.086   2.553   7.786 -0.9206 -0.9766  1.5922
15729SOL     OW47999   2.143   4.932   0.095 -0.1549 -0.4091 -0.1437
15729SOL    HW148000   2.168   4.976   0.014  0.2637 -1.3394 -0.5345
15729SOL    HW248001   2.083   4.863   0.067  0.5314 -1.1842  0.2468
15730SOL     OW48002   2.742   6.368   3.170  0.3082 -0.0974  0.0038
15730SOL    HW148003   2.743   6.289   3.224  3.1089  0.4441  0.8633
15730SOL    HW248004   2.759   6.337   3.082 -0.9958 -0.6694 -0.0566
15731SOL     OW48005   2.395   3.832   3.159 -0.7420  0.1303  0.0504
15731SOL    HW148006   2.370   3.758   3.214  1.0708 -0.7341 -0.2727
15731SOL    HW248007   2.444   3.890   3.217 -1.7860  0.8839  0.1927
15732SOL     OW48008   7.849   3.200   7.924 -0.0406 -0.1383  0.9567
15732SOL    HW148009   7.793   3.269   7.889 -0.7217  0.3157  2.8447
15732SOL    HW248010   7.854   3.219   8.018 -0.6770 -2.9741  1.6092
15733SOL     OW48011   6.609   7.569   5.621 -0.0499  0.1196  0.0608
15733SOL    HW148012   6.586   7.660   5.635  1.3361  0.3586  0.8800
15733SOL    HW248013   6.694   7.572   5.577  1.1598 -0.7965  2.3022
15734SOL     OW48014   5.881   5.974   6.949  0.0024 -0.1446 -0.4024
15734SOL    HW148015   5.972   5.959   6.973  0.0298  0.3987 -0.1450
15734SOL    HW248016   5.885   6.028   6.870 -0.0934 -0.0892 -0.3702
15735SOL     OW48017   7.704   5.116   6.281  0.1069  0.4056  0.1340
15735SOL    HW148018   7.677   5.185   6.343  1.6206  0.2818  0.9566
15735SOL    HW248019   7.753   5.054   6.335  1.5463  0.3526 -1.2182
15736SOL     OW48020   0.150   5.982   6.078 -0.0696  0.6723  0.0175
15736SOL    HW148021   0.125   5.894   6.108  0.2231  0.1249 -1.2852
15736SOL    HW248022   0.239   5.993   6.109  0.5875 -0.2915 -1.4540
15737SOL     OW48023   1.942   2.421   6.072  0.1451  0.4188  0.5792
15737SOL    HW148024   1.887   2.343   6.074 -0.9373  1.1585 -0.1842
15737SOL    HW248025   1.884   2.492   6.047  1.7393  0.9550 -1.7882
15738SOL     OW48026   1.224   4.043   4.400  0.3567  0.3244 -0.0174
15738SOL    HW148027   1.282   4.044   4.476  0.1729  1.2896  0.1138
15738SOL    HW248028   1.202   3.951   4.389 -1.4949  0.3825  2.5777
15739SOL     OW48029   3.997   2.248   1.127 -0.3985 -0.1460 -0.5946
15739SOL    HW148030   4.046   2.329   1.145  0.2506 -0.5038 -0.7284
15739SOL    HW248031   3.945   2.269   1.050  0.1398 -0.0059 -0.9265
15740SOL     OW48032   2.534   4.721   0.635 -0.1656  0.4925 -0.5458
15740SOL    HW148033   2.454   4.705   0.685  0.2152 -1.5394 -0.5656
15740SOL    HW248034   2.514   4.799   0.583 -1.5678  0.9453  0.6125
15741SOL     OW48035   2.569   7.818   4.559 -0.0182  0.0006  0.4046
15741SOL    HW148036   2.589   7.838   4.651 -0.5818  0.7000  0.3887
15741SOL    HW248037   2.571   7.723   4.554 -0.4876 -0.0637  1.2671
15742SOL     OW48038   4.295   1.435   2.117 -0.1047  0.9172  0.6299
15742SOL    HW148039   4.202   1.431   2.137 -0.1862  1.1286  0.2996
15742SOL    HW248040   4.326   1.515   2.160 -0.0241  0.7144  0.9479
15743SOL     OW48041   7.249   0.512   3.976 -0.4569 -0.3220 -0.1535
15743SOL    HW148042   7.336   0.545   3.954 -0.1458 -0.3822  0.9552
15743SOL    HW248043   7.266   0.430   4.023 -1.0926 -0.1076  0.4515
15744SOL     OW48044   0.520   4.735   4.360 -0.0973 -0.4281  0.2409
15744SOL    HW148045   0.603   4.782   4.366  0.7225 -1.6052 -1.3390
15744SOL    HW248046   0.465   4.791   4.305 -0.4933  0.5180  1.5744
15745SOL     OW48047   0.044   2.698   2.374 -0.0502 -0.4029 -0.1822
15745SOL    HW148048   0.122   2.700   2.317  0.1465  2.8526  0.1031
15745SOL    HW248049  -0.030   2.707   2.314  0.0616  1.1103 -0.1173
15746SOL     OW48050   1.274   3.624   0.093 -0.2290  0.0135  0.1161
15746SOL    HW148051   1.236   3.642   0.179 -2.1771  2.3420 -1.1492
15746SOL    HW248052   1.206   3.574   0.047  0.6299 -0.8663 -0.2106
15747SOL     OW48053   6.548   6.521   6.963  0.2945 -0.4559  0.3905
15747SOL    HW148054   6.500   6.603   6.955  0.7754 -0.3523 -1.5180
15747SOL    HW248055   6.570   6.515   7.057 -1.2052  0.7372  0.8221
15748SOL     OW48056   6.555   3.241   2.978 -0.3281 -0.1059  0.2736
15748SOL    HW148057   6.488   3.208   3.038 -0.2950 -0.5113  0.0913
15748SOL    HW248058   6.597   3.313   3.026  0.4999 -1.1878  1.2295
15749SOL     OW48059   0.460   5.361   6.355 -0.5921  0.6060 -0.6815
15749SOL    HW148060   0.386   5.330   6.407  0.7239  0.9379  1.4533
15749SOL    HW248061   0.487   5.442   6.398  1.7036 -0.0765 -0.7875
15750SOL     OW48062   4.418   2.174   6.595 -0.2167  0.5496 -0.6500
15750SOL    HW148063   4.420   2.257   6.643  1.3738  0.3503 -0.3365
15750SOL    HW248064   4.326   2.149   6.595 -0.3239  0.7545  1.9819
15751SOL     OW48065   6.086   1.068   4.305 -0.0882  0.0257  0.4343
15751SOL    HW148066   6.094   1.070   4.209 -0.9304  0.1191  0.3681
15751SOL    HW248067   5.996   1.095   4.322 -0.0154 -0.2566  1.2481
15752SOL     OW48068   5.462   0.856   0.851 -0.5455 -0.1186 -0.0336
15752SOL    HW148069   5.397   0.799   0.892  0.0275 -1.2230 -0.6468
15752SOL    HW248070   5.513   0.798   0.796  0.6657  0.8334  0.0747
15753SOL     OW48071   5.528   6.776   4.488 -0.2258  0.0842  0.1232
15753SOL    HW148072   5.490   6.806   4.570 -0.9879 -0.6235  0.0346
15753SOL    HW248073   5.460   6.722   4.448  1.2541 -2.0650  0.4501
15754SOL     OW48074   1.283   3.113   1.261 -0.1500  0.2500  0.2886
15754SOL    HW148075   1.297   3.170   1.338 -0.6089 -0.0806  0.6216
15754SOL    HW248076   1.365   3.064   1.253 -0.6954 -0.9211  1.5896
15755SOL     OW48077   1.815   1.970   4.561 -0.0624 -0.2820 -0.1235
15755SOL    HW148078   1.827   1.967   4.466 -1.8521  0.3091 -0.3963
15755SOL    HW248079   1.746   1.906   4.579 -0.7123  0.6084  0.6054
15756SOL     OW48080   3.994   6.229   4.631  0.0584 -0.1880  0.5164
15756SOL    HW148081   3.972   6.136   4.641  2.3569 -0.5168  3.0226
15756SOL    HW248082   4.081   6.229   4.591  0.7539  0.8377  2.0152
15757SOL     OW48083   6.460   2.773   5.313 -0.2814  0.4541  0.3832
15757SOL    HW148084   6.527   2.711   5.341 -1.7543  0.3436  3.9830
15757SOL    HW248085   6.382   2.720   5.298 -0.8624  1.1154  0.9811
15758SOL     OW48086   4.232   0.757   4.169  0.5767 -0.1835  0.4169
15758SOL    HW148087   4.163   0.812   4.132 -0.6105 -0.7004  1.8403
15758SOL    HW248088   4.295   0.820   4.205  0.2821  0.2653  0.1544
15759SOL     OW48089   7.210   4.070   0.062  0.2499  0.5290 -0.4147
15759SOL    HW148090   7.220   4.016  -0.017 -1.7047  0.9580 -0.9888
15759SOL    HW248091   7.231   4.011   0.134 -1.4671 -0.9036 -1.0635
15760SOL     OW48092   5.998   5.711   6.535  0.2585 -0.0468  0.0014
15760SOL    HW148093   6.051   5.773   6.486 -0.7333  1.4397  0.7547
15760SOL    HW248094   6.056   5.637   6.553  1.2094  0.2971 -1.6310
15761SOL     OW48095   5.286   0.047   7.177  0.1084 -0.5206 -0.6092
15761SOL    HW148096   5.375   0.034   7.144  0.2272  1.0883 -0.9738
15761SOL    HW248097   5.244   0.103   7.112 -1.6066 -2.3088 -1.1119
15762SOL     OW48098   1.015   2.805   7.761 -0.0427 -0.2237  0.5707
15762SOL    HW148099   0.990   2.889   7.799  0.7752  0.2657  0.0279
15762SOL    HW248100   0.934   2.771   7.722 -0.6073 -0.1656  1.6571
15763SOL     OW48101   3.165   2.874   6.243  0.8138 -0.5461  0.9507
15763SOL    HW148102   3.246   2.887   6.294  0.1384  2.7183  1.2716
15763SOL    HW248103   3.184   2.914   6.159 -0.9312  1.4784  1.5025
15764SOL     OW48104   3.276   5.850   1.970 -0.7763  0.1346 -0.0637
15764SOL    HW148105   3.243   5.769   1.931 -0.0714 -0.8224  1.2826
15764SOL    HW248106   3.211   5.874   2.036 -0.2323 -0.1586  0.5805
15765SOL     OW48107   5.156   1.641   3.741  0.3942 -0.0396 -0.2918
15765SOL    HW148108   5.198   1.712   3.790  3.3615 -1.3594 -0.8297
15765SOL    HW248109   5.149   1.570   3.804  1.0999 -0.5963 -0.8356
15766SOL     OW48110   7.179   0.371   7.184  0.5290 -0.0685  0.1226
15766SOL    HW148111   7.269   0.342   7.192  0.3163 -0.7964 -0.0678
15766SOL    HW248112   7.176   0.422   7.104  1.0375  0.9691  0.7657
15767SOL     OW48113   1.890   5.551   5.558  0.2022  0.1003  0.3557
15767SOL    HW148114   1.934   5.503   5.488  0.4513  0.2211  0.4304
15767SOL    HW248115   1.945   5.628   5.573 -0.5437  0.7509 -0.2184
15768SOL     OW48116   1.802   5.636   7.027 -0.3145  0.2145  0.9012
15768SOL    HW148117   1.719   5.606   7.064 -0.5996  1.2970  1.1480
15768SOL    HW248118   1.855   5.557   7.021 -1.5462 -0.5736  0.2474
15769SOL     OW48119   1.808   0.813   6.267  0.1433  0.5539  0.2024
15769SOL    HW148120   1.814   0.790   6.360  1.1668 -0.6944 -0.1644
15769SOL    HW248121   1.896   0.844   6.245 -0.0277  0.5887 -0.4164
15770SOL     OW48122   1.713   5.463   1.858  0.1740  0.2950 -0.0437
15770SOL    HW148123   1.757   5.497   1.779 -0.1037  1.8905  0.4653
15770SOL    HW248124   1.761   5.383   1.880  1.6197  0.9936 -0.5923
15771SOL     OW48125   7.292   2.350   4.312 -0.5461  0.1034 -0.0828
15771SOL    HW148126   7.211   2.300   4.323 -1.6075  1.9402  0.6048
15771SOL    HW248127   7.326   2.359   4.400 -1.1521  1.8590 -0.0075
15772SOL     OW48128   1.105   7.551   3.348  0.3655  0.1866  1.0782
15772SOL    HW148129   1.023   7.600   3.353  0.9489  1.3375 -0.4895
15772SOL    HW248130   1.173   7.617   3.343  1.4133 -0.7657  2.2504
15773SOL     OW48131   5.265   0.597   1.276 -0.1711 -0.0653  0.1562
15773SOL    HW148132   5.286   0.537   1.205 -1.5144  0.3535 -0.6170
15773SOL    HW248133   5.247   0.541   1.351 -0.8776 -0.6167 -0.4215
15774SOL     OW48134   5.502   0.501   7.058  0.3017 -0.5478 -0.0976
15774SOL    HW148135   5.487   0.559   6.983  0.0269 -0.3411  0.1148
15774SOL    HW248136   5.525   0.417   7.019  0.3592 -0.3868 -0.4115
15775SOL     OW48137   2.667   7.336   0.060 -0.0528 -0.0914 -0.6106
15775SOL    HW148138   2.715   7.311  -0.019  2.6791  0.9853  0.6580
15775SOL    HW248139   2.645   7.252   0.101  0.6529 -0.6170 -1.2697
15776SOL     OW48140   3.033   0.338   2.295 -0.5280  0.2885 -0.2832
15776SOL    HW148141   3.101   0.276   2.321 -1.0445 -0.8308 -1.5886
15776SOL    HW248142   3.082   0.415   2.265  0.1465 -0.0736 -0.1311
15777SOL     OW48143   7.130   3.084   5.253 -0.3034 -0.0962  0.2230
15777SOL    HW148144   7.176   3.131   5.322 -1.2444 -0.4378  1.0872
15777SOL    HW248145   7.053   3.048   5.295  0.2557 -2.2134 -0.4930
15778SOL     OW48146   1.258   6.383   3.014  0.0278  0.0554  0.7461
15778SOL    HW148147   1.250   6.292   2.987  1.7422  0.1950 -0.3140
15778SOL    HW248148   1.229   6.384   3.105  0.5195 -1.6438  0.9326
15779SOL     OW48149   3.641   6.903   3.486  0.3326  0.5413  0.6039
15779SOL    HW148150   3.629   6.974   3.423 -0.0567  0.9504  1.1418
15779SOL    HW248151   3.581   6.835   3.456  1.8805 -0.2086 -0.8537
15780SOL     OW48152   0.233   0.847   7.609 -0.7368 -0.3491  0.1488
15780SOL    HW148153   0.142   0.865   7.587 -0.6706 -1.2603 -0.9202
15780SOL    HW248154   0.283   0.884   7.537 -0.3138 -0.5377  0.3444
15781SOL     OW48155   6.871   5.234   5.317  0.3891 -0.1325  0.2528
15781SOL    HW148156   6.934   5.227   5.388  0.7588  1.9050  0.1519
15781SOL    HW248157   6.912   5.293   5.253  0.5678 -2.8129 -2.2318
15782SOL     OW48158   2.792   3.520   6.694  0.2220 -0.0103 -0.3775
15782SOL    HW148159   2.798   3.447   6.755  1.9411  0.5075  0.1168
15782SOL    HW248160   2.737   3.488   6.623  1.1630 -1.8969 -0.3034
15783SOL     OW48161   2.085   5.437   5.242  0.5139 -0.5478 -0.6121
15783SOL    HW148162   2.144   5.415   5.313 -0.0642 -1.0828 -0.2928
15783SOL    HW248163   2.139   5.485   5.179  0.1891  3.3914  1.9140
15784SOL     OW48164   3.395   5.571   7.135 -0.0041  0.4578  0.4733
15784SOL    HW148165   3.454   5.513   7.182  0.4725  1.0440  0.6088
15784SOL    HW248166   3.441   5.590   7.053  1.1759  2.9141  1.6279
15785SOL     OW48167   5.708   1.996   2.569 -0.2363  0.0549 -0.0923
15785SOL    HW148168   5.697   1.982   2.663  1.5073 -0.9271 -0.0132
15785SOL    HW248169   5.761   2.075   2.562 -0.4605  0.1925 -0.2545
15786SOL     OW48170   2.579   2.532   1.511  0.0011  0.4484 -0.0063
15786SOL    HW148171   2.543   2.591   1.445 -1.7035  1.7278  2.0152
15786SOL    HW248172   2.588   2.448   1.466  1.4635  1.9304 -2.6299
15787SOL     OW48173   0.948   5.632   1.163 -0.2625 -0.6356 -0.3214
15787SOL    HW148174   0.869   5.615   1.214 -0.8909 -1.9924 -1.7035
15787SOL    HW248175   1.001   5.553   1.173  1.8668  1.0364  2.2162
15788SOL     OW48176   0.435   2.611   6.134  0.2575 -0.6073  0.7868
15788SOL    HW148177   0.443   2.656   6.218  0.7297  0.0650  0.3906
15788SOL    HW248178   0.381   2.534   6.153 -2.7864  1.4760  0.9719
15789SOL     OW48179   5.836   5.697   4.677  0.1106  0.4189  0.6872
15789SOL    HW148180   5.913   5.732   4.632  1.0680 -0.6530  1.4627
15789SOL    HW248181   5.866   5.614   4.715 -0.9420  0.8307  2.4760
15790SOL     OW48182   1.656   7.888   0.486  0.2149  0.2604 -0.4639
15790SOL    HW148183   1.589   7.924   0.428 -0.4024 -0.8925 -0.4742
15790SOL    HW248184   1.737   7.893   0.434 -0.2442 -0.2930 -1.2503
15791SOL     OW48185   7.216   1.769   7.395  0.1816 -0.0543 -0.3998
15791SOL    HW148186   7.143   1.785   7.454  0.9473  0.4109  0.4200
15791SOL    HW248187   7.224   1.673   7.393 -2.2159 -0.2752 -2.6723
15792SOL     OW48188   5.347   1.264   7.619 -0.6916 -0.0098  0.1655
15792SOL    HW148189   5.260   1.275   7.580  0.6574  0.8105 -2.6980
15792SOL    HW248190   5.360   1.345   7.669 -1.9112 -0.5266  1.3707
15793SOL     OW48191   7.067   7.167   6.401  0.1779 -0.0784  0.2803
15793SOL    HW148192   7.129   7.095   6.389  0.0576  0.0689 -1.3742
15793SOL    HW248193   6.989   7.126   6.439  0.1091 -0.8390 -0.6543
15794SOL     OW48194   5.741   6.576   4.207 -0.5073 -0.1516  0.1523
15794SOL    HW148195   5.675   6.634   4.168  0.4753  1.7137  1.1874
15794SOL    HW248196   5.784   6.630   4.273  1.3990 -1.6471  0.1672
15795SOL     OW48197   5.753   4.149   6.202  0.1937 -0.3908  0.1066
15795SOL    HW148198   5.714   4.097   6.273  0.0365  0.8579  0.9628
15795SOL    HW248199   5.842   4.166   6.231  0.8071 -1.6467 -0.9837
15796SOL     OW48200   6.615   7.599   4.069 -0.2555  0.3276  0.2755
15796SOL    HW148201   6.685   7.664   4.081 -0.5462  0.3735  1.9063
15796SOL    HW248202   6.659   7.515   4.079  0.3331  0.2070 -2.9913
15797SOL     OW48203   0.138   3.104   7.786 -0.2491  0.3997 -0.4854
15797SOL    HW148204   0.150   3.148   7.870 -0.4672  0.6196 -0.5708
15797SOL    HW248205   0.067   3.042   7.801 -1.5380  1.7264 -1.0096
15798SOL     OW48206   0.986   3.806   3.128  0.0179 -0.4142 -0.5437
15798SOL    HW148207   0.967   3.876   3.191  0.8122 -1.9560  1.4441
15798SOL    HW248208   1.067   3.833   3.085 -0.1373  0.2799 -0.4087
15799SOL     OW48209   0.183   6.216   1.921 -0.0819  0.4357  0.0307
15799SOL    HW148210   0.190   6.184   2.011  2.3351  0.4977 -0.0880
15799SOL    HW248211   0.126   6.292   1.927  0.2258  0.5687  1.5662
15800SOL     OW48212   7.772   5.208   4.379  0.1642 -0.2019  0.1541
15800SOL    HW148213   7.783   5.172   4.291  1.4773  0.0739  0.1936
15800SOL    HW248214   7.851   5.260   4.394  0.5075 -1.1756  1.9375
15801SOL     OW48215   1.340   6.505   1.466  0.1371  0.6174  0.0995
15801SOL    HW148216   1.355   6.468   1.554  1.9839 -0.2713 -0.5575
15801SOL    HW248217   1.417   6.559   1.450 -0.8890  1.9574 -0.4016
15802SOL     OW48218   7.281   1.586   3.307 -0.2330 -0.1030 -0.3056
15802SOL    HW148219   7.374   1.569   3.315 -0.5747 -1.8434  0.2564
15802SOL    HW248220   7.268   1.673   3.344  0.8859 -0.6263  1.3281
15803SOL     OW48221   6.269   1.442   6.988 -0.2637 -0.5497  0.3263
15803SOL    HW148222   6.349   1.411   6.945  0.0131  1.4738 -0.6742
15803SOL    HW248223   6.295   1.455   7.079  0.2271 -1.0114  0.2591
15804SOL     OW48224   3.863   3.955   5.165 -0.5126  0.1722 -0.0220
15804SOL    HW148225   3.911   4.023   5.212  1.7827 -2.0440  0.9786
15804SOL    HW248226   3.901   3.955   5.077  0.5836 -0.8542  0.4462
15805SOL     OW48227   0.432   2.827   4.948  0.2791 -0.1924  0.3063
15805SOL    HW148228   0.465   2.808   4.860 -1.5915  0.8143 -0.6367
15805SOL    HW248229   0.466   2.755   5.002  0.8014 -1.2516 -1.3811
15806SOL     OW48230   7.340   7.798   1.518 -0.3072 -0.5880  0.5766
15806SOL    HW148231   7.259   7.848   1.527  0.0077 -0.2446  1.5909
15806SOL    HW248232   7.409   7.864   1.522 -0.0131 -0.6364 -2.3141
15807SOL     OW48233   0.732   7.537   7.024 -0.3183  0.0110 -0.3465
15807SOL    HW148234   0.645   7.574   7.038  0.1207  0.9068  0.0722
15807SOL    HW248235   0.728   7.450   7.063 -0.8185  0.3207  0.3089
15808SOL     OW48236   7.436   7.767   1.254  0.1144 -0.0204  0.2695
15808SOL    HW148237   7.393   7.777   1.339 -0.1994  0.6273  0.0445
15808SOL    HW248238   7.366   7.784   1.190  0.2303 -1.0014 -0.1201
15809SOL     OW48239   2.461   6.044   0.108  0.6819 -0.2065 -0.5223
15809SOL    HW148240   2.367   6.024   0.107 -0.0374  2.2862  3.4495
15809SOL    HW248241   2.474   6.103   0.034 -1.4660  1.4731  0.3721
15810SOL     OW48242   5.862   2.251   2.560  0.1197 -0.0031 -0.7827
15810SOL    HW148243   5.920   2.320   2.593  0.0631 -0.8503  1.1331
15810SOL    HW248244   5.803   2.297   2.499  0.8072  1.4174 -0.4029
15811SOL     OW48245   7.599   2.649   7.523  0.0979  0.2927 -0.2343
15811SOL    HW148246   7.558   2.653   7.436 -1.2087 -0.6551  0.3103
15811SOL    HW248247   7.675   2.592   7.510 -0.7334 -0.7775 -0.5304
15812SOL     OW48248   6.120   0.777   7.631 -0.2353  0.0243 -0.1168
15812SOL    HW148249   6.133   0.786   7.725  0.1186 -1.6986  0.0254
15812SOL    HW248250   6.157   0.857   7.594  1.2050 -0.0456  1.0948
15813SOL     OW48251   6.202   4.424   0.085  0.1162 -0.2508  0.8754
15813SOL    HW148252   6.247   4.400   0.004  0.5778 -1.0886  1.3728
15813SOL    HW248253   6.199   4.520   0.083  1.3606 -0.2047  0.5238
15814SOL     OW48254   5.530   3.909   3.625 -0.6758  0.6102 -0.3807
15814SOL    HW148255   5.485   3.957   3.556 -2.3702 -0.9194 -0.4014
15814SOL    HW248256   5.489   3.822   3.624  0.7820 -0.1301  1.0925
15815SOL     OW48257   0.292   2.866   5.393 -0.0370 -0.7261 -0.1695
15815SOL    HW148258   0.338   2.936   5.346  1.6922 -2.0074 -0.4344
15815SOL    HW248259   0.206   2.862   5.351 -0.7131  2.2259  0.8392
15816SOL     OW48260   0.998   4.313   7.681 -0.5008  0.3199  0.2197
15816SOL    HW148261   1.056   4.384   7.711 -0.8215  0.8990 -0.5088
15816SOL    HW248262   1.054   4.258   7.626 -0.3277  0.1897  0.5299
15817SOL     OW48263   6.769   1.242   7.380 -0.4163 -0.1960  0.5564
15817SOL    HW148264   6.747   1.157   7.417 -0.6666 -0.5865 -0.4793
15817SOL    HW248265   6.686   1.290   7.378 -0.5270 -0.4057 -0.0778
15818SOL     OW48266   4.924   3.996   0.318  0.5329 -0.2092  0.4681
15818SOL    HW148267   4.850   3.964   0.267 -0.1487 -0.1896  1.4189
15818SOL    HW248268   4.974   3.918   0.340  1.3188 -0.1244 -0.9604
15819SOL     OW48269   6.118   2.303   3.080  0.0142  0.3659  0.4283
15819SOL    HW148270   6.164   2.379   3.114  2.6931 -1.2722  0.6058
15819SOL    HW248271   6.148   2.295   2.989 -0.0064 -0.6446  0.5042
15820SOL     OW48272   5.235   2.390   3.832  0.2224  0.3598  0.5590
15820SOL    HW148273   5.304   2.456   3.839  1.5561 -1.0807  1.1415
15820SOL    HW248274   5.158   2.439   3.802  1.3607  2.0591  0.3707
15821SOL     OW48275   4.072   1.792   3.517 -0.1542  0.2171  0.6134
15821SOL    HW148276   4.082   1.809   3.423 -0.1156  2.4758  0.9906
15821SOL    HW248277   3.978   1.786   3.531 -0.2080  1.0219  0.6088
15822SOL     OW48278   3.748   0.427   6.059 -0.0535  1.0649 -0.2164
15822SOL    HW148279   3.690   0.503   6.056 -0.0483  1.1623  1.4457
15822SOL    HW248280   3.785   0.429   6.148  0.9608 -0.1228 -0.6003
15823SOL     OW48281   6.470   0.427   5.106  0.5532  1.3707 -0.1977
15823SOL    HW148282   6.415   0.505   5.108  0.1799  1.0988  0.0455
15823SOL    HW248283   6.425   0.367   5.046 -0.4527  0.3714  1.5189
15824SOL     OW48284   3.990   2.023   1.571 -0.2090 -0.8946  0.2631
15824SOL    HW148285   3.981   2.101   1.515 -2.6790  0.3606  2.2915
15824SOL    HW248286   3.942   1.955   1.524  1.3757 -1.0664 -1.1849
15825SOL     OW48287   7.298   6.196   0.825  0.0466  0.0739  0.3027
15825SOL    HW148288   7.237   6.258   0.785 -1.8475 -1.3188  0.9588
15825SOL    HW248289   7.266   6.185   0.914  1.2037 -0.7783  0.6258
15826SOL     OW48290   7.244   0.908   7.684 -0.8072 -0.4805  0.3538
15826SOL    HW148291   7.246   0.897   7.589  2.2248 -2.4344  0.5610
15826SOL    HW248292   7.293   0.989   7.699 -2.1456  0.3600  0.1995
15827SOL     OW48293   6.955   0.887   4.457 -0.3744  0.2203  0.1404
15827SOL    HW148294   7.000   0.806   4.436  2.6960  2.0564 -0.6000
15827SOL    HW248295   6.966   0.897   4.552  1.6099  1.1087 -0.1648
15828SOL     OW48296   4.801   0.451   1.527 -0.3962  0.1657 -0.3532
15828SOL    HW148297   4.817   0.456   1.433  1.3919  1.5870 -0.0120
15828SOL    HW248298   4.827   0.538   1.560 -2.3603  0.1776  1.2508
15829SOL     OW48299   2.257   5.164   7.308  0.0925  0.1122  0.0332
15829SOL    HW148300   2.347   5.130   7.314  0.9788  2.3968  0.2412
15829SOL    HW248301   2.220   5.149   7.394 -0.2623 -2.1936 -0.4750
15830SOL     OW48302   1.955   7.372   0.805  0.1621  0.0273  0.1609
15830SOL    HW148303   1.956   7.387   0.899 -1.0729  0.9705  0.0426
15830SOL    HW248304   2.046   7.383   0.777  0.2250  1.5823  0.9670
15831SOL     OW48305   1.089   3.696   1.120  0.1726 -0.2077  0.7021
15831SOL    HW148306   1.058   3.783   1.095  2.9123 -0.1453 -2.9183
15831SOL    HW248307   1.013   3.639   1.107 -0.9470  1.2653  0.6946
15832SOL     OW48308   4.186   4.137   0.118  0.0429  0.1169 -0.3654
15832SOL    HW148309   4.263   4.080   0.112  0.2631  0.3157  0.4469
15832SOL    HW248310   4.112   4.081   0.095  0.3022 -0.4000  0.0495
15833SOL     OW48311   7.338   2.017   2.857 -0.3856 -0.3961  0.6782
15833SOL    HW148312   7.327   2.049   2.947 -1.2142  1.8523 -0.2097
15833SOL    HW248313   7.261   2.047   2.810  1.9652  2.0952 -1.7977
15834SOL     OW48314   3.182   1.543   2.653  0.2907 -0.0237 -0.2913
15834SOL    HW148315   3.207   1.569   2.564  2.4160  1.4651  0.6891
15834SOL    HW248316   3.264   1.545   2.702 -0.9053 -0.5314  1.7845
15835SOL     OW48317   7.597   1.490   2.312 -0.3372  0.1898  0.3381
15835SOL    HW148318   7.625   1.430   2.243  0.3885 -1.3958  1.9531
15835SOL    HW248319   7.660   1.561   2.309 -0.1703  0.0139 -0.4724
15836SOL     OW48320   6.222   4.627   6.475 -0.2975 -0.4398 -0.5922
15836SOL    HW148321   6.132   4.658   6.477 -0.2893 -0.4535  1.2578
15836SOL    HW248322   6.219   4.547   6.423 -1.3051 -0.2878 -0.7787
15837SOL     OW48323   3.262   6.405   4.568  0.3834  0.3250  0.4430
15837SOL    HW148324   3.312   6.451   4.636  0.2992  0.2554  0.5526
15837SOL    HW248325   3.313   6.325   4.551  0.9123  0.8020 -0.2642
15838SOL     OW48326   7.234   0.900   5.487 -0.4519 -0.4334 -0.4992
15838SOL    HW148327   7.319   0.900   5.445 -0.6625 -1.1277 -0.9506
15838SOL    HW248328   7.240   0.831   5.553 -0.7074 -0.5816 -0.6288
15839SOL     OW48329   2.717   2.172   4.504 -0.2558  0.1937 -0.4280
15839SOL    HW148330   2.810   2.177   4.481 -0.3702  0.3740 -0.8596
15839SOL    HW248331   2.714   2.115   4.580  0.1959  0.0714 -0.5013
15840SOL     OW48332   7.609   4.893   2.963 -0.6883  0.3541 -0.1334
15840SOL    HW148333   7.585   4.914   2.873  1.9566 -0.1117 -1.0066
15840SOL    HW248334   7.654   4.808   2.956  2.3705  1.8042  1.1456
15841SOL     OW48335   2.104   5.740   4.151  0.6320  0.4791 -0.2795
15841SOL    HW148336   2.176   5.758   4.212 -1.1412 -1.2946  2.4346
15841SOL    HW248337   2.129   5.657   4.109  0.5078  0.2228  0.1500
15842SOL     OW48338   0.345   5.641   2.484  0.2057 -0.0618 -0.0713
15842SOL    HW148339   0.340   5.555   2.525 -1.4758 -0.4841 -1.1189
15842SOL    HW248340   0.421   5.636   2.426  0.7288 -0.4829  0.6448
15843SOL     OW48341   5.688   3.531   1.338  0.2185 -0.4777  1.1052
15843SOL    HW148342   5.758   3.485   1.384  0.5336  0.6687  1.8015
15843SOL    HW248343   5.710   3.523   1.246  1.2700 -0.1317  1.3242
15844SOL     OW48344   0.658   3.994   6.718 -0.8249 -0.1191  0.4570
15844SOL    HW148345   0.669   4.088   6.725 -1.0981 -0.0641  0.1732
15844SOL    HW248346   0.671   3.975   6.625 -1.9499 -0.1983  0.3095
15845SOL     OW48347   5.771   0.590   7.020  0.5399  0.0006  0.0368
15845SOL    HW148348   5.778   0.531   6.945  0.0894  0.5228 -0.4195
15845SOL    HW248349   5.683   0.627   7.013  0.0519 -0.8661  1.5052
15846SOL     OW48350   0.995   2.321   3.059 -0.2106 -0.5738 -0.1499
15846SOL    HW148351   1.076   2.370   3.072  0.8771 -2.4691  0.4724
15846SOL    HW248352   0.930   2.367   3.112  0.1526  1.6621 -1.5989
15847SOL     OW48353   6.677   2.647   3.895  0.6174  0.3505  0.3204
15847SOL    HW148354   6.605   2.670   3.953 -0.0204  2.3997 -1.2592
15847SOL    HW248355   6.639   2.584   3.833  0.4965  0.5145  0.2277
15848SOL     OW48356   5.327   5.497   0.043 -0.3193 -0.5047  0.1148
15848SOL    HW148357   5.251   5.554   0.030 -0.6124 -1.1580 -1.0953
15848SOL    HW248358   5.399   5.544   0.002  0.3095  0.9158  2.7566
15849SOL     OW48359   6.029   0.246   3.196 -0.1616 -0.1387  0.0101
15849SOL    HW148360   5.961   0.287   3.143  0.3657 -0.5361 -0.9980
15849SOL    HW248361   6.039   0.304   3.271 -2.4796 -0.7280  0.8143
15850SOL     OW48362   4.797   5.251   7.498 -0.3851  0.3482  0.5729
15850SOL    HW148363   4.850   5.238   7.577  0.8492  1.4182 -0.0659
15850SOL    HW248364   4.716   5.290   7.530 -0.2463 -0.0340  1.4086
15851SOL     OW48365   0.207   6.542   7.528 -0.4926  0.1500 -0.2929
15851SOL    HW148366   0.233   6.505   7.444 -0.7450  1.2336 -0.8645
15851SOL    HW248367   0.122   6.582   7.511 -1.3147 -1.0298  0.8914
15852SOL     OW48368   1.381   2.410   6.692  0.3461  0.2217 -0.7259
15852SOL    HW148369   1.341   2.345   6.635  0.4609 -1.9766  1.6230
15852SOL    HW248370   1.475   2.403   6.674  0.3334 -0.0485 -0.6833
15853SOL     OW48371   7.940   7.347   0.200  0.4459  0.0234  0.1313
15853SOL    HW148372   7.986   7.410   0.146 -0.9986  0.5901 -0.4733
15853SOL    HW248373   8.003   7.276   0.215  1.7146  1.1017 -0.0789
15854SOL     OW48374   0.141   4.450   2.505 -0.0791  0.0658  0.2736
15854SOL    HW148375   0.113   4.392   2.434  1.0795  0.3103 -0.3948
15854SOL    HW248376   0.094   4.418   2.582 -0.9226 -0.5538 -0.4840
15855SOL     OW48377   7.968   7.105   7.896 -0.0968 -0.3514  0.1145
15855SOL    HW148378   7.875   7.083   7.908  0.0162 -1.0755 -0.3307
15855SOL    HW248379   7.997   7.133   7.983  0.1837 -3.6302  1.1377
15856SOL     OW48380   2.595   5.762   2.233  0.0713 -0.1813 -0.1666
15856SOL    HW148381   2.531   5.728   2.295  1.3741 -3.0483 -0.3090
15856SOL    HW248382   2.555   5.749   2.147 -0.6362  1.3373 -0.0667
15857SOL     OW48383   7.678   1.967   5.956  0.3324 -0.1419 -0.3507
15857SOL    HW148384   7.691   1.927   5.870  1.6638 -0.3460 -0.0748
15857SOL    HW248385   7.702   1.897   6.018  0.0479  0.2228  0.1750
15858SOL     OW48386   0.967   4.987   7.128  0.1170  0.0241  0.2700
15858SOL    HW148387   1.062   4.992   7.125  0.2614 -0.3385  3.1637
15858SOL    HW248388   0.937   5.067   7.084  1.7693  0.7151  0.3804
15859SOL     OW48389   3.308   3.812   6.562  0.4932 -0.7311 -0.0655
15859SOL    HW148390   3.220   3.849   6.552  1.2171  1.1134  0.3128
15859SOL    HW248391   3.337   3.796   6.472  1.1681  2.0307 -0.3853
15860SOL     OW48392   0.665   1.254   3.875  0.1955 -0.4452 -0.6286
15860SOL    HW148393   0.684   1.281   3.965 -0.5775  0.2808 -0.6757
15860SOL    HW248394   0.578   1.215   3.879  0.2564 -0.6281 -1.0241
15861SOL     OW48395   7.514   3.236   0.075  0.2540 -0.6391 -0.0637
15861SOL    HW148396   7.572   3.248   0.000  0.3715 -0.5755  0.0376
15861SOL    HW248397   7.443   3.180   0.042  0.4703 -0.8728 -0.1370
15862SOL     OW48398   4.656   6.904   7.560  0.1960  0.0823  0.0986
15862SOL    HW148399   4.729   6.965   7.544  1.7810 -1.4123  1.4657
15862SOL    HW248400   4.634   6.917   7.652 -1.6150  0.8718 -0.4351
15863SOL     OW48401   7.432   6.915   4.094  0.3399  0.1770 -0.3405
15863SOL    HW148402   7.525   6.911   4.115 -0.0641 -1.6523  1.2750
15863SOL    HW248403   7.413   6.832   4.050 -0.5158  0.5653 -0.7351
15864SOL     OW48404   0.972   4.714   4.926  0.2834  0.2545 -0.7602
15864SOL    HW148405   1.021   4.790   4.893  0.7458 -0.4465 -1.6893
15864SOL    HW248406   1.020   4.688   5.005  0.4277  0.6133 -0.7266
15865SOL     OW48407   5.268   1.142   2.235 -0.5131  0.6915  0.3927
15865SOL    HW148408   5.307   1.083   2.170 -0.2537  0.1103  1.0663
15865SOL    HW248409   5.308   1.115   2.318 -1.4624  0.8917  0.9131
15866SOL     OW48410   4.453   0.556   6.392  0.5195  0.0930  0.2454
15866SOL    HW148411   4.391   0.608   6.443  0.7635  0.5416  0.0898
15866SOL    HW248412   4.517   0.620   6.361  0.9113 -0.3276  0.1867
15867SOL     OW48413   2.120   5.604   0.790  0.7593  0.0468  0.3318
15867SOL    HW148414   2.159   5.680   0.834 -0.1900  1.2401 -0.8426
15867SOL    HW248415   2.028   5.627   0.780  0.4607 -1.2761 -0.0342
15868SOL     OW48416   2.590   2.961   1.211  0.2250  0.5588 -0.5451
15868SOL    HW148417   2.682   2.965   1.238  0.4232  0.4094 -1.1783
15868SOL    HW248418   2.546   3.026   1.265  0.4773 -0.2342  0.6292
15869SOL     OW48419   7.140   4.630   3.166 -0.0667 -0.6418 -0.1709
15869SOL    HW148420   7.193   4.601   3.240  0.4554  0.8622  0.0559
15869SOL    HW248421   7.084   4.555   3.146  1.6323 -1.9953  0.0462
15870SOL     OW48422   4.750   0.176   4.970  0.3168 -0.0169 -0.1806
15870SOL    HW148423   4.798   0.180   4.887  0.6741  2.8398  0.0996
15870SOL    HW248424   4.817   0.186   5.037 -0.1413 -0.8391  0.4026
15871SOL     OW48425   0.554   7.707   3.653 -0.1692 -0.2797  0.1945
15871SOL    HW148426   0.631   7.761   3.631  0.0337 -1.0494 -1.0117
15871SOL    HW248427   0.479   7.762   3.629  0.0118  0.2059  0.7331
15872SOL     OW48428   7.693   1.581   4.125  0.6881  0.2130  0.0287
15872SOL    HW148429   7.697   1.673   4.101 -1.3468  0.4581  0.5348
15872SOL    HW248430   7.627   1.544   4.066  0.8796 -0.7420  0.4063
15873SOL     OW48431   5.570   6.512   7.396  0.1945 -0.3277 -0.3628
15873SOL    HW148432   5.504   6.580   7.384  1.7940  1.1846 -0.7798
15873SOL    HW248433   5.625   6.545   7.467  0.3321 -1.7358  0.2122
15874SOL     OW48434   6.571   2.887   2.294  0.7405 -0.4226  0.3281
15874SOL    HW148435   6.553   2.919   2.382 -0.6534 -0.5710  0.1040
15874SOL    HW248436   6.652   2.933   2.268  0.4904  0.5370  1.2071
15875SOL     OW48437   3.753   7.481   3.810 -0.0768 -0.3949 -0.4208
15875SOL    HW148438   3.831   7.450   3.765 -0.1415 -1.1441 -0.0255
15875SOL    HW248439   3.722   7.555   3.757 -0.4296 -1.5744 -1.8686
15876SOL     OW48440   5.620   5.561   4.553 -0.0785 -0.2960 -0.0399
15876SOL    HW148441   5.703   5.594   4.588 -1.4909  1.0251  2.2612
15876SOL    HW248442   5.618   5.469   4.578  1.0004 -0.5267 -0.7567
15877SOL     OW48443   4.862   5.705   1.516 -0.5738  0.5152  0.0002
15877SOL    HW148444   4.803   5.630   1.514 -0.7851  0.6819  0.0069
15877SOL    HW248445   4.867   5.734   1.425 -1.1855  1.0361  0.1274
15878SOL     OW48446   3.046   2.875   5.766 -0.2393 -0.3346  0.0470
15878SOL    HW148447   3.015   2.939   5.703 -2.0718 -0.8426  0.4064
15878SOL    HW248448   2.990   2.798   5.753  0.3036 -0.9718  1.2962
15879SOL     OW48449   5.013   1.295   0.625 -0.8176 -0.2633 -0.3617
15879SOL    HW148450   4.992   1.387   0.640 -1.6714 -0.2558 -1.5162
15879SOL    HW248451   5.084   1.297   0.561 -1.5447 -0.4247 -1.1809
15880SOL     OW48452   7.797   7.293   4.020 -0.2619 -0.3697  0.3053
15880SOL    HW148453   7.835   7.374   3.987  1.4366 -1.6866 -1.0890
15880SOL    HW248454   7.800   7.302   4.115  1.8229  0.3543  0.2028
15881SOL     OW48455   2.523   7.447   3.210  0.2308 -0.2974 -0.2860
15881SOL    HW148456   2.615   7.461   3.230  0.2150 -1.1262  0.4041
15881SOL    HW248457   2.515   7.353   3.197 -0.2688 -0.0642 -1.6621
15882SOL     OW48458   3.461   0.365   5.751 -0.0204 -0.0307 -0.4481
15882SOL    HW148459   3.474   0.458   5.734 -0.9691  0.1284 -0.3362
15882SOL    HW248460   3.541   0.337   5.796 -0.7143  1.2501  1.6428
15883SOL     OW48461   1.496   7.311   1.394  0.3657 -0.0708 -0.0022
15883SOL    HW148462   1.444   7.251   1.448 -0.7212 -0.3396 -1.3069
15883SOL    HW248463   1.587   7.286   1.412 -0.0363 -1.3960  0.2912
15884SOL     OW48464   1.326   5.069   6.093 -0.4767 -0.6982 -0.3209
15884SOL    HW148465   1.371   4.984   6.101 -1.2749 -1.3263 -2.1480
15884SOL    HW248466   1.382   5.120   6.034  0.2718  0.2645  1.1860
15885SOL     OW48467   2.789   2.695   1.536  0.4231  0.4322  0.1481
15885SOL    HW148468   2.838   2.665   1.460 -1.4856 -2.0786 -0.1592
15885SOL    HW248469   2.710   2.641   1.537 -0.6186  1.8816  2.6878
15886SOL     OW48470   5.772   2.135   3.148 -0.1532  0.0636 -0.1188
15886SOL    HW148471   5.748   2.066   3.210  0.4209 -0.9606 -1.0045
15886SOL    HW248472   5.828   2.090   3.085  1.4074  1.6641  0.0946
15887SOL     OW48473   6.059   1.990   1.639 -0.2390 -0.0130  0.4936
15887SOL    HW148474   6.020   1.949   1.717 -0.7818  1.5403  1.0523
15887SOL    HW248475   6.060   1.920   1.574 -1.8456 -0.7275  1.2067
15888SOL     OW48476   1.329   4.775   7.632  0.0084  0.8300  0.4490
15888SOL    HW148477   1.245   4.788   7.676 -0.4506  1.7665 -0.6943
15888SOL    HW248478   1.320   4.821   7.549  1.3162  0.1167 -0.0932
15889SOL     OW48479   2.525   6.418   5.768 -0.1473 -0.5506  0.3198
15889SOL    HW148480   2.523   6.396   5.861 -0.5667 -1.2074  0.1583
15889SOL    HW248481   2.480   6.503   5.763  1.7111  0.5146  0.9733
15890SOL     OW48482   7.700   5.887   2.436  0.1388  0.4845  0.1038
15890SOL    HW148483   7.780   5.860   2.481  2.3227  3.4632 -1.7794
15890SOL    HW248484   7.634   5.892   2.504  1.3700 -2.6013  1.6117
15891SOL     OW48485   2.485   3.126   6.327  0.0230  0.3436  0.1265
15891SOL    HW148486   2.441   3.103   6.409 -0.6980  1.6051  0.1050
15891SOL    HW248487   2.578   3.115   6.346 -0.2760 -3.4174 -0.1457
15892SOL     OW48488   0.142   0.143   7.493  0.4721 -0.2160 -0.5184
15892SOL    HW148489   0.190   0.223   7.475  0.7168  0.1470  1.5458
15892SOL    HW248490   0.144   0.135   7.589 -1.6663 -1.3759 -0.5415
15893SOL     OW48491   6.008   2.323   3.529  0.0930  0.1538 -0.0012
15893SOL    HW148492   6.029   2.410   3.563  0.0331 -0.0124  0.4597
15893SOL    HW248493   5.929   2.336   3.476  0.6059  0.5425 -0.6693
15894SOL     OW48494   0.878   2.744   5.108 -0.0405  0.1287  0.8830
15894SOL    HW148495   0.841   2.743   5.196 -2.0902  0.3424  0.0501
15894SOL    HW248496   0.806   2.770   5.051  1.3513  0.3974 -0.8307
15895SOL     OW48497   1.901   4.894   5.407  0.3398 -0.5862 -0.2620
15895SOL    HW148498   1.823   4.912   5.356  1.2292  1.4431 -0.9760
15895SOL    HW248499   1.936   4.812   5.371  0.8052  0.6710 -2.7731
15896SOL     OW48500   6.532   1.799   4.567 -0.2984 -0.3914  1.1812
15896SOL    HW148501   6.470   1.726   4.562 -0.7213 -0.1936  3.0480
15896SOL    HW248502   6.618   1.757   4.557 -0.6096 -0.9651  0.8748
15897SOL     OW48503   6.505   5.465   4.125 -0.4023  0.2402  0.0353
15897SOL    HW148504   6.512   5.445   4.218 -0.9533  0.0550  0.0386
15897SOL    HW248505   6.536   5.556   4.117  2.8036 -0.8004 -0.0755
15898SOL     OW48506   3.782   5.137   7.958 -0.9304 -0.3244  0.1335
15898SOL    HW148507   3.743   5.055   7.928 -0.1368 -0.3459 -0.8559
15898SOL    HW248508   3.765   5.199   7.888  0.3691 -0.2049 -0.0842
15899SOL     OW48509   0.380   3.458   0.118  0.1242 -0.1598 -0.7384
15899SOL    HW148510   0.364   3.484   0.208 -1.0616 -2.6940 -0.1769
15899SOL    HW248511   0.351   3.533   0.066  1.1545  1.4648  0.9584
15900SOL     OW48512   1.790   4.530   6.722  0.8342 -0.4429  0.1740
15900SOL    HW148513   1.863   4.476   6.691  0.8060  0.0331 -0.7352
15900SOL    HW248514   1.832   4.597   6.775  1.0574 -0.1962 -0.3103
15901SOL     OW48515   2.643   2.287   7.439  0.0886 -0.2313  0.0701
15901SOL    HW148516   2.631   2.253   7.528  2.4789 -3.0338 -0.5782
15901SOL    HW248517   2.738   2.298   7.430 -0.2426  1.5250 -1.6150
15902SOL     OW48518   7.877   0.111   2.630  0.2891 -0.2659  0.1487
15902SOL    HW148519   7.806   0.165   2.665  1.3760  0.3532  1.4299
15902SOL    HW248520   7.916   0.069   2.707  0.7098 -1.3548 -0.6396
15903SOL     OW48521   2.464   6.601   3.275 -0.2902  0.3500  0.1434
15903SOL    HW148522   2.371   6.622   3.270 -0.7287 -1.8500 -3.1492
15903SOL    HW248523   2.471   6.513   3.237  2.8319 -0.5855  2.6376
15904SOL     OW48524   3.912   1.302   2.854  0.1546  0.8203  0.3482
15904SOL    HW148525   3.867   1.362   2.913 -1.2282 -0.2788  0.4339
15904SOL    HW248526   3.916   1.219   2.903  0.6864  0.4170 -0.3627
15905SOL     OW48527   0.614   6.565   5.360 -0.4125 -0.3483 -0.1562
15905SOL    HW148528   0.619   6.501   5.431  1.1730  0.7736  0.7985
15905SOL    HW248529   0.670   6.529   5.291  0.3219 -0.0985  0.3017
15906SOL     OW48530   7.913   3.272   0.178  0.5880  0.0205  0.0056
15906SOL    HW148531   7.884   3.259   0.269  1.2822  0.3971  0.2871
15906SOL    HW248532   7.939   3.364   0.175  0.7741 -0.0514 -0.5142
15907SOL     OW48533   5.250   2.191   3.999 -0.0172  0.2017  0.0002
15907SOL    HW148534   5.240   2.265   3.939 -2.5720 -1.0926 -1.2470
15907SOL    HW248535   5.204   2.217   4.078 -0.7430  0.0306 -0.3645
15908SOL     OW48536   0.248   3.625   6.488 -0.0171 -0.3087 -0.0384
15908SOL    HW148537   0.287   3.696   6.437 -1.0371 -0.7785 -1.5151
15908SOL    HW248538   0.319   3.595   6.546  1.3623 -0.1741 -1.6180
15909SOL     OW48539   4.740   5.893   0.148 -0.2539 -0.1982 -0.4916
15909SOL    HW148540   4.795   5.955   0.195  0.4699 -0.4238 -1.0345
15909SOL    HW248541   4.686   5.853   0.217 -1.2193  1.5013 -0.2262
15910SOL     OW48542   1.929   3.080   6.923  0.8538  0.3034  0.3506
15910SOL    HW148543   1.878   3.153   6.959  0.9623  0.2403  0.6379
15910SOL    HW248544   1.904   3.005   6.976  1.6329  0.3777  0.8455
15911SOL     OW48545   7.098   0.614   7.326  0.0305 -0.3608 -0.5103
15911SOL    HW148546   7.138   0.528   7.316 -1.3560 -0.9497 -1.1666
15911SOL    HW248547   7.141   0.669   7.261  0.9215 -0.5514 -0.0880
15912SOL     OW48548   5.008   6.742   0.757  0.0118 -0.1770 -0.1519
15912SOL    HW148549   4.956   6.706   0.829 -0.5508  0.2761 -0.3311
15912SOL    HW248550   5.090   6.770   0.797  0.3514 -1.4185  0.0376
15913SOL     OW48551   4.633   3.339   1.448  0.0000  0.0361  0.0689
15913SOL    HW148552   4.634   3.287   1.367 -0.2918  1.4240 -0.8428
15913SOL    HW248553   4.548   3.318   1.488  0.2021 -0.7642  0.1007
15914SOL     OW48554   5.418   2.704   6.072 -0.2298 -0.2908  0.2923
15914SOL    HW148555   5.470   2.737   6.145 -1.2249 -0.2301  0.9811
15914SOL    HW248556   5.482   2.667   6.011  0.5827 -0.6409  1.3522
15915SOL     OW48557   6.856   1.746   6.717 -0.1157 -0.1751 -0.0597
15915SOL    HW148558   6.768   1.717   6.694 -0.3865  1.7331 -1.4569
15915SOL    HW248559   6.855   1.749   6.813 -1.0054 -1.8424  0.0078
15916SOL     OW48560   3.743   1.641   2.227  0.0902 -0.1778  1.1249
15916SOL    HW148561   3.744   1.594   2.143  2.0511  0.8484  0.5318
15916SOL    HW248562   3.791   1.584   2.287  0.2646 -0.0940  1.0665
15917SOL     OW48563   3.567   7.034   4.413 -0.2208 -0.5853 -0.2416
15917SOL    HW148564   3.643   6.984   4.443 -0.0423  0.6792  1.4697
15917SOL    HW248565   3.540   6.990   4.332  2.4123 -0.9646 -0.9710
15918SOL     OW48566   0.549   3.491   3.390  0.2378  0.0285 -0.1192
15918SOL    HW148567   0.643   3.495   3.372  0.3304 -0.1568  0.3099
15918SOL    HW248568   0.543   3.451   3.477 -0.2573 -0.3409 -0.3205
15919SOL     OW48569   3.112   6.747   0.234  0.0879  0.5190  0.5352
15919SOL    HW148570   3.144   6.816   0.176  0.0390 -0.2532 -0.4266
15919SOL    HW248571   3.185   6.729   0.292  0.4135  0.7601  0.2059
15920SOL     OW48572   6.367   0.507   4.582  0.2750 -0.0502  0.0560
15920SOL    HW148573   6.405   0.465   4.505 -0.4494 -0.8947  0.1491
15920SOL    HW248574   6.439   0.558   4.619  0.5107  0.7212 -1.4192
15921SOL     OW48575   2.030   7.776   3.708 -0.4965  0.2045 -0.0078
15921SOL    HW148576   1.942   7.805   3.729 -0.6212 -0.3029  0.1632
15921SOL    HW248577   2.047   7.703   3.767 -0.0687  0.1140 -0.2364
15922SOL     OW48578   7.992   7.975   1.956 -0.5183  0.1785 -0.3427
15922SOL    HW148579   8.022   8.043   2.017  0.9198 -1.0310  0.3128
15922SOL    HW248580   8.015   7.893   1.999 -0.9159 -0.7161 -1.8195
15923SOL     OW48581   4.033   4.156   7.807 -0.0430  0.4304 -0.0958
15923SOL    HW148582   4.098   4.135   7.874  0.7746  1.8061 -0.4323
15923SOL    HW248583   4.073   4.227   7.756 -1.3998  0.6296 -0.9169
15924SOL     OW48584   3.248   0.043   6.967  0.2164  0.1245 -0.4699
15924SOL    HW148585   3.172  -0.004   6.933 -1.1515  1.8335  0.1282
15924SOL    HW248586   3.307  -0.025   6.999 -0.5093 -1.2885 -2.0563
15925SOL     OW48587   4.894   1.665   6.552  0.6802 -0.2845  0.4616
15925SOL    HW148588   4.946   1.585   6.561  0.1454 -0.6500  0.4139
15925SOL    HW248589   4.896   1.705   6.639  0.5298 -0.6260  0.6280
15926SOL     OW48590   6.904   5.214   1.978  0.2376 -0.4832  0.1593
15926SOL    HW148591   6.918   5.295   2.027 -0.4777 -0.2974  0.0726
15926SOL    HW248592   6.899   5.242   1.886  1.5428 -0.8255 -0.0230
15927SOL     OW48593   7.830   0.570   1.029 -0.1006  0.2834  0.0150
15927SOL    HW148594   7.793   0.652   0.995 -1.7557 -0.7593 -0.7466
15927SOL    HW248595   7.804   0.569   1.121  0.6591  1.0142  0.2451
15928SOL     OW48596   0.110   2.294   4.350 -0.0145 -0.6473 -0.2118
15928SOL    HW148597   0.103   2.255   4.262 -1.6625 -1.2674  0.1717
15928SOL    HW248598   0.169   2.236   4.398 -0.2064 -1.0869 -0.5024
15929SOL     OW48599   0.245   0.452   1.752  0.1446 -0.3737 -0.6510
15929SOL    HW148600   0.287   0.415   1.675  0.5560 -0.4733 -0.3795
15929SOL    HW248601   0.237   0.378   1.813  0.9789 -0.0189 -0.1024
15930SOL     OW48602   5.436   5.765   2.317 -0.2248  0.0178  0.9133
15930SOL    HW148603   5.417   5.796   2.406  1.5355  0.7391  1.0548
15930SOL    HW248604   5.362   5.708   2.296 -1.1781  0.6405  2.4471
15931SOL     OW48605   0.418   5.750   7.612  0.3232  0.0342  0.1531
15931SOL    HW148606   0.489   5.814   7.606 -0.4343  1.0438  1.6556
15931SOL    HW248607   0.341   5.797   7.583  0.0446 -0.6999 -0.3092
15932SOL     OW48608   7.843   4.719   2.081 -0.0937 -0.2317 -0.3503
15932SOL    HW148609   7.912   4.664   2.119 -0.2759  1.0191  1.8881
15932SOL    HW248610   7.763   4.692   2.126 -0.1796  1.8660  0.8323
15933SOL     OW48611   6.414   2.694   7.995 -0.0362 -0.1462  0.2266
15933SOL    HW148612   6.331   2.701   7.948 -0.1419 -0.8989  0.3020
15933SOL    HW248613   6.453   2.781   7.986 -0.1541 -0.2147 -1.0766
15934SOL     OW48614   5.279   2.484   0.264 -0.4225  0.2409 -0.6399
15934SOL    HW148615   5.361   2.444   0.236  0.6698  2.0492 -0.0696
15934SOL    HW248616   5.248   2.531   0.187 -1.1058 -0.7018 -0.9517
15935SOL     OW48617   6.487   0.426   0.495  0.2557 -0.4630 -0.2591
15935SOL    HW148618   6.437   0.487   0.440  1.0950  0.2713 -0.2263
15935SOL    HW248619   6.476   0.459   0.584 -1.2500 -1.7583  0.0518
15936SOL     OW48620   5.565   1.307   5.919  0.6968  0.3446  0.5712
15936SOL    HW148621   5.626   1.373   5.952 -0.1063  1.0485  0.6729
15936SOL    HW248622   5.549   1.250   5.994 -0.3982  1.3988  1.1586
15937SOL     OW48623   5.141   4.370   6.852 -1.2006  1.2243  0.1806
15937SOL    HW148624   5.187   4.452   6.837  0.5092 -0.0967 -2.1082
15937SOL    HW248625   5.185   4.330   6.926 -0.3199  1.1836 -0.3600
15938SOL     OW48626   3.054   2.263   5.560 -0.0921 -0.1850 -0.2482
15938SOL    HW148627   3.077   2.201   5.492  2.6833  0.0906  0.3562
15938SOL    HW248628   2.963   2.242   5.583 -0.7764 -0.8456 -3.3571
15939SOL     OW48629   6.396   6.508   2.287 -0.1051  0.5168 -0.0235
15939SOL    HW148630   6.381   6.539   2.198  0.3499 -2.9037 -1.3909
15939SOL    HW248631   6.491   6.507   2.297 -0.1850  2.1720  1.0079
15940SOL     OW48632   0.791   5.988   3.627  0.5297  0.2044 -0.1776
15940SOL    HW148633   0.744   5.967   3.708 -0.2441 -0.0251 -0.6814
15940SOL    HW248634   0.864   5.926   3.626 -1.3253 -2.0613 -1.2935
15941SOL     OW48635   2.432   4.882   4.781 -0.1427 -0.0278 -0.3442
15941SOL    HW148636   2.422   4.850   4.691  2.0360 -0.3062 -0.5252
15941SOL    HW248637   2.386   4.966   4.782  1.4934  0.9422 -2.3007
15942SOL     OW48638   2.474   0.283   7.556  0.1290 -0.2196  0.2959
15942SOL    HW148639   2.494   0.377   7.554  0.2743 -0.2137  1.9028
15942SOL    HW248640   2.408   0.272   7.487  1.9206  0.6212 -1.6055
15943SOL     OW48641   5.404   1.151   5.712  0.0440  0.5727 -0.6217
15943SOL    HW148642   5.326   1.205   5.706 -1.1559 -0.9913  0.5548
15943SOL    HW248643   5.450   1.182   5.790 -1.5945 -1.2761  1.1318
15944SOL     OW48644   2.547   1.002   6.469  0.2728 -0.2801  0.2517
15944SOL    HW148645   2.510   0.914   6.480  0.0497 -0.2128  0.0310
15944SOL    HW248646   2.630   0.987   6.423 -2.0583  0.0288 -4.2529
15945SOL     OW48647   4.680   0.170   0.717  0.1949 -0.3404 -0.2474
15945SOL    HW148648   4.587   0.149   0.711  0.0200  0.6744 -1.1301
15945SOL    HW248649   4.685   0.265   0.703  1.4856 -0.5870 -1.5938
15946SOL     OW48650   5.360   1.300   1.642  0.0092  0.1909 -0.6253
15946SOL    HW148651   5.322   1.270   1.725 -1.4884 -0.5171 -1.5477
15946SOL    HW248652   5.453   1.275   1.648 -0.3148 -0.8271  0.3916
15947SOL     OW48653   2.015   6.650   5.201 -0.4073  0.3976  0.3951
15947SOL    HW148654   1.995   6.606   5.119  0.9137  2.1295 -0.9014
15947SOL    HW248655   1.937   6.703   5.219  0.4734  2.4249 -1.4352
15948SOL     OW48656   6.338   5.137   0.866 -0.1012  0.0879 -0.2201
15948SOL    HW148657   6.353   5.070   0.933  2.0016  2.2088  1.4872
15948SOL    HW248658   6.267   5.190   0.901 -0.8760 -0.4409 -0.9712
15949SOL     OW48659   3.198   3.612   6.251 -0.0126  0.5428 -0.0212
15949SOL    HW148660   3.149   3.533   6.228  1.9687 -0.7350  0.0164
15949SOL    HW248661   3.132   3.682   6.252 -2.1504 -1.4042  1.7497
15950SOL     OW48662   0.254   7.525   7.834 -0.0559  0.4697 -0.0572
15950SOL    HW148663   0.230   7.445   7.881  1.1027  0.4604  0.5334
15950SOL    HW248664   0.182   7.538   7.772 -0.5860 -0.6603  0.2937
15951SOL     OW48665   2.696   2.097   7.235 -0.0496  0.1047  0.4580
15951SOL    HW148666   2.633   2.161   7.267  0.1211  0.4403  0.1228
15951SOL    HW248667   2.731   2.136   7.155 -0.3175 -0.6261 -0.0214
15952SOL     OW48668   2.055   3.886   6.878 -0.2084 -0.6872  0.1250
15952SOL    HW148669   2.090   3.865   6.792  0.7305 -1.5339  0.7018
15952SOL    HW248670   2.131   3.909   6.930 -0.7451 -0.4138  0.7971
15953SOL     OW48671   2.851   3.562   7.993  0.4636  0.2462 -0.0127
15953SOL    HW148672   2.930   3.567   7.939 -0.2797  1.4608 -1.0101
15953SOL    HW248673   2.788   3.516   7.938 -0.1379  1.0267  0.0126
15954SOL     OW48674   1.378   1.012   0.475 -0.2212 -0.3576  0.1430
15954SOL    HW148675   1.406   1.099   0.504  2.3767 -0.7416 -1.0070
15954SOL    HW248676   1.431   0.952   0.527  0.1656 -1.1542 -1.1309
15955SOL     OW48677   0.008   7.643   1.531 -0.4633  0.5299  0.0733
15955SOL    HW148678   0.002   7.695   1.612  1.0587 -2.6887  2.3414
15955SOL    HW248679  -0.083   7.623   1.509 -0.8678  0.9463  1.3335
15956SOL     OW48680   2.897   1.816   2.514  0.0590  0.3933 -0.2762
15956SOL    HW148681   2.940   1.834   2.598 -0.6118  0.9958 -0.0590
15956SOL    HW248682   2.969   1.805   2.452  0.5577  0.0220  0.3622
15957SOL     OW48683   0.325   3.668   5.928  0.0473 -0.3699  0.5409
15957SOL    HW148684   0.237   3.705   5.924  0.7639  1.1353 -3.4597
15957SOL    HW248685   0.320   3.586   5.879  0.5632 -1.0944  1.6590
15958SOL     OW48686   0.802   0.800   1.063 -0.2498  0.0976 -0.2989
15958SOL    HW148687   0.723   0.772   1.109 -0.9366  0.4125 -1.2769
15958SOL    HW248688   0.777   0.801   0.971  0.2167  2.4645 -0.4170
15959SOL     OW48689   7.297   6.623   5.287 -0.4276  0.2066 -0.2145
15959SOL    HW148690   7.335   6.535   5.282  1.9591  1.1220  1.0609
15959SOL    HW248691   7.279   6.636   5.380  0.0469  1.3737 -0.2743
15960SOL     OW48692   6.298   1.905   2.500 -0.4665  0.0156 -0.2195
15960SOL    HW148693   6.280   1.847   2.425  1.6058 -1.2564  0.2348
15960SOL    HW248694   6.242   1.871   2.570 -0.3275 -0.5449 -0.3775
15961SOL     OW48695   1.753   3.362   6.113  0.2748 -0.4265  0.0871
15961SOL    HW148696   1.722   3.434   6.058 -0.7559 -1.5971 -0.8952
15961SOL    HW248697   1.834   3.332   6.070  0.7642  0.2136  0.5587
15962SOL     OW48698   1.454   2.297   6.929  0.1949  0.2677  0.2068
15962SOL    HW148699   1.479   2.375   6.979 -0.5561  0.4081  0.3671
15962SOL    HW248700   1.431   2.330   6.843  0.4978  0.1447  0.0768
15963SOL     OW48701   5.539   1.400   5.104 -0.0307 -0.0246  0.7109
15963SOL    HW148702   5.560   1.485   5.144 -0.7241 -0.0505  1.1471
15963SOL    HW248703   5.478   1.360   5.166 -0.9169 -0.1834 -0.2495
15964SOL     OW48704   6.059   3.537   1.027 -0.6787  0.4896 -0.0879
15964SOL    HW148705   6.150   3.535   1.057 -0.1078  0.5651 -1.7584
15964SOL    HW248706   6.064   3.565   0.935 -2.3103 -0.3689 -0.4707
15965SOL     OW48707   3.532   0.796   2.905 -0.6249  0.1758  0.0366
15965SOL    HW148708   3.473   0.721   2.899  1.6052 -1.4896 -1.6073
15965SOL    HW248709   3.474   0.872   2.899 -2.8252 -1.3911  0.9050
15966SOL     OW48710   1.512   5.201   1.779  0.3372  0.1026 -0.1342
15966SOL    HW148711   1.526   5.281   1.729 -1.2310  0.5739  0.1600
15966SOL    HW248712   1.558   5.215   1.862  1.5861 -0.0433 -0.7833
15967SOL     OW48713   0.328   7.830   3.236  0.2631  0.0272 -0.3049
15967SOL    HW148714   0.321   7.758   3.298  0.5861 -0.1539 -0.4820
15967SOL    HW248715   0.337   7.908   3.291 -3.1197  0.2921 -0.0320
15968SOL     OW48716   2.768   3.262   1.167 -0.0416 -0.6174  0.4595
15968SOL    HW148717   2.775   3.331   1.101 -1.6224 -0.2753  0.6410
15968SOL    HW248718   2.832   3.196   1.139  0.6933  0.4188 -0.3166
15969SOL     OW48719   2.192   2.607   7.877  0.2129 -0.2463 -0.8963
15969SOL    HW148720   2.263   2.629   7.937 -1.0993  0.8826  0.2685
15969SOL    HW248721   2.230   2.620   7.790  1.0603  1.6260 -0.2783
15970SOL     OW48722   0.174   6.331   3.234  0.2289 -0.0695 -0.1180
15970SOL    HW148723   0.246   6.319   3.171  1.2457  1.4844  0.7173
15970SOL    HW248724   0.210   6.301   3.317 -0.7640 -1.1285 -0.0678
15971SOL     OW48725   4.144   7.857   2.745 -0.1288 -0.3903  0.5421
15971SOL    HW148726   4.094   7.881   2.823  1.3307  1.8112  0.8413
15971SOL    HW248727   4.216   7.804   2.778 -0.8555 -1.4735  0.3998
15972SOL     OW48728   2.077   7.888   1.135 -0.2631 -0.1407  0.3814
15972SOL    HW148729   2.010   7.831   1.098 -1.2360  1.5110 -0.4499
15972SOL    HW248730   2.159   7.857   1.094 -1.0713  0.4373 -1.7638
15973SOL     OW48731   6.992   0.222   7.311  0.3373 -0.1133 -0.2984
15973SOL    HW148732   7.051   0.285   7.270 -0.9608  0.4392 -1.3555
15973SOL    HW248733   6.929   0.200   7.243 -1.1317 -0.1084  1.0194
15974SOL     OW48734   6.966   7.860   1.036  0.2606  0.2001 -0.0843
15974SOL    HW148735   6.889   7.855   1.092  0.2256  1.4495 -0.0151
15974SOL    HW248736   6.956   7.942   0.988  1.2462  0.0762 -0.5171
15975SOL     OW48737   3.462   4.393   5.171 -0.6196  0.3015 -1.1634
15975SOL    HW148738   3.506   4.474   5.144  1.4868 -0.3843  0.1388
15975SOL    HW248739   3.529   4.325   5.164 -2.4415 -1.4140 -2.4865
15976SOL     OW48740   1.230   3.447   5.021 -0.3166 -0.0068  0.5587
15976SOL    HW148741   1.145   3.415   4.991 -0.6263  0.5265  0.8539
15976SOL    HW248742   1.231   3.431   5.115 -0.4633  0.8122  0.7031
15977SOL     OW48743   1.482   0.671   7.507 -0.4851  0.2938 -0.3902
15977SOL    HW148744   1.430   0.745   7.536  1.2697  1.1308  0.6718
15977SOL    HW248745   1.562   0.675   7.559  0.4468 -1.2518 -1.6386
15978SOL     OW48746   0.012   6.477   4.754 -0.2071 -0.3746 -0.8324
15978SOL    HW148747  -0.066   6.466   4.808  0.4291  1.3912  0.5152
15978SOL    HW248748   0.084   6.448   4.810  0.3023 -0.0491 -1.3113
15979SOL     OW48749   2.881   0.831   7.852 -0.2636  0.3312 -0.1348
15979SOL    HW148750   2.843   0.764   7.795 -1.8347 -1.0152  2.4312
15979SOL    HW248751   2.873   0.912   7.801  0.1897 -1.1276 -2.6219
15980SOL     OW48752   4.010   1.026   4.399  0.0144 -0.9270 -0.2050
15980SOL    HW148753   3.920   1.025   4.367  0.2346 -2.4111 -0.8309
15980SOL    HW248754   4.007   0.975   4.480  0.1877 -0.5186  0.0574
15981SOL     OW48755   3.368   0.018   0.115 -0.0333  0.2394  0.1219
15981SOL    HW148756   3.456   0.001   0.083 -0.4268 -0.7411 -0.4380
15981SOL    HW248757   3.381   0.056   0.202  0.9256 -0.3766  0.2501
15982SOL     OW48758   7.810   5.033   1.654  0.1865 -0.1019  0.2029
15982SOL    HW148759   7.753   5.025   1.578 -0.9694  0.8619  0.9616
15982SOL    HW248760   7.789   5.118   1.691  2.9608  0.8022 -0.1702
15983SOL     OW48761   3.955   1.545   7.834 -0.0507 -0.7985 -0.0128
15983SOL    HW148762   3.897   1.566   7.761  2.0069  1.1805 -1.1896
15983SOL    HW248763   3.965   1.628   7.881  0.6774 -1.4333  0.9674
15984SOL     OW48764   6.469   7.806   3.521  0.2226  0.1418  0.2495
15984SOL    HW148765   6.456   7.793   3.615 -0.5200  0.7838  0.2380
15984SOL    HW248766   6.526   7.883   3.516  0.6057 -0.1448  0.1827
15985SOL     OW48767   6.792   6.789   2.308  0.5767  0.3157  0.0881
15985SOL    HW148768   6.842   6.727   2.255 -0.6979  1.6291 -2.7469
15985SOL    HW248769   6.765   6.857   2.247 -2.3929  1.0448  2.0757
15986SOL     OW48770   4.387   1.156   1.644  0.0473  0.8204  0.5986
15986SOL    HW148771   4.310   1.155   1.701  0.0292  1.5508  0.5862
15986SOL    HW248772   4.403   1.064   1.625 -1.9244  0.7217 -0.8738
15987SOL     OW48773   2.344   7.096   4.292 -0.4566 -0.3654  0.1715
15987SOL    HW148774   2.314   7.139   4.212 -0.5819 -1.8495 -0.5987
15987SOL    HW248775   2.275   7.114   4.356  0.4812  2.3178  0.4704
15988SOL     OW48776   0.781   4.854   3.972  0.5311 -0.1070  0.0882
15988SOL    HW148777   0.693   4.890   3.982  0.4104  0.2607 -2.0449
15988SOL    HW248778   0.839   4.927   3.994  0.2848  0.9064 -2.5284
15989SOL     OW48779   5.579   5.202   6.269  0.0372  0.6566 -0.1801
15989SOL    HW148780   5.647   5.183   6.333 -1.5331  0.4351  1.4634
15989SOL    HW248781   5.573   5.297   6.267 -1.3077  0.6432  1.5676
15990SOL     OW48782   1.863   7.797   2.957  0.0329 -0.0604 -0.3538
15990SOL    HW148783   1.810   7.830   3.028 -0.2104  0.7668 -0.9120
15990SOL    HW248784   1.825   7.835   2.878  2.2305  1.6075 -0.6585
15991SOL     OW48785   5.343   6.078   0.744  0.2899 -0.2212  0.0214
15991SOL    HW148786   5.291   6.101   0.821 -1.3258  2.5947 -1.8356
15991SOL    HW248787   5.426   6.125   0.756 -0.3457  1.0396 -0.3874
15992SOL     OW48788   7.557   3.754   1.991 -0.3047 -0.4662 -0.1581
15992SOL    HW148789   7.497   3.827   1.973 -0.0587 -0.3229 -0.4072
15992SOL    HW248790   7.505   3.676   1.976 -0.4096 -0.3420 -0.4585
15993SOL     OW48791   4.157   6.260   3.452 -0.3035  0.2702  0.2067
15993SOL    HW148792   4.154   6.168   3.425  0.7656  0.6282 -1.1541
15993SOL    HW248793   4.225   6.263   3.520  1.5134  0.5039 -1.5852
15994SOL     OW48794   5.897   3.690   4.057  0.0414 -0.0513  0.3444
15994SOL    HW148795   5.972   3.717   4.111  0.2753  1.4525 -0.6789
15994SOL    HW248796   5.931   3.618   4.004  1.2056  1.4470 -1.0309
15995SOL     OW48797   0.944   4.508   5.172  0.5413  0.2217  0.0400
15995SOL    HW148798   0.941   4.485   5.079  0.7150 -0.7591  0.2742
15995SOL    HW248799   1.016   4.457   5.208  1.2373  1.4853  0.4846
15996SOL     OW48800   1.944   4.725   0.064  0.2357 -0.1307 -0.1174
15996SOL    HW148801   1.880   4.697   0.129  1.0647 -0.3960  0.5972
15996SOL    HW248802   1.894   4.737  -0.016 -0.7456 -0.0916  0.4990
15997SOL     OW48803   7.940   2.184   2.552 -0.0687 -0.1484  0.5214
15997SOL    HW148804   7.946   2.279   2.540 -2.1667 -0.1716 -0.8565
15997SOL    HW248805   7.958   2.148   2.465 -0.4934 -0.9630  0.7686
15998SOL     OW48806   7.815   1.794   2.104  0.2239 -0.5411 -0.1918
15998SOL    HW148807   7.821   1.705   2.137 -0.2565 -1.0148 -1.3712
15998SOL    HW248808   7.755   1.838   2.164 -1.6484 -1.7385 -1.1253
15999SOL     OW48809   0.523   7.180   4.877 -0.3129 -0.2602  0.7217
15999SOL    HW148810   0.553   7.095   4.911 -0.6140 -0.7601 -0.2588
15999SOL    HW248811   0.433   7.188   4.909 -1.2450 -1.5760 -1.4514
16000SOL     OW48812   3.253   6.206   7.761  0.0284  0.2581  0.1520
16000SOL    HW148813   3.192   6.254   7.705 -0.6953  0.3781  1.0348
16000SOL    HW248814   3.282   6.133   7.708 -0.9421  0.1632 -0.2499
16001SOL     OW48815   3.089   3.197   4.413  0.1749 -0.7575  0.1027
16001SOL    HW148816   3.007   3.245   4.424  0.7221 -0.2373  1.9454
16001SOL    HW248817   3.069   3.108   4.444  0.3397 -0.6196  0.5895
16002SOL     OW48818   6.809   4.567   5.855  0.7110  0.5852  0.1936
16002SOL    HW148819   6.818   4.617   5.774  0.6788  0.6128  0.2071
16002SOL    HW248820   6.853   4.484   5.838  2.3510  1.3140  0.7751
16003SOL     OW48821   3.902   7.065   5.148 -0.0825 -0.2316  0.3484
16003SOL    HW148822   3.954   7.087   5.071  0.2879 -3.4814 -0.4185
16003SOL    HW248823   3.964   7.067   5.221  0.3930 -0.7835 -0.0370
16004SOL     OW48824   2.044   4.495   5.892  0.0232 -0.4450 -0.1454
16004SOL    HW148825   2.081   4.422   5.943  0.4596 -0.4145 -0.4116
16004SOL    HW248826   1.950   4.477   5.890  0.0991 -0.8820 -0.0138
16005SOL     OW48827   0.258   5.685   5.828 -0.3676 -0.0678  0.1715
16005SOL    HW148828   0.318   5.614   5.803 -0.8249 -0.1140 -0.8033
16005SOL    HW248829   0.250   5.677   5.923  1.0593 -0.1547  0.3009
16006SOL     OW48830   1.286   1.293   4.411  0.2782 -0.3123 -0.3049
16006SOL    HW148831   1.236   1.218   4.444 -0.6829 -1.0593 -3.2375
16006SOL    HW248832   1.341   1.320   4.484 -1.8392 -1.7307  1.8967
16007SOL     OW48833   2.415   4.340   0.230 -0.6917 -0.2967  0.3800
16007SOL    HW148834   2.413   4.316   0.323 -0.1438 -1.2730  0.1533
16007SOL    HW248835   2.351   4.281   0.189 -0.0634 -0.6893 -0.0399
16008SOL     OW48836   6.656   5.847   4.751 -0.3560 -0.5790  0.3019
16008SOL    HW148837   6.662   5.892   4.836 -1.5904 -1.7751  1.0310
16008SOL    HW248838   6.740   5.802   4.742  0.1252  0.2685  0.4651
16009SOL     OW48839   1.862   2.234   3.235  0.6450  0.0032 -0.3796
16009SOL    HW148840   1.836   2.308   3.180  1.4799  1.1645  0.7821
16009SOL    HW248841   1.790   2.223   3.297  0.7236  0.1315 -0.2654
16010SOL     OW48842   4.927   7.451   1.773  0.2896 -0.0382 -0.4679
16010SOL    HW148843   4.997   7.439   1.838 -0.1672 -1.0392 -0.1430
16010SOL    HW248844   4.902   7.543   1.781  1.0185  0.1188 -0.0132
16011SOL     OW48845   5.820   2.538   5.155 -0.1819  0.4373  0.0961
16011SOL    HW148846   5.910   2.506   5.163  0.2692  2.1477  2.7101
16011SOL    HW248847   5.804   2.543   5.061  2.3255 -0.2165 -0.4051
16012SOL     OW48848   3.465   3.256   3.487  0.2479  0.0030 -0.7731
16012SOL    HW148849   3.514   3.296   3.560 -0.5726  0.0286 -0.2283
16012SOL    HW248850   3.533   3.220   3.430  0.8955 -0.5595  0.3165
16013SOL     OW48851   0.447   4.141   7.259  0.0191 -0.5375 -0.2080
16013SOL    HW148852   0.403   4.221   7.286 -1.3380 -1.2009 -0.3889
16013SOL    HW248853   0.459   4.151   7.164 -0.1097 -0.5381 -0.2236
16014SOL     OW48854   2.913   3.203   4.967  0.1813 -0.0959 -0.6027
16014SOL    HW148855   2.827   3.225   5.004  0.6839  1.6811 -0.4593
16014SOL    HW248856   2.910   3.237   4.878  0.9934  0.6804 -0.3492
16015SOL     OW48857   7.665   2.425   3.201 -0.0465 -0.3094  0.5491
16015SOL    HW148858   7.737   2.485   3.179  2.3565 -3.6135 -1.0443
16015SOL    HW248859   7.666   2.422   3.297  0.3305  1.5408  0.6311
16016SOL     OW48860   0.851   4.389   5.492 -0.8231  0.2925  0.4113
16016SOL    HW148861   0.905   4.353   5.421 -0.6408 -0.0783  0.7341
16016SOL    HW248862   0.863   4.483   5.486  0.8119  0.1594  1.2212
16017SOL     OW48863   5.273   6.229   4.728  0.0151  0.5321 -0.0616
16017SOL    HW148864   5.261   6.323   4.710 -0.6146  0.7506  1.3475
16017SOL    HW248865   5.367   6.217   4.732  0.1392  0.7371 -2.0256
16018SOL     OW48866   2.685   2.493   3.136 -0.2058  0.7281 -0.5767
16018SOL    HW148867   2.771   2.452   3.141 -1.1705 -1.1490  1.9226
16018SOL    HW248868   2.689   2.549   3.059  1.9631 -2.2964 -2.8023
16019SOL     OW48869   5.260   4.049   6.465  0.1960 -0.6984 -0.2268
16019SOL    HW148870   5.300   4.005   6.540  0.2269 -0.0801  0.1213
16019SOL    HW248871   5.190   3.991   6.437  0.0286 -0.8082  0.4347
16020SOL     OW48872   5.328   4.900   3.471  0.0599 -0.0458  0.5073
16020SOL    HW148873   5.375   4.849   3.537 -0.1651 -0.4238  0.3805
16020SOL    HW248874   5.271   4.836   3.428  0.8676  0.0045 -0.6735
16021SOL     OW48875   0.193   5.993   3.241  0.1353  0.6800 -0.2913
16021SOL    HW148876   0.137   5.963   3.313  1.3266  2.3398  1.3941
16021SOL    HW248877   0.263   6.043   3.285  2.2815 -0.3730 -2.4190
16022SOL     OW48878   0.765   1.247   1.420  0.2286  0.0148  0.2555
16022SOL    HW148879   0.672   1.234   1.438 -0.3326  1.2608 -1.6284
16022SOL    HW248880   0.796   1.301   1.493 -0.8872  0.9050  0.0796
16023SOL     OW48881   2.597   5.234   3.810 -0.2865 -0.0973 -0.3754
16023SOL    HW148882   2.542   5.276   3.744 -1.2565  1.0012  1.1168
16023SOL    HW248883   2.675   5.290   3.815 -0.2204 -0.1711 -0.5631
16024SOL     OW48884   2.183   0.535   4.682 -0.0610  0.2671  0.2253
16024SOL    HW148885   2.238   0.501   4.611 -1.2982 -0.4140 -0.4327
16024SOL    HW248886   2.114   0.468   4.692  1.1050 -0.5334  3.2810
16025SOL     OW48887   6.150   1.838   3.810  0.1502  0.2203  0.3075
16025SOL    HW148888   6.114   1.756   3.845  0.1092  0.7439  1.5411
16025SOL    HW248889   6.240   1.816   3.784 -0.2111 -0.4672 -0.3487
16026SOL     OW48890   3.501   7.427   7.473 -0.1614 -0.4047  0.0108
16026SOL    HW148891   3.405   7.425   7.470 -0.1943 -0.5939  1.0732
16026SOL    HW248892   3.523   7.423   7.566  0.8558  1.3114 -0.1265
16027SOL     OW48893   6.834   2.991   7.359  0.0523  0.0636  0.2178
16027SOL    HW148894   6.777   2.945   7.420 -1.1746 -0.1331 -1.0631
16027SOL    HW248895   6.776   3.051   7.311  0.8728 -0.2132 -1.1618
16028SOL     OW48896   7.978   1.155   6.010 -0.2849  0.2340  0.6337
16028SOL    HW148897   7.961   1.233   5.958 -0.4240  0.2887  0.7606
16028SOL    HW248898   7.912   1.158   6.079  0.5538  0.7276  1.4317
16029SOL     OW48899   5.997   0.117   7.234  0.0525 -0.9852  0.4577
16029SOL    HW148900   5.942   0.190   7.207  1.4081 -1.1694 -3.0852
16029SOL    HW248901   5.955   0.040   7.197  0.2108 -1.6744  1.6890
16030SOL     OW48902   4.495   3.568   5.000  0.2889  0.3245 -0.1694
16030SOL    HW148903   4.442   3.557   5.080  1.7275  0.5101  0.8157
16030SOL    HW248904   4.492   3.661   4.981  0.1707  0.3176 -0.1874
16031SOL     OW48905   0.973   5.684   5.921  0.1128  0.0283 -0.2175
16031SOL    HW148906   1.067   5.693   5.936  0.1071  0.3549 -0.3794
16031SOL    HW248907   0.935   5.688   6.009  0.2993 -0.7398 -0.0956
16032SOL     OW48908   4.344   7.717   4.274 -0.1769  0.1955 -0.0551
16032SOL    HW148909   4.349   7.648   4.340 -0.3059  1.1543  0.9754
16032SOL    HW248910   4.325   7.671   4.192 -0.5925 -0.9431  0.6719
16033SOL     OW48911   5.524   2.391   4.534  0.4832  0.2234 -0.4948
16033SOL    HW148912   5.619   2.389   4.524  0.4265 -2.4841 -0.9850
16033SOL    HW248913   5.500   2.299   4.548 -1.9365  1.0264  0.9078
16034SOL     OW48914   4.720   4.150   6.821  0.3981  0.5105 -0.1533
16034SOL    HW148915   4.807   4.164   6.784  1.2734  0.9968  2.0747
16034SOL    HW248916   4.699   4.059   6.798  1.2285  0.5687 -1.1884
16035SOL     OW48917   4.546   4.005   5.397 -0.1297  0.0643 -0.2885
16035SOL    HW148918   4.613   4.001   5.328  0.3335  0.4792  0.1302
16035SOL    HW248919   4.595   4.025   5.476 -0.4805 -1.8606  0.4422
16036SOL     OW48920   3.586   0.984   1.590 -0.0870  0.0206  0.1130
16036SOL    HW148921   3.613   0.896   1.562 -1.4187 -0.7293  1.1276
16036SOL    HW248922   3.497   0.993   1.556 -0.1502  0.7762  0.4760
16037SOL     OW48923   1.656   2.805   5.058  0.1277  0.1612 -0.0039
16037SOL    HW148924   1.608   2.886   5.074 -0.2512  0.3646 -1.9538
16037SOL    HW248925   1.610   2.738   5.108 -1.8012  0.4831 -1.2793
16038SOL     OW48926   0.092   0.522   7.709 -0.2622  0.4194 -0.2020
16038SOL    HW148927   0.032   0.567   7.768  0.5296  0.5978  0.4666
16038SOL    HW248928   0.067   0.430   7.715 -0.4742  0.4940  0.0671
16039SOL     OW48929   4.156   6.525   5.572  0.0679 -0.4017  0.9096
16039SOL    HW148930   4.239   6.516   5.617  0.5048  0.1553  0.2316
16039SOL    HW248931   4.098   6.567   5.635  0.4095 -0.4467  1.2500
16040SOL     OW48932   1.619   2.350   7.249  0.4751 -0.4538  0.1836
16040SOL    HW148933   1.649   2.264   7.276 -1.9654 -1.7990 -1.2304
16040SOL    HW248934   1.661   2.365   7.165  1.3862  0.0420  0.7125
16041SOL     OW48935   6.448   0.742   6.978 -0.3890  0.1506  0.3093
16041SOL    HW148936   6.439   0.649   6.956 -1.1539  0.3664 -0.3316
16041SOL    HW248937   6.376   0.785   6.930  1.9559  1.4985 -2.1540
16042SOL     OW48938   4.337   2.275   0.119  0.0098 -0.4922  0.3323
16042SOL    HW148939   4.256   2.295   0.166 -1.1158 -0.4617 -1.5889
16042SOL    HW248940   4.366   2.191   0.155 -1.3921 -0.9788  0.3498
16043SOL     OW48941   2.755   1.318   1.822 -0.4727  0.6579  0.9855
16043SOL    HW148942   2.734   1.289   1.911  0.3176  0.4885  1.1186
16043SOL    HW248943   2.738   1.412   1.823 -0.4764  0.6540  1.3091
16044SOL     OW48944   5.915   3.740   3.735 -0.1088  0.5060  0.3626
16044SOL    HW148945   5.832   3.717   3.777 -0.4319  0.7468 -0.1403
16044SOL    HW248946   5.901   3.828   3.700  0.1827  0.3367 -0.1895
16045SOL     OW48947   1.394   1.339   2.059  0.1083 -0.3603 -0.1894
16045SOL    HW148948   1.393   1.426   2.019  3.0726  0.2134  0.9241
16045SOL    HW248949   1.336   1.346   2.135  0.3790  0.6528 -0.0773
16046SOL     OW48950   2.177   3.989   3.131 -0.0237 -0.4829  0.2953
16046SOL    HW148951   2.262   3.951   3.110  0.1350  0.0005  0.0581
16046SOL    HW248952   2.193   4.083   3.137 -0.7626 -0.2621 -0.9346
16047SOL     OW48953   0.520   2.350   7.168 -0.5388 -0.1716 -0.4596
16047SOL    HW148954   0.547   2.442   7.172 -0.8953 -0.0690 -0.4662
16047SOL    HW248955   0.428   2.350   7.193  0.0993 -0.8306  2.0431
16048SOL     OW48956   5.187   0.587   3.912 -0.3086 -0.6863 -0.0040
16048SOL    HW148957   5.266   0.554   3.870 -0.0404 -0.3058  0.1974
16048SOL    HW248958   5.162   0.518   3.973  0.4014 -0.4060  0.6114
16049SOL     OW48959   2.490   0.430   3.967  0.3112  0.1373 -0.2558
16049SOL    HW148960   2.440   0.452   3.888  0.9482  1.5160 -0.2860
16049SOL    HW248961   2.579   0.456   3.946  0.0234  3.0760  1.9052
16050SOL     OW48962   0.499   4.001   6.305 -0.5443  0.2395 -0.1783
16050SOL    HW148963   0.471   3.920   6.262 -0.3175 -0.0695  0.2522
16050SOL    HW248964   0.417   4.045   6.330 -0.6640 -0.2444  0.3003
16051SOL     OW48965   5.983   5.921   3.057  0.0335 -0.3550  0.3471
16051SOL    HW148966   6.050   5.941   3.122 -1.0616  3.3220  0.4266
16051SOL    HW248967   5.900   5.937   3.102 -0.7454  1.9456 -1.8285
16052SOL     OW48968   3.500   1.233   5.957  0.2463  0.6213 -0.0562
16052SOL    HW148969   3.502   1.142   5.925  3.3200  0.9178 -0.9234
16052SOL    HW248970   3.485   1.225   6.051 -0.0986 -0.7597 -0.2202
16053SOL     OW48971   5.886   1.018   6.417  0.2126 -0.3784 -0.5765
16053SOL    HW148972   5.930   1.103   6.426  1.9576 -1.1915 -1.2408
16053SOL    HW248973   5.823   1.016   6.489  0.3796  1.3448 -0.3692
16054SOL     OW48974   2.012   5.876   0.187 -0.0732 -0.3759 -0.2760
16054SOL    HW148975   2.033   5.797   0.137  0.8658 -0.2794 -0.0433
16054SOL    HW248976   2.073   5.874   0.262 -0.6357  0.1109  0.1987
16055SOL     OW48977   5.227   7.571   3.575  0.0542  0.0930 -0.5376
16055SOL    HW148978   5.195   7.496   3.526 -2.2994  0.6142  0.1405
16055SOL    HW248979   5.154   7.632   3.576  0.7162  0.9185  1.9551
16056SOL     OW48980   4.698   0.290   1.000 -0.0720 -0.2046  0.0729
16056SOL    HW148981   4.744   0.230   1.058 -0.6340 -0.6751  0.0454
16056SOL    HW248982   4.714   0.255   0.912  0.5971  0.3807 -0.0421
16057SOL     OW48983   1.067   6.349   5.031 -0.0861  0.1210  0.9788
16057SOL    HW148984   1.042   6.373   4.942  0.1590 -0.5805  0.7150
16057SOL    HW248985   1.049   6.427   5.083 -0.4612  0.4531  0.3570
16058SOL     OW48986   1.882   4.967   2.270 -0.1327  0.2296 -0.0853
16058SOL    HW148987   1.885   4.935   2.180 -0.2034 -0.3759  0.1287
16058SOL    HW248988   1.899   5.061   2.263  0.6677  0.0440 -0.6510
16059SOL     OW48989   3.033   4.900   7.013 -0.3360 -0.4010 -0.4466
16059SOL    HW148990   3.102   4.836   6.991 -1.4176 -1.2761 -1.3785
16059SOL    HW248991   3.024   4.953   6.934 -0.2616  0.1527 -0.0825
16060SOL     OW48992   7.730   6.829   7.311 -0.6433  0.9084  0.0160
16060SOL    HW148993   7.825   6.833   7.301 -0.5353 -0.8280  0.2042
16060SOL    HW248994   7.699   6.798   7.226 -0.8541 -0.6723  0.6647
16061SOL     OW48995   6.975   0.829   3.759 -0.3791 -0.0754 -0.0334
16061SOL    HW148996   7.038   0.784   3.702 -0.2853 -0.2990  0.2476
16061SOL    HW248997   6.890   0.794   3.731 -0.3183 -0.3193  0.0869
16062SOL     OW48998   6.050   7.903   2.214  1.5766  0.7842 -0.5234
16062SOL    HW148999   5.964   7.929   2.248  1.2412 -0.6387 -0.2534
16062SOL    HW249000   6.089   7.984   2.182  0.1438  1.4495 -0.6061
16063SOL     OW49001   3.791   3.145   5.094 -0.1249  0.4814 -0.1156
16063SOL    HW149002   3.762   3.055   5.109  0.7611 -0.0123 -1.3456
16063SOL    HW249003   3.861   3.158   5.158 -1.3551  0.8515  1.1749
16064SOL     OW49004   0.984   6.324   0.868  0.2472  0.0992  0.2192
16064SOL    HW149005   1.035   6.301   0.945  0.0281 -0.1952  0.2756
16064SOL    HW249006   0.893   6.319   0.896  0.1040 -1.5693 -0.4717
16065SOL     OW49007   4.661   0.598   4.573  0.2005 -0.1384 -0.1989
16065SOL    HW149008   4.616   0.671   4.530 -2.4222 -2.0790 -0.8124
16065SOL    HW249009   4.730   0.641   4.625 -0.6560  2.6915 -1.2738
16066SOL     OW49010   5.574   7.764   0.823  0.2012  0.9132 -0.5253
16066SOL    HW149011   5.498   7.809   0.786 -0.4962  0.2704  0.0858
16066SOL    HW249012   5.580   7.682   0.773 -0.1989  0.4549  0.1621
16067SOL     OW49013   1.412   6.415   0.875  0.0850 -0.1774  0.5266
16067SOL    HW149014   1.429   6.419   0.969 -0.5764 -0.4819  0.6601
16067SOL    HW249015   1.497   6.434   0.835  0.7919 -1.8538  1.1812
16068SOL     OW49016   6.024   1.805   2.943  0.4254  0.3011 -0.0444
16068SOL    HW149017   6.032   1.894   2.978  1.5419  0.6459 -1.1442
16068SOL    HW249018   5.934   1.779   2.965  0.3029  1.4381  0.8765
16069SOL     OW49019   5.285   5.208   7.262  1.0453 -0.2948  0.5581
16069SOL    HW149020   5.311   5.299   7.272  0.8967 -0.4592  2.5498
16069SOL    HW249021   5.201   5.212   7.217  0.6747  0.5907  1.3127
16070SOL     OW49022   5.476   1.002   1.425 -0.3006 -0.0954  0.3283
16070SOL    HW149023   5.466   0.954   1.342 -0.1961  0.4163  0.0130
16070SOL    HW249024   5.399   1.058   1.429  0.2627  0.7212  0.0049
16071SOL     OW49025   5.753   1.420   5.405  0.1244 -0.3010  0.4847
16071SOL    HW149026   5.768   1.326   5.413 -0.6835 -0.5549 -0.8470
16071SOL    HW249027   5.821   1.450   5.345 -0.8357 -0.3961 -0.6735
16072SOL     OW49028   4.058   3.887   4.915  0.1011 -0.4757 -0.1787
16072SOL    HW149029   4.123   3.880   4.845  0.4375 -1.7690  0.2681
16072SOL    HW249030   4.002   3.959   4.887  0.5785 -0.6045 -1.5084
16073SOL     OW49031   2.854   7.485   6.601  0.0770 -0.1077 -0.1468
16073SOL    HW149032   2.885   7.425   6.669 -0.5791  1.2399  1.3832
16073SOL    HW249033   2.759   7.469   6.598 -0.2722  1.6437  1.0882
16074SOL     OW49034   5.883   6.800   7.442  0.0711  0.2278  0.2860
16074SOL    HW149035   5.935   6.810   7.522  0.1955  0.6498  0.1518
16074SOL    HW249036   5.792   6.803   7.473  0.1212 -0.2766  0.4909
16075SOL     OW49037   2.467   7.399   1.064  0.3009  0.0668  0.5609
16075SOL    HW149038   2.453   7.315   1.020 -2.1095  1.2134 -0.9214
16075SOL    HW249039   2.562   7.410   1.066  0.5819 -2.0390 -0.4580
16076SOL     OW49040   0.470   7.516   0.052  0.7964  0.5007 -0.5357
16076SOL    HW149041   0.385   7.493   0.015  1.4024 -1.6722 -0.6206
16076SOL    HW249042   0.456   7.515   0.147  0.9740 -0.8568 -0.5215
16077SOL     OW49043   0.439   6.097   2.755  0.2655  0.2894  0.1635
16077SOL    HW149044   0.380   6.096   2.830  1.2673  0.8817  0.9857
16077SOL    HW249045   0.450   6.005   2.732  0.2270  0.0663  0.9948
16078SOL     OW49046   0.048   5.909   3.967  0.9552 -0.7942 -0.4135
16078SOL    HW149047   0.045   5.867   4.053 -1.0721 -0.1558 -0.1654
16078SOL    HW249048  -0.015   5.860   3.914 -0.9363  1.4862 -0.3114
16079SOL     OW49049   4.342   5.080   3.209 -0.0444 -0.4580 -0.1456
16079SOL    HW149050   4.391   5.104   3.130 -1.0731  1.5366 -0.2220
16079SOL    HW249051   4.319   5.164   3.249 -3.3682 -1.3398 -0.0835
16080SOL     OW49052   0.549   2.412   2.603 -0.3999 -0.4491  0.0664
16080SOL    HW149053   0.594   2.393   2.686 -0.8827 -0.3754  0.3483
16080SOL    HW249054   0.490   2.338   2.591 -2.2176  0.8029  1.1157
16081SOL     OW49055   2.978   7.356   2.324  0.0613  0.7557  0.6743
16081SOL    HW149056   3.050   7.347   2.387 -0.1490 -2.8462  0.5407
16081SOL    HW249057   2.899   7.352   2.378 -0.1035 -1.6025  0.3319
16082SOL     OW49058   4.136   5.735   0.035  0.0844 -0.6788  0.3825
16082SOL    HW149059   4.231   5.722   0.034  0.1074 -0.4722 -0.1238
16082SOL    HW249060   4.113   5.748  -0.057 -0.2093  0.9102  0.6721
16083SOL     OW49061   6.511   5.895   0.599  0.0015  0.4655  0.2098
16083SOL    HW149062   6.474   5.868   0.516 -1.2028  0.8875  0.6004
16083SOL    HW249063   6.599   5.857   0.600 -0.0787  0.2345 -1.1249
16084SOL     OW49064   0.704   7.327   0.206 -0.6760 -0.1348 -0.3805
16084SOL    HW149065   0.704   7.387   0.132 -0.5378  0.0004 -0.2709
16084SOL    HW249066   0.721   7.382   0.282  0.8534 -0.5046 -0.4310
16085SOL     OW49067   6.711   3.495   3.127  0.5589  0.5391  0.3112
16085SOL    HW149068   6.749   3.522   3.043  0.0042 -3.0558 -1.1820
16085SOL    HW249069   6.641   3.558   3.143  2.5567  3.0392 -0.3857
16086SOL     OW49070   4.962   6.747   3.370 -0.3524  0.0354 -0.0303
16086SOL    HW149071   4.964   6.655   3.344  1.2838  0.4338 -1.4078
16086SOL    HW249072   5.049   6.780   3.348 -0.9062  1.9095  0.4854
16087SOL     OW49073   2.588   6.221   4.326 -0.8761  0.5546  0.3406
16087SOL    HW149074   2.516   6.264   4.373 -1.2256  1.4951 -1.0324
16087SOL    HW249075   2.569   6.237   4.233 -0.8909 -2.3884 -0.2013
16088SOL     OW49076   5.820   4.922   7.332 -0.0138 -0.0716  0.2475
16088SOL    HW149077   5.778   4.997   7.374 -0.5548 -0.8633  1.1396
16088SOL    HW249078   5.748   4.879   7.285  0.4804  0.4979 -1.0446
16089SOL     OW49079   4.559   1.852   5.344  0.0512  0.5617  0.6062
16089SOL    HW149080   4.474   1.833   5.304 -0.6021 -0.2433  2.2729
16089SOL    HW249081   4.562   1.947   5.351 -0.2285  0.6573 -0.4572
16090SOL     OW49082   6.648   6.522   7.863  0.4377 -0.2393  0.0822
16090SOL    HW149083   6.622   6.592   7.803 -1.4688 -1.3896 -0.5079
16090SOL    HW249084   6.733   6.549   7.896  0.2527  1.8023 -0.9880
16091SOL     OW49085   2.039   0.240   3.911 -0.0822  0.1230 -0.1794
16091SOL    HW149086   2.044   0.279   3.823 -0.5250  1.7253  0.4781
16091SOL    HW249087   2.130   0.221   3.934 -0.0756 -1.5301 -1.5002
16092SOL     OW49088   2.769   4.052   7.196 -0.1920  0.0692 -0.5344
16092SOL    HW149089   2.686   4.092   7.168 -0.1726 -0.2130 -1.0016
16092SOL    HW249090   2.748   4.010   7.280  0.4561  3.3627  1.3441
16093SOL     OW49091   5.949   4.864   3.909  0.2490 -0.2198  0.0267
16093SOL    HW149092   5.988   4.950   3.922 -1.0523  0.5048 -0.6721
16093SOL    HW249093   5.864   4.883   3.869 -0.4869 -1.7819  0.8291
16094SOL     OW49094   2.092   0.479   5.969 -0.8116  0.1125 -0.2958
16094SOL    HW149095   2.075   0.510   5.880  0.3092 -1.5167 -1.1173
16094SOL    HW249096   2.023   0.414   5.985 -1.6309  1.1564  0.4278
16095SOL     OW49097   6.939   0.912   0.402 -0.4000  0.1947  0.2938
16095SOL    HW149098   6.986   0.858   0.465 -1.7332 -0.0674  1.0915
16095SOL    HW249099   6.963   0.877   0.317  1.3025  0.4500  0.6591
16096SOL     OW49100   3.771   3.377   1.943  0.2298 -0.8754  0.0969
16096SOL    HW149101   3.713   3.391   1.869  0.0182 -1.8131  0.0834
16096SOL    HW249102   3.836   3.314   1.912  1.3502  0.2662  0.0640
16097SOL     OW49103   7.896   5.300   2.799  0.5486 -0.3448  0.3999
16097SOL    HW149104   7.844   5.238   2.850  1.2684 -2.5245 -1.4280
16097SOL    HW249105   7.986   5.282   2.824  0.7951 -0.3849 -0.5084
16098SOL     OW49106   4.971   3.332   0.548 -0.5371 -0.5355 -0.6650
16098SOL    HW149107   5.016   3.288   0.476  0.9993  0.8282 -0.5802
16098SOL    HW249108   4.983   3.426   0.530 -0.9822 -0.1689  0.8425
16099SOL     OW49109   1.478   0.772   0.252  1.1162  0.7408  0.2272
16099SOL    HW149110   1.513   0.704   0.194  0.4773  0.1689  0.5118
16099SOL    HW249111   1.555   0.821   0.280  1.6411 -0.1976  0.4449
16100SOL     OW49112   5.987   3.170   4.796 -0.4282 -0.2080  0.0300
16100SOL    HW149113   5.935   3.211   4.865 -0.1026 -1.1091  0.8231
16100SOL    HW249114   6.076   3.170   4.830 -0.3507 -1.1766 -0.1400
16101SOL     OW49115   2.767   6.272   1.401  0.7076 -0.6027  1.2363
16101SOL    HW149116   2.846   6.270   1.454  1.6482 -0.2411 -0.1232
16101SOL    HW249117   2.724   6.354   1.425  1.9813  0.3739  0.2553
16102SOL     OW49118   2.337   3.820   0.885 -0.7097  0.5675 -0.3918
16102SOL    HW149119   2.298   3.906   0.901 -0.3302  1.2347 -2.8171
16102SOL    HW249120   2.268   3.757   0.909 -1.2222  1.5436  0.7450
16103SOL     OW49121   3.445   0.377   3.110 -0.0126  0.1970 -0.2057
16103SOL    HW149122   3.405   0.308   3.056  3.6277 -2.1911 -0.0241
16103SOL    HW249123   3.442   0.455   3.054 -3.0017 -0.3674 -0.9320
16104SOL     OW49124   3.782   1.449   1.238 -0.2637 -0.1127  0.1823
16104SOL    HW149125   3.742   1.411   1.160  0.0762  2.6384 -1.4131
16104SOL    HW249126   3.867   1.405   1.246 -0.3438 -0.4824 -0.9437
16105SOL     OW49127   4.045   7.294   7.465  0.1522 -0.0189 -0.0679
16105SOL    HW149128   4.109   7.307   7.534  0.5442 -0.7097 -0.2871
16105SOL    HW249129   3.965   7.267   7.511  0.6054 -1.1490  0.0817
16106SOL     OW49130   7.586   6.371   7.555 -0.2118  0.2862 -0.3723
16106SOL    HW149131   7.538   6.344   7.476  1.6859 -0.8164 -1.1690
16106SOL    HW249132   7.563   6.464   7.566 -1.7398  0.0381 -1.3038
16107SOL     OW49133   7.779   1.971   1.399 -0.3451  0.1205  0.5565
16107SOL    HW149134   7.798   1.885   1.438 -0.2925  0.8822  2.2225
16107SOL    HW249135   7.851   2.027   1.428 -0.1871  0.6423 -0.8383
16108SOL     OW49136   5.885   4.816   2.683 -0.4758  0.3242 -0.3137
16108SOL    HW149137   5.843   4.852   2.761  1.2283  1.3830  0.1422
16108SOL    HW249138   5.977   4.803   2.709 -0.5438 -2.1425 -1.2025
16109SOL     OW49139   1.285   1.932   3.272  0.3545  0.3088 -0.3975
16109SOL    HW149140   1.284   1.946   3.177 -0.2038  0.0033 -0.4414
16109SOL    HW249141   1.230   2.002   3.306 -0.0540 -0.0233 -0.3669
16110SOL     OW49142   3.942   1.470   4.982  0.1646 -0.2737 -0.3372
16110SOL    HW149143   3.933   1.464   5.077 -0.3734 -1.0927 -0.4354
16110SOL    HW249144   3.936   1.564   4.963  2.1400  0.0897  0.6125
16111SOL     OW49145   7.554   7.019   1.148  0.1300  0.7308 -0.0847
16111SOL    HW149146   7.636   7.006   1.099 -1.0315 -2.5306 -1.2466
16111SOL    HW249147   7.580   7.074   1.222  2.9067  1.6874 -1.6603
16112SOL     OW49148   5.260   0.217   0.634  0.0172 -0.1415  0.2711
16112SOL    HW149149   5.198   0.225   0.707 -0.3888  0.3639 -0.1226
16112SOL    HW249150   5.272   0.307   0.603 -0.6875 -0.4735 -1.0102
16113SOL     OW49151   5.696   6.468   2.334  0.3851 -0.4010 -0.5151
16113SOL    HW149152   5.764   6.535   2.331  1.2967 -1.3070 -0.4032
16113SOL    HW249153   5.687   6.439   2.244 -0.8090  0.6475 -0.7479
16114SOL     OW49154   4.679   2.844   4.776 -0.1979 -0.2872 -0.0996
16114SOL    HW149155   4.691   2.760   4.820 -1.1629 -0.9833 -1.1273
16114SOL    HW249156   4.625   2.823   4.699 -0.4350  1.2643 -0.3694
16115SOL     OW49157   5.027   1.925   4.543 -0.0355 -0.2501  0.2856
16115SOL    HW149158   5.031   1.890   4.454  1.5380 -1.3869  0.7775
16115SOL    HW249159   5.092   1.875   4.592 -0.9100  0.3266  2.1041
16116SOL     OW49160   0.054   3.846   7.089 -0.0556  0.1166 -0.1692
16116SOL    HW149161   0.099   3.809   7.013 -1.1652  0.2539 -0.8973
16116SOL    HW249162   0.091   3.798   7.163  0.3383 -0.6995 -0.8739
16117SOL     OW49163   0.936   1.460   4.436 -0.2901 -0.4903 -0.8590
16117SOL    HW149164   0.847   1.433   4.413 -0.1593  0.3980 -2.4183
16117SOL    HW249165   0.978   1.379   4.467 -1.0782 -1.2786 -1.8306
16118SOL     OW49166   5.922   4.767   7.521 -0.1996 -0.1817  0.4434
16118SOL    HW149167   5.875   4.830   7.467  0.7212  0.4241  0.3415
16118SOL    HW249168   5.986   4.727   7.462 -0.8104 -1.2532  0.4954
16119SOL     OW49169   4.660   6.937   5.370  0.2873  0.2890  0.5159
16119SOL    HW149170   4.618   6.946   5.284  0.3029 -2.3896  0.1862
16119SOL    HW249171   4.753   6.921   5.349  0.2177 -0.7654  1.0035
16120SOL     OW49172   1.506   2.973   6.107  0.3550 -0.0289  0.0312
16120SOL    HW149173   1.496   3.003   6.017  0.1331  0.9868  0.3862
16120SOL    HW249174   1.547   3.047   6.152  1.0486 -0.7617  0.6219
16121SOL     OW49175   5.772   4.937   5.413 -0.4975 -0.4366 -0.1102
16121SOL    HW149176   5.690   4.894   5.386 -0.4248 -0.8536  0.3238
16121SOL    HW249177   5.768   5.024   5.373 -1.5023 -0.1798  0.5355
16122SOL     OW49178   2.943   7.490   6.338  0.0550  0.3051 -0.2113
16122SOL    HW149179   2.907   7.483   6.426 -1.9809 -0.2563 -1.0498
16122SOL    HW249180   2.894   7.425   6.287  1.6688  0.1420 -1.6120
16123SOL     OW49181   7.738   2.080   7.952  0.5457 -0.2770  0.2142
16123SOL    HW149182   7.796   2.062   7.878  0.9913  0.8199  0.2862
16123SOL    HW249183   7.682   2.003   7.958  0.4871 -0.3632 -1.2994
16124SOL     OW49184   1.068   0.951   7.517  0.2198  0.0810  0.2210
16124SOL    HW149185   1.120   0.871   7.506  1.7255  0.9744  0.6850
16124SOL    HW249186   0.981   0.920   7.543  0.8435 -1.3874  0.5879
16125SOL     OW49187   2.739   6.333   2.878  0.3810  0.0707  0.2115
16125SOL    HW149188   2.834   6.334   2.871  0.3125 -0.4862 -1.0315
16125SOL    HW249189   2.711   6.268   2.813 -0.8181 -0.0480  0.8324
16126SOL     OW49190   2.449   1.078   5.931 -0.1430  0.3522 -0.4449
16126SOL    HW149191   2.462   1.017   6.002 -1.2716 -0.0313 -0.5584
16126SOL    HW249192   2.402   1.152   5.970 -0.7469  0.1506 -0.7750
16127SOL     OW49193   3.446   3.088   5.771  0.0316  0.8915  0.0615
16127SOL    HW149194   3.373   3.146   5.752  1.4825  3.0830  1.0338
16127SOL    HW249195   3.464   3.102   5.864  2.6092  1.4885 -0.4995
16128SOL     OW49196   1.594   1.798   3.071 -0.4230  0.7634  0.3786
16128SOL    HW149197   1.526   1.865   3.067 -0.2316  0.9222 -0.1895
16128SOL    HW249198   1.672   1.844   3.102 -0.3671  0.7473  0.2635
16129SOL     OW49199   6.122   1.073   6.052 -0.0118 -0.0836  0.4096
16129SOL    HW149200   6.033   1.067   6.018  0.6128  0.7518 -1.4149
16129SOL    HW249201   6.146   0.983   6.072 -1.2109 -0.3316  0.7818
16130SOL     OW49202   1.058   4.620   2.715  0.3099  0.3702  0.0975
16130SOL    HW149203   0.969   4.593   2.695 -0.2187  1.6937  0.6077
16130SOL    HW249204   1.062   4.619   2.810  1.1965 -0.7862  0.0574
16131SOL     OW49205   0.549   5.053   0.038 -0.6933 -0.3574  0.2276
16131SOL    HW149206   0.613   5.064   0.108 -0.7095 -0.6166  0.2815
16131SOL    HW249207   0.597   5.005  -0.030  0.0945  2.0287 -0.9631
16132SOL     OW49208   2.105   0.899   4.447 -0.0341  0.1230  0.2647
16132SOL    HW149209   2.041   0.846   4.496 -1.1399 -0.5920 -1.9000
16132SOL    HW249210   2.169   0.835   4.416  0.7070  0.5912  0.8163
16133SOL     OW49211   2.645   6.585   5.572 -0.2496 -0.4009  0.1431
16133SOL    HW149212   2.640   6.494   5.600  3.4835 -0.5370  0.6809
16133SOL    HW249213   2.711   6.624   5.630  0.6809  1.7391 -2.2584
16134SOL     OW49214   7.603   6.154   2.728 -0.2668 -0.7561  0.0356
16134SOL    HW149215   7.667   6.096   2.770 -0.8415 -1.8657 -0.6234
16134SOL    HW249216   7.655   6.207   2.667 -0.0097 -1.8210 -0.6730
16135SOL     OW49217   7.299   0.321   6.301 -0.3552  0.0105  0.2665
16135SOL    HW149218   7.285   0.336   6.394  0.1875  0.5459  0.2721
16135SOL    HW249219   7.253   0.240   6.282  0.0861 -0.4580  1.1485
16136SOL     OW49220   4.043   2.360   5.689  0.4284  0.0004 -0.1818
16136SOL    HW149221   3.964   2.318   5.723 -0.3552  0.7077 -1.1004
16136SOL    HW249222   4.039   2.449   5.724 -0.6560  0.9036 -2.4684
16137SOL     OW49223   1.223   1.494   7.035  0.0438  0.0780  0.9135
16137SOL    HW149224   1.161   1.564   7.053  1.1650  1.4196 -0.3919
16137SOL    HW249225   1.251   1.509   6.944  1.3534 -1.2209  1.0861
16138SOL     OW49226   5.573   5.243   5.909 -0.0558  0.2404 -0.4087
16138SOL    HW149227   5.663   5.215   5.925  0.1599 -0.2777 -2.4068
16138SOL    HW249228   5.573   5.273   5.818 -2.4220 -2.0322 -1.2182
16139SOL     OW49229   3.573   7.781   7.201 -0.4144  0.3254  0.6512
16139SOL    HW149230   3.612   7.766   7.287 -0.7855 -0.7983  0.6390
16139SOL    HW249231   3.623   7.725   7.142 -1.2129 -0.1531  0.4194
16140SOL     OW49232   5.654   0.766   1.174  0.3340 -0.6284  0.2294
16140SOL    HW149233   5.652   0.694   1.111 -2.1459 -0.2943 -0.1347
16140SOL    HW249234   5.683   0.727   1.256  0.9293 -1.6206 -0.4442
16141SOL     OW49235   4.317   4.049   2.736 -0.3958  0.6283 -0.2493
16141SOL    HW149236   4.265   3.976   2.768 -0.0175 -0.0497 -1.1709
16141SOL    HW249237   4.276   4.126   2.775  0.1879 -0.1964  2.0199
16142SOL     OW49238   6.689   7.821   7.090  0.0268  0.0970 -0.2408
16142SOL    HW149239   6.701   7.855   7.178 -2.6537 -2.4840  1.2151
16142SOL    HW249240   6.671   7.899   7.037 -0.0317  1.5368  1.8241
16143SOL     OW49241   6.373   2.911   1.008 -0.0478  0.2259  0.3975
16143SOL    HW149242   6.404   2.822   0.990 -0.0378  0.0447  1.2860
16143SOL    HW249243   6.344   2.908   1.100  0.5546  1.3137  0.6244
16144SOL     OW49244   4.145   1.532   5.533 -0.0605  0.4029  0.4886
16144SOL    HW149245   4.209   1.583   5.482 -0.1531  1.2270  1.1834
16144SOL    HW249246   4.198   1.477   5.590  0.0482 -0.7734 -0.7349
16145SOL     OW49247   4.897   6.533   1.551  0.0667  0.1288  0.3117
16145SOL    HW149248   4.972   6.475   1.538  0.8426  1.4387 -1.3126
16145SOL    HW249249   4.843   6.520   1.474  0.3421  1.6506 -0.1665
16146SOL     OW49250   5.215   7.814   0.536  0.3080  0.2260 -0.0924
16146SOL    HW149251   5.156   7.738   0.527  0.3212  0.2849 -0.6769
16146SOL    HW249252   5.158   7.890   0.523  0.6027  0.2710 -1.1446
16147SOL     OW49253   2.468   6.636   2.302  0.1532 -0.0076  0.2998
16147SOL    HW149254   2.455   6.649   2.208 -0.2285 -1.9571  0.0717
16147SOL    HW249255   2.421   6.555   2.322  1.0953 -0.1659  1.9771
16148SOL     OW49256   1.379   3.621   5.387  0.4712 -0.2745 -0.7477
16148SOL    HW149257   1.329   3.546   5.354 -0.2600 -0.0340 -0.1958
16148SOL    HW249258   1.449   3.582   5.440 -0.7707 -0.5217  0.7212
16149SOL     OW49259   1.377   7.898   3.551  0.0141  0.3852 -0.4307
16149SOL    HW149260   1.385   7.971   3.613 -1.0552  0.0857  0.0773
16149SOL    HW249261   1.330   7.830   3.600 -0.6140  0.0456 -1.4829
16150SOL     OW49262   5.455   1.907   0.925  0.1315  0.1021 -0.3288
16150SOL    HW149263   5.538   1.890   0.971 -0.8963 -0.8467  1.2182
16150SOL    HW249264   5.410   1.971   0.980 -0.7471 -0.4041 -0.4537
16151SOL     OW49265   5.117   5.395   6.491 -0.0188 -0.2001 -0.4280
16151SOL    HW149266   5.110   5.378   6.397  0.8817  0.3529 -0.6054
16151SOL    HW249267   5.197   5.350   6.517  0.1325  0.2800 -0.0707
16152SOL     OW49268   2.835   4.847   5.388  0.2448 -0.3827  0.1531
16152SOL    HW149269   2.766   4.813   5.331  1.4234 -0.8514 -1.0199
16152SOL    HW249270   2.788   4.887   5.462 -1.2088 -2.7637  0.5462
16153SOL     OW49271   7.134   6.873   2.850  0.0148 -0.1133  0.8118
16153SOL    HW149272   7.189   6.940   2.810  2.8498 -1.0852  2.9725
16153SOL    HW249273   7.077   6.921   2.910  0.3886  0.6265  0.5742
16154SOL     OW49274   4.602   1.753   0.153  0.1971 -0.4712  0.3241
16154SOL    HW149275   4.620   1.753   0.247 -1.0133 -2.1118  0.5753
16154SOL    HW249276   4.688   1.751   0.112  0.7434  0.4066  1.3875
16155SOL     OW49277   1.180   6.840   0.130 -0.5565 -0.1653 -0.2176
16155SOL    HW149278   1.229   6.817   0.051 -1.8540 -2.2988 -0.4342
16155SOL    HW249279   1.142   6.925   0.110  0.1676 -0.1003 -1.3963
16156SOL     OW49280   3.159   3.793   2.464  0.3814  0.1156 -0.1531
16156SOL    HW149281   3.186   3.846   2.539  1.0617 -0.0707 -0.2677
16156SOL    HW249282   3.169   3.703   2.494  0.3559  0.0415 -0.3704
16157SOL     OW49283   5.879   7.538   5.049  0.3219 -0.1900  0.0270
16157SOL    HW149284   5.922   7.573   5.126  0.1321  1.7078 -0.6920
16157SOL    HW249285   5.883   7.443   5.059  2.3038  0.0142  1.2375
16158SOL     OW49286   2.966   0.375   0.406 -0.1648 -0.0518  0.4166
16158SOL    HW149287   3.030   0.386   0.476  0.1817  0.2475  0.0543
16158SOL    HW249288   2.964   0.460   0.362  0.1786 -0.4614 -0.4056
16159SOL     OW49289   6.548   6.011   2.346 -0.1254 -0.3164  0.3596
16159SOL    HW149290   6.495   6.074   2.396  1.7611 -0.1171  2.1958
16159SOL    HW249291   6.504   5.927   2.361  0.6850 -0.3573  2.9147
16160SOL     OW49292   7.926   3.589   5.556 -0.4315 -0.6716 -0.2625
16160SOL    HW149293   7.981   3.643   5.500 -0.9529 -0.9719 -1.0762
16160SOL    HW249294   7.849   3.569   5.502 -1.5246  0.0651  0.9974
16161SOL     OW49295   7.408   0.469   5.794 -0.7798 -0.2685  0.9657
16161SOL    HW149296   7.450   0.553   5.815  1.0252 -0.4351 -1.6296
16161SOL    HW249297   7.330   0.494   5.745  0.4989 -0.0500 -1.0564
16162SOL     OW49298   0.001   0.202   1.489 -0.3653  0.4974  0.1663
16162SOL    HW149299  -0.024   0.195   1.581  1.1653 -0.2533  0.5370
16162SOL    HW249300   0.011   0.112   1.459 -0.3940  0.7487 -0.6177
16163SOL     OW49301   0.033   0.361   5.047 -0.2716 -0.1007 -0.5543
16163SOL    HW149302   0.040   0.349   5.142 -0.5996  0.4473 -0.4589
16163SOL    HW249303   0.116   0.401   5.022 -0.0553 -0.5387 -0.5505
16164SOL     OW49304   5.876   1.677   2.541  0.0061  0.2324 -0.1259
16164SOL    HW149305   5.788   1.713   2.541  0.4754  1.4298 -1.1993
16164SOL    HW249306   5.900   1.671   2.448  0.2828 -2.0657  0.0485
16165SOL     OW49307   5.399   4.276   3.630  0.4272 -0.1210 -0.0466
16165SOL    HW149308   5.369   4.186   3.615  1.1078 -0.2977 -0.3853
16165SOL    HW249309   5.347   4.307   3.704 -0.7673 -0.3209 -0.7881
16166SOL     OW49310   3.497   0.901   7.166 -0.0455 -0.5922  0.1787
16166SOL    HW149311   3.561   0.834   7.141 -0.2885 -1.4474  1.7722
16166SOL    HW249312   3.414   0.870   7.130  0.1382 -0.2814 -0.5271
16167SOL     OW49313   1.514   4.540   4.421 -0.7051 -0.0077  0.2957
16167SOL    HW149314   1.569   4.564   4.495 -0.4766  0.6003 -0.0602
16167SOL    HW249315   1.448   4.609   4.418 -1.0435 -0.3332  0.2731
16168SOL     OW49316   3.447   3.652   7.032 -0.2201  0.2135  0.1150
16168SOL    HW149317   3.453   3.667   6.938 -1.2643  0.1868  0.0337
16168SOL    HW249318   3.459   3.739   7.071 -0.6928  0.3681 -0.0865
16169SOL     OW49319   7.596   1.793   7.942  0.9694  0.1721 -0.3118
16169SOL    HW149320   7.534   1.769   7.874 -0.6799  0.1754  1.1291
16169SOL    HW249321   7.666   1.728   7.937 -0.6671 -1.6342 -0.0329
16170SOL     OW49322   4.464   0.304   5.226 -0.3765 -0.1171 -0.1965
16170SOL    HW149323   4.538   0.275   5.280 -0.8011  0.6935  0.8467
16170SOL    HW249324   4.494   0.292   5.136  1.5194  1.3702  0.1841
16171SOL     OW49325   6.357   7.541   3.568 -0.0790  0.6941  0.1359
16171SOL    HW149326   6.377   7.620   3.518 -0.4766  0.2436 -0.7637
16171SOL    HW249327   6.370   7.470   3.505 -0.9230  0.1386  0.5826
16172SOL     OW49328   6.797   2.454   6.643  0.2038 -0.2514 -0.1168
16172SOL    HW149329   6.858   2.382   6.659 -0.3861 -0.7582 -0.1544
16172SOL    HW249330   6.766   2.440   6.553 -0.7362 -0.5641  0.2528
16173SOL     OW49331   0.357   1.601   6.031  0.0861  0.1076  0.1028
16173SOL    HW149332   0.363   1.533   5.964 -0.6606  0.8911 -0.7683
16173SOL    HW249333   0.284   1.573   6.087  0.5191 -0.3923  0.4258
16174SOL     OW49334   0.259   7.026   6.950 -0.2048 -0.2968  0.7844
16174SOL    HW149335   0.272   6.977   7.031  1.6326  0.1971  0.8192
16174SOL    HW249336   0.312   7.105   6.961  1.2026 -0.8639 -1.4183
16175SOL     OW49337   1.728   2.996   1.678  0.0143  0.1336 -0.0445
16175SOL    HW149338   1.770   3.026   1.597 -0.3415 -1.2074 -0.7276
16175SOL    HW249339   1.647   2.953   1.649  0.5033 -1.4633  0.9368
16176SOL     OW49340   1.401   1.875   0.051  0.0906  0.0958  0.4995
16176SOL    HW149341   1.309   1.877   0.077 -0.2955  0.8409 -0.8662
16176SOL    HW249342   1.436   1.960   0.080  0.0653  0.2625  0.0457
16177SOL     OW49343   1.894   7.150   7.516 -0.1235 -0.4091 -0.1682
16177SOL    HW149344   1.927   7.193   7.595 -2.5536  2.2317 -0.5208
16177SOL    HW249345   1.924   7.206   7.444 -0.2759 -1.2668 -0.9014
16178SOL     OW49346   5.072   2.333   1.099  0.0472 -0.7077  0.7967
16178SOL    HW149347   5.076   2.247   1.058  0.6212  0.0939 -0.8652
16178SOL    HW249348   4.981   2.361   1.087 -0.1645 -1.1067  1.4236
16179SOL     OW49349   0.996   7.423   5.257 -0.3244  0.2760 -0.2891
16179SOL    HW149350   1.076   7.385   5.219 -0.2841 -0.0320  0.0972
16179SOL    HW249351   1.008   7.517   5.249 -0.3597  0.2126 -1.1314
16180SOL     OW49352   5.823   4.031   3.916  0.5364 -0.7892 -0.1016
16180SOL    HW149353   5.777   3.961   3.961 -1.2297  1.6846  2.0581
16180SOL    HW249354   5.871   3.986   3.845 -1.5776 -3.9578  0.3679
16181SOL     OW49355   3.728   5.411   4.191 -0.3689  0.4592  0.1541
16181SOL    HW149356   3.778   5.493   4.186  1.1963 -0.4993 -0.1635
16181SOL    HW249357   3.776   5.358   4.253 -1.2162 -0.3482  0.1252
16182SOL     OW49358   5.626   0.190   5.815  0.4174 -0.6820  0.0875
16182SOL    HW149359   5.645   0.262   5.875 -0.8372 -1.6398  1.6897
16182SOL    HW249360   5.537   0.207   5.785  0.6459 -0.7893 -0.6485
16183SOL     OW49361   1.797   3.740   0.938  0.1602 -0.4512 -0.7212
16183SOL    HW149362   1.705   3.750   0.964  0.9426  3.4018  0.8515
16183SOL    HW249363   1.810   3.645   0.934 -3.2360 -1.1091  1.3867
16184SOL     OW49364   6.195   7.717   0.037 -0.5048 -0.0986 -0.5665
16184SOL    HW149365   6.114   7.754   0.073  0.2515 -0.5300  1.6393
16184SOL    HW249366   6.188   7.623   0.054  0.0023 -0.2835 -1.3284
16185SOL     OW49367   1.243   2.071   7.601 -0.4750  0.0484  0.0424
16185SOL    HW149368   1.257   1.982   7.568 -1.9918 -0.2108  0.0886
16185SOL    HW249369   1.155   2.094   7.573  0.2726  1.9458 -0.8564
16186SOL     OW49370   4.717   4.657   1.835  0.0762 -0.0027  0.5526
16186SOL    HW149371   4.649   4.673   1.769  1.5110 -2.2392 -1.5352
16186SOL    HW249372   4.798   4.650   1.786  1.3192 -0.9243  2.6336
16187SOL     OW49373   0.322   4.644   1.277  0.3666 -0.1848  0.0338
16187SOL    HW149374   0.304   4.625   1.185 -1.3438 -1.5047  0.6016
16187SOL    HW249375   0.266   4.719   1.298  0.2726 -0.2844  0.1468
16188SOL     OW49376   1.813   1.851   6.063 -0.0618  0.0657 -0.6147
16188SOL    HW149377   1.730   1.817   6.099  0.2886 -1.5633 -1.2819
16188SOL    HW249378   1.789   1.881   5.975 -0.0850  0.2086 -0.5589
16189SOL     OW49379   5.214   0.674   5.370  0.1546 -0.3703  0.3700
16189SOL    HW149380   5.301   0.651   5.404  0.4691  0.3475  0.0733
16189SOL    HW249381   5.156   0.606   5.403  0.9160 -1.1089  0.1832
16190SOL     OW49382   4.461   5.462   7.110  0.2242  0.3917  0.7022
16190SOL    HW149383   4.523   5.505   7.052 -0.7117  2.0964  0.9293
16190SOL    HW249384   4.387   5.438   7.053  0.2179  0.1674  0.8037
16191SOL     OW49385   0.420   4.118   4.896  0.2363  0.1707  0.0513
16191SOL    HW149386   0.493   4.124   4.958 -0.2834  1.3297  0.5504
16191SOL    HW249387   0.454   4.062   4.825  2.2737  2.1796 -0.6354
16192SOL     OW49388   2.286   3.967   6.320 -0.2558 -0.1798 -0.3032
16192SOL    HW149389   2.202   3.977   6.366 -0.0330 -0.1206  0.0955
16192SOL    HW249390   2.339   4.039   6.352  0.2944 -0.8166  0.2155
16193SOL     OW49391   7.870   5.658   7.199 -0.3104 -0.3845 -0.1323
16193SOL    HW149392   7.906   5.587   7.146  2.2625  0.4891  0.3693
16193SOL    HW249393   7.936   5.672   7.268 -1.6588  1.2331  0.8596
16194SOL     OW49394   0.573   2.020   7.368 -0.2474  0.0682  0.4305
16194SOL    HW149395   0.592   1.953   7.434  0.1013 -0.6960 -0.4460
16194SOL    HW249396   0.517   2.083   7.414  1.6113  0.6125  2.0719
16195SOL     OW49397   4.483   0.206   3.082  0.2732 -0.1126  0.0640
16195SOL    HW149398   4.416   0.274   3.089  1.2102  0.9677 -0.9701
16195SOL    HW249399   4.468   0.166   2.996  1.0774  0.2992 -0.2782
16196SOL     OW49400   3.677   0.424   7.809  0.4605  0.1688 -0.0470
16196SOL    HW149401   3.727   0.489   7.858  0.0045 -0.0857  0.7778
16196SOL    HW249402   3.743   0.365   7.773  0.7469 -0.5946  1.6506
16197SOL     OW49403   7.504   6.151   4.864  0.4376 -0.2370  0.5127
16197SOL    HW149404   7.522   6.164   4.771 -1.1448  0.3938  0.2882
16197SOL    HW249405   7.575   6.198   4.908  0.9647 -0.1865 -0.3599
16198SOL     OW49406   0.943   6.132   6.241 -0.3657 -0.5275  0.3013
16198SOL    HW149407   0.934   6.226   6.227 -0.1349 -0.4514  0.6566
16198SOL    HW249408   0.887   6.092   6.175  0.3523 -0.1596 -0.5267
16199SOL     OW49409   4.732   7.044   3.581 -0.2748  0.9398 -0.1575
16199SOL    HW149410   4.708   6.968   3.527 -0.4608 -0.2204  1.5005
16199SOL    HW249411   4.778   7.006   3.656 -0.1592  2.5026  0.5824
16200SOL     OW49412   7.479   5.961   1.748 -0.1513  0.0631  0.1006
16200SOL    HW149413   7.386   5.942   1.731 -0.1629  0.6646 -0.5424
16200SOL    HW249414   7.499   6.034   1.689  0.0527  1.6628  2.1265
16201SOL     OW49415   6.686   3.269   0.319  0.1377 -0.0931  0.0771
16201SOL    HW149416   6.682   3.269   0.415  0.1659  1.5696  0.1043
16201SOL    HW249417   6.597   3.250   0.292 -0.1161  0.5142  0.4552
16202SOL     OW49418   0.609   6.206   3.167  0.1903  0.3085  0.0827
16202SOL    HW149419   0.590   6.157   3.247  2.6253  1.7579  1.6107
16202SOL    HW249420   0.525   6.246   3.143 -0.9127 -1.3511  1.0214
16203SOL     OW49421   6.161   2.986   2.638 -0.0903 -0.4478 -0.1397
16203SOL    HW149422   6.076   2.975   2.679 -0.4069  0.4934 -0.5173
16203SOL    HW249423   6.144   3.045   2.564  0.9667  0.1121  0.0612
16204SOL     OW49424   4.411   7.126   0.610 -0.8301  0.4223 -0.4718
16204SOL    HW149425   4.387   7.081   0.691  0.5040 -0.3301 -0.4876
16204SOL    HW249426   4.432   7.215   0.638 -0.1411  0.1000  0.0378
16205SOL     OW49427   2.106   4.178   4.668 -0.4546  0.2560 -0.1580
16205SOL    HW149428   2.097   4.195   4.574  1.4183 -0.5952 -0.5206
16205SOL    HW249429   2.200   4.177   4.683 -0.7292 -0.0565  1.6621
16206SOL     OW49430   2.257   7.079   1.833  0.6205  0.1611 -0.2579
16206SOL    HW149431   2.185   7.132   1.866 -0.3724 -1.3774  0.0997
16206SOL    HW249432   2.336   7.124   1.864 -0.2390  0.3869  1.6937
16207SOL     OW49433   6.699   6.562   5.515 -0.1155 -0.1129 -0.3039
16207SOL    HW149434   6.674   6.510   5.438  1.2749 -1.0422 -0.1381
16207SOL    HW249435   6.668   6.651   5.495  1.3227 -0.0730 -2.4838
16208SOL     OW49436   3.356   5.647   5.828  0.2677 -0.2154  0.0810
16208SOL    HW149437   3.446   5.679   5.828  0.3089 -0.2713  2.3757
16208SOL    HW249438   3.307   5.715   5.780  1.3649  0.2348 -0.4232
16209SOL     OW49439   5.359   4.714   6.235  0.1207  0.1163 -0.5378
16209SOL    HW149440   5.295   4.703   6.305 -0.5890  0.8681 -1.0540
16209SOL    HW249441   5.433   4.759   6.276  0.9306 -2.0160  0.3981
16210SOL     OW49442   4.451   5.690   7.581 -0.0975  0.2089 -0.1757
16210SOL    HW149443   4.462   5.776   7.620  0.7981  0.1337 -0.2505
16210SOL    HW249444   4.380   5.650   7.632  1.2385  0.0117  1.5853
16211SOL     OW49445   6.599   4.194   0.139 -0.2484  0.0823 -0.6453
16211SOL    HW149446   6.574   4.261   0.075 -0.2343  0.1948 -0.5341
16211SOL    HW249447   6.519   4.143   0.153 -0.0356 -0.4630 -1.3726
16212SOL     OW49448   1.055   6.642   0.231  0.5539 -0.3824  0.0572
16212SOL    HW149449   1.126   6.629   0.293  0.3544 -0.3582  0.2935
16212SOL    HW249450   1.073   6.728   0.192  0.2359 -0.0253  0.6785
16213SOL     OW49451   4.447   4.758   0.237 -0.2801  0.0527 -0.1924
16213SOL    HW149452   4.473   4.799   0.154 -1.6125  0.4852 -0.4055
16213SOL    HW249453   4.458   4.827   0.302 -1.3223  0.3786 -0.3556
16214SOL     OW49454   3.792   6.476   7.129 -0.4032  0.0274 -0.2135
16214SOL    HW149455   3.727   6.406   7.133 -1.6241  1.1487 -0.1895
16214SOL    HW249456   3.751   6.544   7.076  1.6477 -0.1666 -2.1407
16215SOL     OW49457   7.688   4.794   3.403  0.3525 -0.2549  0.5312
16215SOL    HW149458   7.674   4.797   3.498  0.4468  0.8827  0.5157
16215SOL    HW249459   7.758   4.730   3.391 -0.1911 -0.9740  1.1622
16216SOL     OW49460   0.979   5.865   4.975 -0.1950 -0.2889  0.1928
16216SOL    HW149461   1.030   5.862   5.055 -0.2028  0.2262  0.2220
16216SOL    HW249462   0.888   5.858   5.004 -0.2600  0.8790  0.3233
16217SOL     OW49463   4.488   0.747   0.626  0.4661 -0.6067 -0.6013
16217SOL    HW149464   4.421   0.795   0.674  1.6388 -0.1204  0.5671
16217SOL    HW249465   4.484   0.658   0.662 -0.7148 -1.0436 -1.7527
16218SOL     OW49466   2.982   3.741   0.160  0.2241 -0.9170 -0.3654
16218SOL    HW149467   2.966   3.834   0.141  2.1474 -0.6821 -0.9479
16218SOL    HW249468   2.915   3.695   0.110 -0.0504  0.1038 -0.9630
16219SOL     OW49469   6.967   4.025   3.931  0.7958 -0.1527  0.8610
16219SOL    HW149470   6.937   4.026   4.022 -0.9490  0.7946  0.2923
16219SOL    HW249471   6.919   4.096   3.889  0.2604 -1.6872 -1.2134
16220SOL     OW49472   3.710   7.137   0.704  0.2611 -0.1144 -0.2906
16220SOL    HW149473   3.661   7.071   0.654 -0.1075 -0.1928  0.1664
16220SOL    HW249474   3.652   7.213   0.708  0.8487  0.3788 -1.1562
16221SOL     OW49475   5.548   1.287   1.942  0.5676  0.1377 -0.5440
16221SOL    HW149476   5.569   1.306   1.851  0.6435  2.5469 -0.0492
16221SOL    HW249477   5.454   1.267   1.941  0.9272 -1.6568 -1.3892
16222SOL     OW49478   4.543   6.748   2.210 -0.2563  0.6528  0.1476
16222SOL    HW149479   4.615   6.721   2.268  0.4680  0.3501 -0.8688
16222SOL    HW249480   4.550   6.689   2.135 -1.5094  0.6957 -0.0151
16223SOL     OW49481   5.437   5.135   6.556  0.3004  0.0631 -0.2221
16223SOL    HW149482   5.526   5.104   6.539 -0.0219 -1.6362  1.1061
16223SOL    HW249483   5.433   5.219   6.511  3.1112  0.9333  1.0202
16224SOL     OW49484   2.100   0.804   1.420  0.1336  0.5580  0.2190
16224SOL    HW149485   2.010   0.811   1.391  0.1864 -1.1977 -0.3763
16224SOL    HW249486   2.143   0.750   1.354  1.8942  2.2742 -0.1052
16225SOL     OW49487   6.463   3.260   4.037 -0.4335 -0.2618  0.1784
16225SOL    HW149488   6.489   3.177   4.076  2.7000  1.6334  2.3066
16225SOL    HW249489   6.422   3.309   4.108 -0.3512  0.8125 -0.4887
16226SOL     OW49490   1.537   0.711   3.360 -0.1708  0.0457 -0.1420
16226SOL    HW149491   1.575   0.762   3.289  1.7976 -1.7539 -0.4435
16226SOL    HW249492   1.545   0.620   3.332 -1.4916 -0.5719  1.3714
16227SOL     OW49493   3.510   4.765   3.194  0.0828 -0.1929  0.2183
16227SOL    HW149494   3.452   4.756   3.269 -1.3173  1.0870 -0.6729
16227SOL    HW249495   3.580   4.822   3.225 -1.3303  1.6407  0.1069
16228SOL     OW49496   2.131   1.213   3.162 -0.1295  0.1776 -0.2777
16228SOL    HW149497   2.131   1.244   3.072 -1.9633 -1.5617 -0.9046
16228SOL    HW249498   2.212   1.163   3.171 -0.0016  0.2579 -1.0005
16229SOL     OW49499   6.297   6.071   4.842 -0.1608  0.4813 -0.0545
16229SOL    HW149500   6.273   6.121   4.764 -0.4376  1.6918  0.7968
16229SOL    HW249501   6.349   6.132   4.895 -2.4226  0.6613  2.0653
16230SOL     OW49502   7.625   2.652   0.374 -0.1832  0.4916 -0.4280
16230SOL    HW149503   7.602   2.650   0.467 -0.0324 -0.7282 -0.4076
16230SOL    HW249504   7.679   2.574   0.361  1.2387  1.5775 -1.1728
16231SOL     OW49505   3.620   4.050   7.972  0.1829 -0.1295 -0.2788
16231SOL    HW149506   3.539   4.017   8.011  1.0457 -1.7170  0.1857
16231SOL    HW249507   3.688   3.989   8.000  1.4569  0.8351 -1.1729
16232SOL     OW49508   0.465   4.463   6.423  0.0780 -0.1370  0.7375
16232SOL    HW149509   0.422   4.394   6.473  0.5110 -0.9580  0.0183
16232SOL    HW249510   0.498   4.418   6.344 -0.7624  1.1437 -0.3723
16233SOL     OW49511   1.363   1.569   3.961 -0.2802  0.1521  0.5553
16233SOL    HW149512   1.317   1.623   3.896  1.0771  0.4049 -0.2298
16233SOL    HW249513   1.295   1.538   4.020 -1.7811 -1.3542 -1.8780
16234SOL     OW49514   1.218   7.477   7.220 -0.0267  0.4924 -0.6679
16234SOL    HW149515   1.172   7.537   7.280  2.8826  1.8801  0.2808
16234SOL    HW249516   1.271   7.535   7.165  2.3484 -1.1653 -0.1886
16235SOL     OW49517   0.558   7.243   5.881  0.4881 -0.1708 -0.6065
16235SOL    HW149518   0.651   7.256   5.894 -0.0802  1.5127  2.0924
16235SOL    HW249519   0.520   7.331   5.886 -1.8068 -1.2473  3.7738
16236SOL     OW49520   6.248   6.217   3.825  0.1659  0.0130  0.2645
16236SOL    HW149521   6.292   6.296   3.794  0.3612 -0.8171 -1.7004
16236SOL    HW249522   6.177   6.249   3.881  0.0566  1.6055 -0.7406
16237SOL     OW49523   2.013   6.572   2.465 -0.0998 -0.5297  0.0578
16237SOL    HW149524   1.924   6.602   2.483  0.4275  1.5346 -0.5369
16237SOL    HW249525   2.039   6.622   2.387  2.4293  0.7278  1.6600
16238SOL     OW49526   2.986   5.826   7.941  1.0270  0.9931  0.0033
16238SOL    HW149527   2.954   5.914   7.962  1.0755  1.0510 -0.1707
16238SOL    HW249528   2.958   5.811   7.851 -4.1015 -1.4422  1.7933
16239SOL     OW49529   2.889   1.127   4.711 -0.8769 -0.2199 -0.0759
16239SOL    HW149530   2.914   1.038   4.687  0.7865 -0.2976  1.7904
16239SOL    HW249531   2.793   1.127   4.710 -0.8904 -2.2274  0.6010
16240SOL     OW49532   2.447   4.223   7.156 -0.2614  0.1111  0.1840
16240SOL    HW149533   2.440   4.188   7.245  3.3189  1.0520  0.9171
16240SOL    HW249534   2.421   4.315   7.165  1.0416  0.4588  0.4718
16241SOL     OW49535   4.635   7.760   4.441 -0.7033  0.6285 -0.4123
16241SOL    HW149536   4.634   7.674   4.400 -1.3256  0.0792  0.7029
16241SOL    HW249537   4.636   7.822   4.369 -1.3848 -0.3159 -1.2449
16242SOL     OW49538   0.990   1.407   6.833 -0.5778 -0.0832 -0.6012
16242SOL    HW149539   0.964   1.489   6.791 -0.7184  0.3187  0.2569
16242SOL    HW249540   0.923   1.343   6.806 -1.8121  0.6596  0.6355
16243SOL     OW49541   7.047   5.175   5.485 -0.3133 -0.1623 -0.0620
16243SOL    HW149542   7.037   5.215   5.571  2.2076 -0.3912  0.3753
16243SOL    HW249543   7.140   5.185   5.464 -0.7397 -0.7265 -2.4633
16244SOL     OW49544   7.720   1.169   3.595  0.4944 -0.2796  0.2244
16244SOL    HW149545   7.641   1.133   3.636  0.4824  0.1425  0.5832
16244SOL    HW249546   7.783   1.177   3.667  0.5622  0.2186  0.1150
16245SOL     OW49547   3.084   1.386   1.424 -0.0992 -0.2542 -0.2176
16245SOL    HW149548   3.168   1.339   1.425  0.2518  0.3632 -0.4346
16245SOL    HW249549   3.087   1.437   1.343 -1.6490 -1.9791 -1.4073
16246SOL     OW49550   7.242   6.097   6.398 -0.2366  0.5493  0.2622
16246SOL    HW149551   7.238   6.169   6.461 -0.8114 -0.1122  0.9952
16246SOL    HW249552   7.161   6.049   6.412  0.9420 -1.2608  1.0145
16247SOL     OW49553   0.399   7.757   6.381  0.0159 -0.3019 -0.0501
16247SOL    HW149554   0.371   7.666   6.380 -2.3495  0.3908 -1.0994
16247SOL    HW249555   0.427   7.775   6.291 -1.4711  0.5507 -0.3595
16248SOL     OW49556   1.318   3.278   3.992  0.1104  0.4215  0.0156
16248SOL    HW149557   1.376   3.207   4.020  0.7490  0.9166 -0.0197
16248SOL    HW249558   1.308   3.265   3.897 -1.9959 -1.2134  0.4321
16249SOL     OW49559   0.696   4.735   4.999  0.2498  0.5473  0.2350
16249SOL    HW149560   0.654   4.763   4.917 -1.8043 -1.0684  0.6908
16249SOL    HW249561   0.789   4.731   4.978 -0.3831 -1.4270 -2.5303
16250SOL     OW49562   6.443   1.682   7.239 -0.2432 -0.4203  0.5473
16250SOL    HW149563   6.462   1.589   7.228 -1.5753 -0.3271 -3.1909
16250SOL    HW249564   6.524   1.726   7.212  0.1656 -0.4494  1.6965
16251SOL     OW49565   1.400   6.533   4.816  0.0638  0.0463  0.1738
16251SOL    HW149566   1.488   6.560   4.789 -0.2378  0.3315 -0.5540
16251SOL    HW249567   1.344   6.558   4.742 -0.7428  0.5828  0.9443
16252SOL     OW49568   3.574   2.003   3.664 -0.2560 -0.1246 -0.2332
16252SOL    HW149569   3.626   2.070   3.709 -1.7958  0.2737  0.9699
16252SOL    HW249570   3.511   2.053   3.612  0.3134 -0.6162 -1.4149
16253SOL     OW49571   0.037   2.342   1.185  0.5795  0.0369  0.4855
16253SOL    HW149572  -0.035   2.323   1.246  2.0089 -1.9678  1.5888
16253SOL    HW249573   0.106   2.378   1.241  2.0496 -2.1838  0.1536
16254SOL     OW49574   3.682   2.186   5.416  0.3424 -0.3640 -0.3245
16254SOL    HW149575   3.749   2.244   5.453 -1.7827  0.9888  1.4875
16254SOL    HW249576   3.698   2.101   5.457  0.4260  0.1572  0.7233
16255SOL     OW49577   5.923   4.841   0.182  0.2470 -0.3075  0.3124
16255SOL    HW149578   5.855   4.901   0.154  0.4747  0.3796  1.1905
16255SOL    HW249579   5.878   4.758   0.197 -0.4001  0.1521  0.9223
16256SOL     OW49580   0.539   0.220   0.232  0.5399 -0.0543  0.2577
16256SOL    HW149581   0.480   0.148   0.209  1.0376  0.1387 -1.7053
16256SOL    HW249582   0.619   0.177   0.261  1.1797 -0.3211 -1.8313
16257SOL     OW49583   4.974   2.179   6.769 -0.5754  0.2006 -0.0285
16257SOL    HW149584   5.007   2.090   6.776  1.3782  0.8304 -0.7125
16257SOL    HW249585   4.934   2.197   6.854 -0.2076 -1.0165  0.4137
16258SOL     OW49586   6.784   0.830   1.732  0.2309  0.1985 -0.0023
16258SOL    HW149587   6.846   0.844   1.804  0.5451 -0.6478 -0.1039
16258SOL    HW249588   6.719   0.770   1.768  1.7280 -2.1862 -1.1724
16259SOL     OW49589   4.064   0.436   6.472  0.3103  0.0647 -0.0229
16259SOL    HW149590   4.131   0.368   6.466 -0.4800 -0.6805 -0.4939
16259SOL    HW249591   4.079   0.477   6.557  1.5146  0.0650 -0.2261
16260SOL     OW49592   5.618   6.899   3.211  0.2329 -0.5132 -0.1499
16260SOL    HW149593   5.596   6.891   3.119  0.9794 -0.5848 -0.3209
16260SOL    HW249594   5.604   6.992   3.232  0.8866 -0.3231 -0.5469
16261SOL     OW49595   0.521   2.579   5.078  0.2131 -0.2955 -0.5584
16261SOL    HW149596   0.478   2.606   5.159  0.5757  1.0075 -0.7915
16261SOL    HW249597   0.452   2.534   5.029 -1.1103  2.2982 -1.1901
16262SOL     OW49598   7.231   2.263   1.037  0.3707 -0.2199  0.2222
16262SOL    HW149599   7.136   2.268   1.023  0.3052  1.5295  1.2129
16262SOL    HW249600   7.246   2.173   1.065 -0.4993 -1.6078 -3.4722
16263SOL     OW49601   7.801   7.953   2.434 -0.1965  0.1610  0.0013
16263SOL    HW149602   7.813   7.999   2.350 -2.9392 -0.5313 -0.8150
16263SOL    HW249603   7.830   8.016   2.500 -1.2182  2.0120 -1.2669
16264SOL     OW49604   5.425   0.753   1.889  0.0083 -0.5754 -0.0535
16264SOL    HW149605   5.425   0.830   1.833  0.9624  1.3300  2.4750
16264SOL    HW249606   5.496   0.698   1.855 -0.7822 -0.4286 -1.9648
16265SOL     OW49607   7.114   5.689   6.624  0.2832  0.2629  0.0386
16265SOL    HW149608   7.189   5.697   6.683  0.8607  2.0372 -0.9058
16265SOL    HW249609   7.142   5.732   6.543 -1.2710 -0.2441 -0.7853
16266SOL     OW49610   2.988   6.385   1.253 -0.1360 -0.0902  0.3566
16266SOL    HW149611   3.071   6.433   1.261  0.0551 -0.3215 -0.1785
16266SOL    HW249612   2.933   6.419   1.323  0.1558  0.5882  0.2610
16267SOL     OW49613   7.066   7.481   6.649  0.3469 -0.0267 -0.4701
16267SOL    HW149614   7.148   7.439   6.673  0.6438  0.2025 -1.0746
16267SOL    HW249615   7.074   7.498   6.555 -0.5532 -0.3663 -0.6171
16268SOL     OW49616   3.431   6.946   4.201 -0.2026  0.0017 -0.2278
16268SOL    HW149617   3.402   7.013   4.140  1.2492  0.9173  0.0598
16268SOL    HW249618   3.498   6.897   4.152  2.0722  1.6979  1.0907
16269SOL     OW49619   0.389   0.881   5.465  0.6492  0.1082  0.4240
16269SOL    HW149620   0.385   0.866   5.371  0.4157 -1.6960  0.7119
16269SOL    HW249621   0.376   0.976   5.474 -0.8121  0.1065 -1.2571
16270SOL     OW49622   2.488   5.013   7.430 -0.2753 -0.6703 -0.8504
16270SOL    HW149623   2.458   4.923   7.413 -0.2580 -0.7032 -0.7037
16270SOL    HW249624   2.524   5.010   7.519 -0.5286 -0.4552 -0.7403
16271SOL     OW49625   4.261   6.989   0.789  0.3299 -0.0081  0.7038
16271SOL    HW149626   4.262   6.910   0.734  0.9915 -0.1602  0.9279
16271SOL    HW249627   4.311   6.964   0.867 -0.7082  0.1705  1.4315
16272SOL     OW49628   0.518   1.050   3.023  0.1378  0.2108  0.1821
16272SOL    HW149629   0.512   1.146   3.028  0.6857  0.5296 -4.0343
16272SOL    HW249630   0.428   1.021   3.009  0.2122  0.2447 -0.3643
16273SOL     OW49631   3.846   7.380   4.739 -0.4707 -0.1850  0.3011
16273SOL    HW149632   3.786   7.305   4.748  1.5160 -1.7979  0.4355
16273SOL    HW249633   3.904   7.355   4.667  0.2498  1.2264  0.3921
16274SOL     OW49634   2.713   4.767   1.202  0.4288 -0.4105  0.0776
16274SOL    HW149635   2.653   4.830   1.242  2.4743  1.9125 -0.3611
16274SOL    HW249636   2.762   4.730   1.277 -1.4873 -2.3181  0.4346
16275SOL     OW49637   3.094   7.126   0.908 -0.2050  0.4320  0.4906
16275SOL    HW149638   3.130   7.177   0.980 -0.5370 -0.0652  1.0125
16275SOL    HW249639   3.094   7.035   0.940 -1.3362  0.3431  0.2729
16276SOL     OW49640   1.858   5.262   2.935  0.1972 -0.3498 -0.4912
16276SOL    HW149641   1.887   5.346   2.970 -0.4090 -0.3772  0.0591
16276SOL    HW249642   1.923   5.199   2.967  1.9085  0.2145 -2.6810
16277SOL     OW49643   0.498   5.191   4.763  0.4328  0.7802 -0.4603
16277SOL    HW149644   0.508   5.096   4.751  2.7675  1.1495 -1.6119
16277SOL    HW249645   0.447   5.220   4.688 -1.2289  0.3132  0.4500
16278SOL     OW49646   1.275   2.194   6.524 -0.5258 -0.3546  0.0631
16278SOL    HW149647   1.312   2.140   6.455 -1.5743 -1.2570  0.1929
16278SOL    HW249648   1.251   2.132   6.593  3.4860  0.7709  2.7020
16279SOL     OW49649   3.053   3.764   6.501 -0.5830  0.2262 -0.6296
16279SOL    HW149650   3.065   3.677   6.539 -0.4327  0.0580 -1.0642
16279SOL    HW249651   2.959   3.770   6.485 -0.2257 -1.1352 -3.6250
16280SOL     OW49652   6.879   5.426   3.090  0.4040 -0.4570  0.0519
16280SOL    HW149653   6.888   5.351   3.030  1.9353 -1.7192  1.7712
16280SOL    HW249654   6.805   5.403   3.146 -1.3440  0.9520 -1.6343
16281SOL     OW49655   2.259   3.552   6.593  0.3979 -0.4894 -0.3789
16281SOL    HW149656   2.187   3.489   6.594  0.7529 -0.8975 -0.1940
16281SOL    HW249657   2.302   3.539   6.509  1.8037 -2.0248  0.5749
16282SOL     OW49658   2.469   7.922   7.027  0.1977 -0.1052  0.5369
16282SOL    HW149659   2.553   7.881   7.049  0.8889  0.9042 -0.1965
16282SOL    HW249660   2.429   7.861   6.965 -0.3338 -1.3763  2.1076
16283SOL     OW49661   5.802   5.162   2.679 -0.2733  0.1295 -0.0432
16283SOL    HW149662   5.843   5.204   2.754 -1.2312  0.8533  0.0868
16283SOL    HW249663   5.740   5.100   2.717 -1.7165  1.4322 -0.2004
16284SOL     OW49664   1.056   6.094   4.866 -0.0176  0.2540 -0.3612
16284SOL    HW149665   1.041   6.155   4.939  2.0545 -0.1328  0.4323
16284SOL    HW249666   1.009   6.015   4.891 -3.2108  1.6321 -1.6583
16285SOL     OW49667   1.235   0.861   7.302  0.3769 -0.1279 -0.5024
16285SOL    HW149668   1.218   0.768   7.314  1.5860 -0.2713  0.2884
16285SOL    HW249669   1.330   0.869   7.314  0.1149  1.3840  0.6459
16286SOL     OW49670   1.281   2.704   5.243  0.3348 -0.0441  0.4298
16286SOL    HW149671   1.296   2.667   5.157  0.6254 -0.0170  0.4677
16286SOL    HW249672   1.364   2.693   5.289  0.6701  1.3545  0.1741
16287SOL     OW49673   7.480   6.476   2.464  0.1563 -0.0618  0.3117
16287SOL    HW149674   7.425   6.436   2.397  1.7708 -0.1053 -1.0114
16287SOL    HW249675   7.555   6.417   2.472 -0.4650 -0.5757  2.8676
16288SOL     OW49676   3.328   5.389   7.555 -0.0162 -0.5551 -0.0832
16288SOL    HW149677   3.304   5.330   7.484  0.9001 -0.0689 -0.8136
16288SOL    HW249678   3.252   5.389   7.614 -1.0253 -0.5067 -1.3647
16289SOL     OW49679   5.909   0.909   3.246 -0.1496  0.4252 -0.6052
16289SOL    HW149680   5.918   0.813   3.244 -1.3068  0.2262  1.4524
16289SOL    HW249681   5.815   0.924   3.234 -0.1971  1.2057  0.6134
16290SOL     OW49682   0.143   1.529   7.355 -0.2545  0.0261 -0.4602
16290SOL    HW149683   0.080   1.540   7.284 -0.8645 -1.0909 -0.1020
16290SOL    HW249684   0.225   1.506   7.311 -0.1870  1.0996 -0.9047
16291SOL     OW49685   6.874   3.951   2.455 -0.2153 -0.9987  0.0161
16291SOL    HW149686   6.829   3.928   2.374  0.4611 -1.3420 -0.2760
16291SOL    HW249687   6.919   3.870   2.480  1.9042 -0.1253 -0.8122
16292SOL     OW49688   2.709   2.515   7.958  0.0473  0.1057  0.0178
16292SOL    HW149689   2.741   2.425   7.962  1.3910  0.6264  1.5462
16292SOL    HW249690   2.681   2.535   8.047  2.5049  2.1409  0.3719
16293SOL     OW49691   2.038   3.431   3.082 -0.0495  0.5002  0.0150
16293SOL    HW149692   2.036   3.524   3.064  0.1282  0.4550 -0.2340
16293SOL    HW249693   1.963   3.395   3.034 -2.0351  0.9638  2.6351
16294SOL     OW49694   3.141   4.706   6.713 -0.2608 -0.1552 -0.3539
16294SOL    HW149695   3.181   4.640   6.656 -0.7585 -0.4597 -0.3497
16294SOL    HW249696   3.057   4.668   6.739  0.7723 -0.8709  2.1362
16295SOL     OW49697   2.402   3.179   6.749  0.8293 -0.3600  0.1609
16295SOL    HW149698   2.323   3.205   6.798  1.1640  0.8328  0.0780
16295SOL    HW249699   2.474   3.191   6.810  0.9906 -1.1707  0.1396
16296SOL     OW49700   6.071   4.389   4.349  0.3703 -0.2488  0.1946
16296SOL    HW149701   6.160   4.421   4.333  1.1788 -2.6558 -0.3444
16296SOL    HW249702   6.036   4.372   4.261 -0.6309  0.6835  0.4051
16297SOL     OW49703   5.001   6.967   0.191 -0.2814  0.1281 -0.2175
16297SOL    HW149704   5.019   6.945   0.283 -1.7052  1.4688  0.4080
16297SOL    HW249705   4.916   6.927   0.173 -1.4269  2.3910 -0.0064
16298SOL     OW49706   2.270   2.323   5.884 -0.1466 -0.1459  0.1941
16298SOL    HW149707   2.270   2.256   5.952 -0.6695  0.4711  0.7992
16298SOL    HW249708   2.264   2.406   5.931 -2.3290  0.2171 -0.6668
16299SOL     OW49709   2.715   7.917   2.770 -0.6860 -0.6015  0.0697
16299SOL    HW149710   2.663   7.864   2.710  1.3463 -2.9395  0.3258
16299SOL    HW249711   2.650   7.962   2.825 -2.4755 -0.8727 -1.7899
16300SOL     OW49712   0.254   1.004   0.265  0.4335 -0.4937  0.4268
16300SOL    HW149713   0.279   0.916   0.293 -0.7413 -0.8241  0.4499
16300SOL    HW249714   0.179   0.991   0.208 -0.4136  0.5840  1.2805
16301SOL     OW49715   5.033   7.006   4.014  0.0737  0.3216 -0.1350
16301SOL    HW149716   5.037   6.951   4.092  0.2484  0.5387  0.0103
16301SOL    HW249717   4.990   7.086   4.043  0.1568  0.4102 -0.2554
16302SOL     OW49718   0.949   7.591   5.872 -0.3516  0.0826  0.0568
16302SOL    HW149719   1.004   7.538   5.814 -0.8927  0.8015 -1.1356
16302SOL    HW249720   0.996   7.674   5.881 -0.8054  0.3726 -0.2444
16303SOL     OW49721   1.897   0.272   5.927 -0.1647  0.2929 -0.1643
16303SOL    HW149722   1.934   0.184   5.927 -0.6207  0.0816  1.4378
16303SOL    HW249723   1.802   0.258   5.926 -0.2420  0.7914 -0.7476
16304SOL     OW49724   2.742   5.391   4.914 -0.6874 -0.4560 -0.1905
16304SOL    HW149725   2.764   5.453   4.984 -0.3613  0.9519 -1.5043
16304SOL    HW249726   2.716   5.447   4.840  1.5723 -1.8190 -2.0768
16305SOL     OW49727   6.643   1.578   2.874  0.2197 -0.7113  0.2832
16305SOL    HW149728   6.581   1.626   2.928  1.3059 -0.3212  1.1936
16305SOL    HW249729   6.712   1.551   2.934  0.1954 -2.4479 -0.4222
16306SOL     OW49730   3.980   1.537   7.421 -0.0115  0.2590  0.0602
16306SOL    HW149731   4.071   1.510   7.428 -0.0881  0.1247  0.6121
16306SOL    HW249732   3.932   1.455   7.411 -0.2611  0.1618  1.9114
16307SOL     OW49733   6.913   3.878   7.967  0.0182 -0.2698  0.2558
16307SOL    HW149734   6.991   3.829   7.996 -0.2035 -0.9478 -0.2744
16307SOL    HW249735   6.912   3.866   7.872  0.0092  0.8455  0.1165
16308SOL     OW49736   1.894   2.429   2.083 -0.6544 -0.3963  0.1217
16308SOL    HW149737   1.893   2.469   1.996  1.8956  0.5051  0.4748
16308SOL    HW249738   1.974   2.377   2.085 -1.2152 -1.2624  1.5903
16309SOL     OW49739   7.149   0.859   6.865  0.7648 -0.5850 -0.1598
16309SOL    HW149740   7.082   0.826   6.805 -0.0033 -4.0214  2.4430
16309SOL    HW249741   7.106   0.930   6.912  0.1336 -0.4197 -0.9685
16310SOL     OW49742   2.511   0.688   5.745  0.5268 -0.0784  0.0897
16310SOL    HW149743   2.549   0.703   5.831 -0.6969  0.1483  0.6020
16310SOL    HW249744   2.442   0.624   5.759  2.2115 -2.2309 -1.2202
16311SOL     OW49745   6.235   5.336   6.841 -0.0671 -0.2125 -0.0145
16311SOL    HW149746   6.270   5.249   6.822  1.1425  0.6111 -1.7290
16311SOL    HW249747   6.159   5.320   6.898 -0.1702 -2.3956 -0.7273
16312SOL     OW49748   1.922   5.023   3.085 -0.1097  0.2334 -0.1916
16312SOL    HW149749   1.827   5.015   3.090  0.0329 -0.5609  1.7588
16312SOL    HW249750   1.947   4.977   3.005 -1.3298  0.1404 -0.5188
16313SOL     OW49751   6.956   4.293   7.300 -0.4583  0.3167  0.9545
16313SOL    HW149752   6.897   4.368   7.294 -1.9772 -0.9248  0.0019
16313SOL    HW249753   6.923   4.243   7.375 -0.0929  0.0589  0.9414
16314SOL     OW49754   7.367   7.637   4.243  0.0905 -0.5205  0.1061
16314SOL    HW149755   7.278   7.655   4.275 -0.1269  0.5527 -1.0675
16314SOL    HW249756   7.380   7.544   4.260 -0.6292 -0.3353  1.8312
16315SOL     OW49757   7.806   4.324   5.296 -0.4903 -0.2392  1.1015
16315SOL    HW149758   7.842   4.236   5.304  1.2609  0.5932  2.6528
16315SOL    HW249759   7.818   4.346   5.203  3.0230 -0.0149  1.5380
16316SOL     OW49760   2.096   6.368   4.253 -0.2141 -0.5594  0.1958
16316SOL    HW149761   2.052   6.431   4.311 -0.0160  1.3025 -1.6209
16316SOL    HW249762   2.177   6.412   4.227 -0.8044 -0.9153 -2.3269
16317SOL     OW49763   4.788   4.970   3.566  0.0805  0.4039 -0.1037
16317SOL    HW149764   4.752   4.906   3.504  0.0423  0.3643 -0.0408
16317SOL    HW249765   4.738   5.050   3.549 -0.0338  0.3502 -0.0184
16318SOL     OW49766   7.501   6.529   6.948 -0.0664  0.5132 -0.0384
16318SOL    HW149767   7.557   6.461   6.912 -2.5136 -1.9916  0.6678
16318SOL    HW249768   7.445   6.556   6.875 -0.8355 -0.1108  0.3094
16319SOL     OW49769   1.282   2.297   5.194  0.1875  0.5075  0.4867
16319SOL    HW149770   1.341   2.258   5.130 -0.8516 -1.9204  0.9061
16319SOL    HW249771   1.243   2.371   5.149 -0.4592 -1.0870 -1.6923
16320SOL     OW49772   4.813   6.172   0.214 -0.1148  0.4495 -0.2022
16320SOL    HW149773   4.898   6.129   0.215 -0.4132 -0.1356  1.2442
16320SOL    HW249774   4.810   6.217   0.129  2.6599  2.5287  0.7051
16321SOL     OW49775   3.416   0.272   4.689  0.4589 -0.6931  0.0885
16321SOL    HW149776   3.416   0.272   4.594 -0.5561 -1.9994  0.0742
16321SOL    HW249777   3.476   0.201   4.713 -1.1805 -2.0094  0.3832
16322SOL     OW49778   7.528   4.600   0.507  0.0773  0.2173 -0.1887
16322SOL    HW149779   7.601   4.540   0.490  0.7784  0.9944  0.0465
16322SOL    HW249780   7.520   4.600   0.603  0.2278  0.6668 -0.1748
16323SOL     OW49781   4.334   0.477   1.609 -0.2729  0.5968 -0.1675
16323SOL    HW149782   4.423   0.451   1.633  0.2307 -0.7224 -3.2365
16323SOL    HW249783   4.295   0.398   1.572 -2.3377  1.4889  0.0434
16324SOL     OW49784   1.812   2.385   7.040 -0.2951 -0.0753  0.3358
16324SOL    HW149785   1.791   2.469   7.000  0.8131  1.1707  2.3124
16324SOL    HW249786   1.902   2.367   7.014 -0.4457 -0.5426  0.1221
16325SOL     OW49787   4.918   5.436   2.724  0.1643 -0.2383  0.4366
16325SOL    HW149788   4.906   5.531   2.715  0.9897 -0.3623 -2.7973
16325SOL    HW249789   4.974   5.425   2.800 -1.1364  1.7753  1.7135
16326SOL     OW49790   3.820   1.737   6.288 -0.0720  0.1067  0.5766
16326SOL    HW149791   3.726   1.755   6.287  0.2489  1.7904 -0.0570
16326SOL    HW249792   3.830   1.668   6.353 -1.7790 -0.2842  0.4603
16327SOL     OW49793   5.609   4.407   0.324 -0.4994  0.5097 -0.4575
16327SOL    HW149794   5.518   4.436   0.316 -0.3691  1.1825  0.3944
16327SOL    HW249795   5.652   4.441   0.246 -0.6140  1.6460 -0.0409
16328SOL     OW49796   3.439   6.678   2.077  0.3627 -0.3809 -0.1242
16328SOL    HW149797   3.503   6.668   2.147 -0.1411  1.1215  0.5801
16328SOL    HW249798   3.492   6.691   1.998  0.9235 -0.8057  0.1784
16329SOL     OW49799   4.781   1.421   0.051  0.2052 -0.3986 -0.3592
16329SOL    HW149800   4.690   1.399   0.071  0.6259 -0.7319  1.2578
16329SOL    HW249801   4.829   1.339   0.064  0.8007 -0.1193 -0.7782
16330SOL     OW49802   3.335   7.767   4.119  0.0412  0.0142 -0.4188
16330SOL    HW149803   3.373   7.680   4.109  0.4272 -0.1426  2.0174
16330SOL    HW249804   3.401   7.826   4.084  0.4150 -0.5739 -0.7206
16331SOL     OW49805   5.898   0.150   6.954 -0.6721  0.7467 -0.4307
16331SOL    HW149806   5.911   0.228   7.009  0.7377  0.3374 -0.1609
16331SOL    HW249807   5.951   0.168   6.875  0.4403 -0.3466  0.0573
16332SOL     OW49808   0.863   5.690   0.897  0.0897 -0.4256 -0.0180
16332SOL    HW149809   0.912   5.695   0.979  0.1069 -1.1032  0.0158
16332SOL    HW249810   0.782   5.643   0.919 -0.4110  0.3583 -0.1535
16333SOL     OW49811   6.361   3.749   6.924  0.0599  0.0689 -0.2445
16333SOL    HW149812   6.352   3.653   6.924 -0.7902  0.1253 -2.0254
16333SOL    HW249813   6.455   3.764   6.930  0.2852 -0.9022 -1.2731
16334SOL     OW49814   4.096   0.490   3.564  0.4527  0.4330 -0.0969
16334SOL    HW149815   4.086   0.417   3.625  2.3805  0.0969 -0.1339
16334SOL    HW249816   4.134   0.560   3.617  1.1018  0.5137 -0.6609
16335SOL     OW49817   3.403   7.182   4.037  0.4432 -0.0479 -0.8187
16335SOL    HW149818   3.466   7.141   3.978  0.3187 -0.1326 -0.8932
16335SOL    HW249819   3.457   7.223   4.105  0.5147 -2.4717  0.6502
16336SOL     OW49820   4.943   3.435   6.438 -0.3419  0.5618  0.1092
16336SOL    HW149821   5.021   3.409   6.389 -0.7020 -0.5885  0.1328
16336SOL    HW249822   4.884   3.360   6.431 -0.5918  0.5733  1.9007
16337SOL     OW49823   2.718   5.635   2.632 -0.2153  0.0164  0.4167
16337SOL    HW149824   2.724   5.546   2.595  0.1078 -0.0419  0.6075
16337SOL    HW249825   2.792   5.681   2.592  0.1385 -0.0491  0.9984
16338SOL     OW49826   6.467   6.782   6.683 -0.1702  0.1376 -0.4097
16338SOL    HW149827   6.450   6.796   6.777  0.6611  1.5569 -0.4644
16338SOL    HW249828   6.390   6.734   6.652 -0.6023 -0.0560  0.9341
16339SOL     OW49829   0.464   0.501   5.271 -0.3766  0.7085 -0.1484
16339SOL    HW149830   0.371   0.507   5.252 -0.8110 -2.4929  0.6515
16339SOL    HW249831   0.479   0.408   5.290  2.9572  1.1704 -0.1821
16340SOL     OW49832   2.614   4.858   4.337  0.5006  0.3730  0.0409
16340SOL    HW149833   2.533   4.908   4.341 -0.4830 -1.0822 -1.3795
16340SOL    HW249834   2.653   4.868   4.424 -0.6782  1.9199  0.3972
16341SOL     OW49835   5.660   7.071   1.880  0.7699  0.3509 -0.0890
16341SOL    HW149836   5.698   7.115   1.956 -0.4371  0.8560  0.2361
16341SOL    HW249837   5.640   7.142   1.819  1.6157 -0.0406 -0.8305
16342SOL     OW49838   4.874   5.554   3.012 -0.3130 -0.2024  0.1340
16342SOL    HW149839   4.887   5.618   2.942  0.5201 -0.9374 -0.3825
16342SOL    HW249840   4.923   5.477   2.984 -1.3569 -1.0910  0.7294
16343SOL     OW49841   1.727   4.272   2.906 -0.0986 -0.0226  0.2051
16343SOL    HW149842   1.669   4.336   2.946  2.6682  2.1707  0.8894
16343SOL    HW249843   1.752   4.313   2.822  0.8129 -0.7082  0.1399
16344SOL     OW49844   7.650   2.199   0.251  0.3594 -0.6469 -0.1323
16344SOL    HW149845   7.642   2.202   0.155  0.8522  1.2989 -0.1233
16344SOL    HW249846   7.560   2.186   0.282  0.0553 -0.2162 -0.8199
16345SOL     OW49847   7.146   2.258   5.096 -0.2376 -0.3309  0.0442
16345SOL    HW149848   7.110   2.240   5.183 -0.8135  0.2925 -0.0667
16345SOL    HW249849   7.094   2.203   5.037 -1.5262  1.1416 -0.2087
16346SOL     OW49850   6.251   4.592   4.301  0.0566 -0.0307  0.2390
16346SOL    HW149851   6.204   4.605   4.218 -2.5879  0.1605  1.7147
16346SOL    HW249852   6.240   4.675   4.348  1.0583 -0.3360  1.0139
16347SOL     OW49853   7.661   7.840   0.814  0.6231 -0.1116  0.2415
16347SOL    HW149854   7.679   7.857   0.722 -0.2142  2.0924  0.4666
16347SOL    HW249855   7.681   7.922   0.859  0.7099 -1.0497  1.9926
16348SOL     OW49856   5.586   7.009   6.579  0.1193  0.3252 -0.0019
16348SOL    HW149857   5.524   6.985   6.649 -0.5157  1.3022 -0.2283
16348SOL    HW249858   5.637   7.080   6.616  2.0114 -1.3322  0.6598
16349SOL     OW49859   5.487   2.664   0.680  0.7603  0.1714 -0.4470
16349SOL    HW149860   5.443   2.748   0.666  0.8561  0.4045  0.5673
16349SOL    HW249861   5.551   2.682   0.749  2.1334 -0.2767 -1.5819
16350SOL     OW49862   0.607   0.778   1.542 -0.2696  0.4971 -0.1239
16350SOL    HW149863   0.702   0.783   1.534 -0.0662 -3.0740 -0.8266
16350SOL    HW249864   0.592   0.750   1.632 -0.6570  0.6165 -0.1507
16351SOL     OW49865   7.688   0.408   5.151  0.2664 -0.2431  0.1395
16351SOL    HW149866   7.752   0.443   5.089 -0.3126  0.6878  0.0653
16351SOL    HW249867   7.612   0.465   5.142 -0.5394 -1.2826  0.3087
16352SOL     OW49868   3.325   0.629   5.084  0.2264  0.3879 -0.5174
16352SOL    HW149869   3.324   0.612   4.990  1.7460  0.1984 -0.4987
16352SOL    HW249870   3.258   0.570   5.120 -0.2175  0.3257 -1.4522
16353SOL     OW49871   0.989   0.165   4.969  0.3861 -0.0335 -0.2458
16353SOL    HW149872   1.042   0.113   5.029 -0.2475 -0.4056 -0.0001
16353SOL    HW249873   0.956   0.102   4.905  1.0686  0.3615 -1.0054
16354SOL     OW49874   7.466   1.744   2.954  0.2383 -0.2716  0.0509
16354SOL    HW149875   7.517   1.793   3.018 -0.2205 -2.2299  1.9733
16354SOL    HW249876   7.379   1.784   2.956  0.0916 -0.6468  0.9965
16355SOL     OW49877   5.614   6.741   6.400 -0.3477 -0.0476  0.6249
16355SOL    HW149878   5.598   6.741   6.495  2.3763 -0.3066  1.1222
16355SOL    HW249879   5.594   6.651   6.373  0.1744 -0.3441  1.2070
16356SOL     OW49880   7.584   6.581   4.620  0.3354  0.1219  0.0225
16356SOL    HW149881   7.516   6.572   4.687 -1.8298  1.6565 -1.9028
16356SOL    HW249882   7.560   6.518   4.552 -0.3194  2.0653 -1.5844
16357SOL     OW49883   7.155   5.190   3.042 -0.4847 -0.3735  0.3506
16357SOL    HW149884   7.173   5.127   3.112 -1.9008 -0.9072  0.2654
16357SOL    HW249885   7.059   5.187   3.032 -0.4295  0.7815 -0.5956
16358SOL     OW49886   3.221   5.020   3.570 -0.2408  0.3798  0.6685
16358SOL    HW149887   3.260   5.062   3.494 -0.4285  0.7210  0.7599
16358SOL    HW249888   3.128   5.013   3.549 -0.0981 -0.6524  0.3489
16359SOL     OW49889   1.582   3.332   4.966  0.6430 -0.0126 -0.0389
16359SOL    HW149890   1.670   3.370   4.964 -0.2292  2.0224 -2.0581
16359SOL    HW249891   1.563   3.321   5.059  2.3775  1.0879  0.4766
16360SOL     OW49892   6.647   1.776   6.363 -0.4638  0.2370  0.4095
16360SOL    HW149893   6.616   1.866   6.358  0.5475  0.6259  1.1020
16360SOL    HW249894   6.606   1.733   6.287  1.3667  2.0005 -1.6556
16361SOL     OW49895   5.352   7.766   1.209 -0.4239 -0.3967  0.0302
16361SOL    HW149896   5.440   7.741   1.181  0.4881 -0.3833  2.7757
16361SOL    HW249897   5.353   7.862   1.206  0.4363 -0.3016  2.1947
16362SOL     OW49898   4.235   1.459   7.443 -0.5622 -0.6050  0.0810
16362SOL    HW149899   4.276   1.485   7.361  0.2229  2.3021  1.3064
16362SOL    HW249900   4.306   1.456   7.506 -1.5823  0.2874  1.3086
16363SOL     OW49901   6.055   3.449   4.208 -0.0881  0.1991  0.0863
16363SOL    HW149902   6.100   3.467   4.125 -0.5607  1.3463  0.0563
16363SOL    HW249903   6.023   3.359   4.199 -1.2584  0.7415 -1.5306
16364SOL     OW49904   3.981   6.152   6.528  0.5252 -0.1744 -0.5811
16364SOL    HW149905   3.897   6.149   6.574  0.4296  1.3865 -0.6365
16364SOL    HW249906   4.033   6.084   6.570 -0.3223 -0.2702  0.3358
16365SOL     OW49907   1.322   6.880   3.934  0.1456  0.4340 -0.3026
16365SOL    HW149908   1.292   6.790   3.933 -1.1414  0.8570 -1.2560
16365SOL    HW249909   1.342   6.898   4.026 -0.2102 -0.6130 -0.0166
16366SOL     OW49910   4.685   3.256   1.811  0.2068  0.1274  0.3344
16366SOL    HW149911   4.771   3.265   1.771  0.8345  1.0979  1.8697
16366SOL    HW249912   4.688   3.313   1.888 -2.3230  1.4078 -0.4529
16367SOL     OW49913   4.007   3.134   4.847 -0.5197  0.4953  0.4504
16367SOL    HW149914   3.946   3.144   4.919 -0.8362  1.2467  0.0769
16367SOL    HW249915   4.006   3.040   4.828 -1.9812  0.5745  0.0749
16368SOL     OW49916   0.564   1.348   2.921  0.5957  0.5349 -0.3772
16368SOL    HW149917   0.490   1.348   2.982  0.0761 -0.9397 -0.9707
16368SOL    HW249918   0.641   1.341   2.977  0.0540 -2.5574  0.1191
16369SOL     OW49919   0.451   7.543   4.255 -0.2971  0.2925 -0.2584
16369SOL    HW149920   0.539   7.538   4.294  0.6704  1.8881 -2.1232
16369SOL    HW249921   0.402   7.600   4.314  0.7365  1.5552 -0.5785
16370SOL     OW49922   5.532   4.534   2.179  0.1065  0.0852  0.1872
16370SOL    HW149923   5.603   4.586   2.141 -0.3385  0.3491 -0.2926
16370SOL    HW249924   5.456   4.592   2.176 -0.6238 -0.9028 -1.2346
16371SOL     OW49925   3.575   4.707   6.311  0.2548 -0.3618  1.0375
16371SOL    HW149926   3.484   4.691   6.336 -0.5014 -0.2359 -1.4451
16371SOL    HW249927   3.571   4.725   6.217  2.7632  0.4402  1.0441
16372SOL     OW49928   4.467   2.070   3.088  0.1529 -0.6048 -0.2262
16372SOL    HW149929   4.562   2.073   3.103  0.0510 -2.6287  1.0645
16372SOL    HW249930   4.444   1.979   3.104 -2.0144 -0.1360 -0.6084
16373SOL     OW49931   5.454   1.626   6.463  0.2101  0.4993 -0.4586
16373SOL    HW149932   5.404   1.587   6.391  0.0890 -0.0302 -0.0882
16373SOL    HW249933   5.487   1.709   6.427 -1.6282  1.2674 -0.4444
16374SOL     OW49934   2.561   0.074   6.448 -0.1411  0.0676  0.0164
16374SOL    HW149935   2.616   0.111   6.517  1.0132 -0.1211 -0.7888
16374SOL    HW249936   2.622   0.033   6.387 -1.2415 -1.0618 -0.3673
16375SOL     OW49937   5.360   1.221   2.912 -0.1946 -0.7243 -0.0876
16375SOL    HW149938   5.312   1.298   2.880  1.8563  0.0073 -1.5211
16375SOL    HW249939   5.295   1.151   2.913 -1.8560  0.7652  0.2643
16376SOL     OW49940   0.774   0.398   5.634  0.2007  0.1966  0.7011
16376SOL    HW149941   0.801   0.426   5.722 -0.3544  0.1738  0.8843
16376SOL    HW249942   0.827   0.451   5.575  1.2041 -0.4112  1.0459
16377SOL     OW49943   7.357   0.175   7.664 -0.5260  0.1620  0.1325
16377SOL    HW149944   7.318   0.198   7.748 -0.1504 -0.8617  0.6020
16377SOL    HW249945   7.442   0.220   7.663 -0.8818  0.8259 -0.0513
16378SOL     OW49946   4.853   2.334   3.880 -0.5122 -0.8370 -0.2326
16378SOL    HW149947   4.906   2.284   3.818 -0.9634 -0.0693 -1.2662
16378SOL    HW249948   4.767   2.291   3.879 -0.4976 -0.8695 -0.0863
16379SOL     OW49949   0.065   0.294   0.573 -0.4438  0.0354 -0.1132
16379SOL    HW149950  -0.004   0.325   0.632 -0.4856 -4.4097  2.3425
16379SOL    HW249951   0.141   0.283   0.629  0.2052 -1.9802 -1.3512
16380SOL     OW49952   1.278   3.169   5.023 -0.5523  0.4028  0.2897
16380SOL    HW149953   1.193   3.171   5.067 -0.5294 -0.0024  0.3537
16380SOL    HW249954   1.290   3.258   4.991 -0.5425  0.7189  1.1625
16381SOL     OW49955   5.349   0.969   6.226 -0.2266  0.1848  0.3681
16381SOL    HW149956   5.406   0.895   6.247  1.7240  1.2460 -0.9572
16381SOL    HW249957   5.284   0.932   6.166  1.1818 -0.3323 -0.8937
16382SOL     OW49958   5.451   1.309   3.335 -0.5131  1.0208  0.2539
16382SOL    HW149959   5.366   1.267   3.322 -0.0529  0.0377  0.3235
16382SOL    HW249960   5.469   1.353   3.252  0.4943 -1.7093 -1.0554
16383SOL     OW49961   2.083   6.715   0.640  0.6523  0.4132  0.1285
16383SOL    HW149962   2.154   6.742   0.699 -1.1004  0.2756  2.3732
16383SOL    HW249963   2.039   6.797   0.617 -1.8357  0.0600  3.2495
16384SOL     OW49964   6.640   7.219   4.502  0.1209  0.0052 -0.2123
16384SOL    HW149965   6.606   7.129   4.501  1.0370 -0.3577  0.6412
16384SOL    HW249966   6.600   7.258   4.580 -1.0420  0.6467 -1.1207
16385SOL     OW49967   5.615   0.869   7.892 -0.3289 -0.6845 -0.0332
16385SOL    HW149968   5.546   0.802   7.886 -0.9472 -0.0176 -0.5001
16385SOL    HW249969   5.568   0.952   7.884  0.7031 -0.2515 -1.9567
16386SOL     OW49970   7.745   1.402   0.549  0.3384  0.3634 -0.4352
16386SOL    HW149971   7.694   1.345   0.606  1.9724 -0.1201  0.5773
16386SOL    HW249972   7.696   1.402   0.466 -1.6833  0.5286  0.7266
16387SOL     OW49973   1.707   6.753   3.603  0.3161 -0.1117 -0.1112
16387SOL    HW149974   1.616   6.781   3.609 -0.1756 -1.3463 -1.4836
16387SOL    HW249975   1.706   6.663   3.636  1.1326  0.0525  0.3682
16388SOL     OW49976   6.067   3.990   1.112 -0.0346  0.1666  0.3286
16388SOL    HW149977   5.980   3.950   1.106  0.1900 -0.1741 -0.7140
16388SOL    HW249978   6.076   4.013   1.204 -2.0955  2.1373  0.0972
16389SOL     OW49979   4.291   4.340   2.198 -0.2195  0.0057  0.5019
16389SOL    HW149980   4.361   4.394   2.234 -0.3261  0.3604  0.1755
16389SOL    HW249981   4.257   4.390   2.124  0.3662 -0.9758 -0.4507
16390SOL     OW49982   5.208   7.777   5.022 -0.5284  0.3830  0.1036
16390SOL    HW149983   5.253   7.694   5.011  0.2722  0.8263  0.0087
16390SOL    HW249984   5.172   7.796   4.935  0.4920  0.8223 -0.2342
16391SOL     OW49985   6.363   6.461   4.786 -0.5627  0.4079  0.2184
16391SOL    HW149986   6.375   6.547   4.745  0.6748 -0.0821 -0.5020
16391SOL    HW249987   6.428   6.405   4.743 -0.7757 -0.6828  1.2767
16392SOL     OW49988   6.529   4.723   2.284  0.3886 -0.1461  0.0344
16392SOL    HW149989   6.443   4.718   2.243  1.3053 -1.0535 -1.8585
16392SOL    HW249990   6.589   4.737   2.211  2.1171 -2.1668  1.0301
16393SOL     OW49991   5.701   1.952   3.332 -0.4791 -0.2438 -0.1094
16393SOL    HW149992   5.740   1.865   3.324 -2.3679 -0.9725 -1.7329
16393SOL    HW249993   5.715   1.976   3.423  1.8961 -1.3503 -0.1319
16394SOL     OW49994   5.646   3.995   3.290 -0.1956 -0.2460 -0.7997
16394SOL    HW149995   5.569   3.948   3.322  1.1070 -0.3064  2.4834
16394SOL    HW249996   5.628   4.087   3.307 -0.9032  0.0861 -3.1594
16395SOL     OW49997   1.649   7.260   1.716  0.0911  0.2289 -0.2662
16395SOL    HW149998   1.739   7.234   1.699  1.3595  2.6702  2.3166
16395SOL    HW249999   1.619   7.198   1.784  0.3820  0.4325  0.0488
16396SOL     OW50000   2.368   4.194   6.117 -0.9842 -0.1797 -0.4258
16396SOL    HW150001   2.436   4.137   6.153 -0.4828  0.5835 -0.1769
16396SOL    HW250002   2.415   4.269   6.082 -1.6750  0.2065 -0.5224
16397SOL     OW50003   3.170   4.243   1.267 -0.4340  0.0231  0.0092
16397SOL    HW150004   3.211   4.187   1.333  2.7427  0.7144 -1.2800
16397SOL    HW250005   3.128   4.181   1.207  1.4718 -0.9604 -0.3833
16398SOL     OW50006   6.424   2.543   2.941 -0.0347  0.4889  0.4897
16398SOL    HW150007   6.443   2.538   2.847  1.5995 -0.7017  0.8592
16398SOL    HW250008   6.331   2.566   2.946 -0.5199 -0.9508 -1.4293
16399SOL     OW50009   4.063   0.173   0.908  0.2732 -0.1625  0.0002
16399SOL    HW150010   4.060   0.124   0.826 -1.6272  0.1983 -0.1689
16399SOL    HW250011   4.124   0.245   0.891 -2.1535  1.4929 -2.0282
16400SOL     OW50012   2.796   3.920   5.693  0.3143 -0.6606 -0.2731
16400SOL    HW150013   2.752   4.005   5.694  0.6701 -0.4806  1.2944
16400SOL    HW250014   2.796   3.894   5.601 -1.4492  0.1769 -0.5244
16401SOL     OW50015   3.062   7.225   0.425  0.1596 -0.2291 -0.6129
16401SOL    HW150016   3.051   7.285   0.498  1.1186 -0.3932 -0.3286
16401SOL    HW250017   3.157   7.218   0.413  0.0205 -0.3019 -1.7849
16402SOL     OW50018   6.088   6.976   4.249 -0.0419 -0.2948  0.0237
16402SOL    HW150019   6.025   6.972   4.177 -1.3307  0.3829  1.0931
16402SOL    HW250020   6.149   6.905   4.230 -0.9680 -0.8052 -1.1774
16403SOL     OW50021   0.232   2.562   1.284 -0.4850 -0.1954  0.8945
16403SOL    HW150022   0.177   2.640   1.278 -3.8201 -2.6797 -2.5443
16403SOL    HW250023   0.280   2.560   1.201  1.7711 -0.3238  2.1501
16404SOL     OW50024   5.430   0.999   6.628  0.6102 -0.7793  0.6481
16404SOL    HW150025   5.422   0.987   6.722  0.1345 -2.0226  0.4645
16404SOL    HW250026   5.521   1.024   6.614  0.6931 -0.6403  1.4334
16405SOL     OW50027   6.749   6.636   2.522 -0.0572 -0.2192 -0.5154
16405SOL    HW150028   6.772   6.691   2.448  0.9540 -0.5410 -0.4585
16405SOL    HW250029   6.824   6.644   2.582  0.2945 -1.9686 -0.6964
16406SOL     OW50030   0.173   4.146   4.039 -0.9274  0.0728 -0.4832
16406SOL    HW150031   0.228   4.137   4.117 -0.5024  0.2559 -0.7577
16406SOL    HW250032   0.178   4.239   4.017 -1.4363  0.1079 -0.4461
16407SOL     OW50033   5.198   0.129   0.355  0.5788  0.0956 -0.1187
16407SOL    HW150034   5.257   0.055   0.342 -0.5482 -1.1735  1.6711
16407SOL    HW250035   5.228   0.170   0.437 -0.2531  0.1609  0.1669
16408SOL     OW50036   4.289   7.599   1.847 -0.0401 -0.1875  0.4887
16408SOL    HW150037   4.378   7.606   1.882 -0.4516  0.5972  1.3895
16408SOL    HW250038   4.294   7.529   1.782  1.3430  0.1659  0.1982
16409SOL     OW50039   2.505   6.901   4.168  0.4374  0.2962  0.2436
16409SOL    HW150040   2.547   6.873   4.250 -1.0596 -1.3827  0.4401
16409SOL    HW250041   2.435   6.960   4.196  0.1834  0.0402  0.1475
16410SOL     OW50042   4.339   1.821   5.197  0.6672 -0.1030 -0.5124
16410SOL    HW150043   4.383   1.737   5.181  1.5856  0.3712 -0.4403
16410SOL    HW250044   4.328   1.859   5.110  1.4718  0.3302 -0.4221
16411SOL     OW50045   7.213   6.255   7.501  0.6974  0.5073 -0.3476
16411SOL    HW150046   7.209   6.183   7.438 -1.6039 -0.8389  1.2619
16411SOL    HW250047   7.283   6.230   7.561 -0.2307 -0.5126  0.3272
16412SOL     OW50048   2.432   1.105   6.923  0.1873 -0.0560 -0.1007
16412SOL    HW150049   2.391   1.018   6.921  1.2942 -0.5883  0.0798
16412SOL    HW250050   2.491   1.106   6.848  0.2010  0.5305 -0.0860
16413SOL     OW50051   0.186   6.774   5.430  0.2697 -0.2260 -0.1475
16413SOL    HW150052   0.251   6.760   5.500 -0.8263  0.9043  1.1284
16413SOL    HW250053   0.176   6.869   5.426 -0.3929 -0.3393 -1.1836
16414SOL     OW50054   0.757   2.830   2.987  0.1903  0.2943  0.0652
16414SOL    HW150055   0.813   2.757   2.959 -0.7375 -0.3895 -0.0265
16414SOL    HW250056   0.674   2.789   3.010  0.0090  1.2006  1.0607
16415SOL     OW50057   5.790   6.424   6.188  0.3150 -0.2831 -0.4660
16415SOL    HW150058   5.810   6.333   6.210 -0.0943 -0.6692 -1.6047
16415SOL    HW250059   5.854   6.476   6.235  1.9608 -1.3017 -1.5371
16416SOL     OW50060   1.067   5.612   4.915 -0.0410  0.4934  0.1706
16416SOL    HW150061   1.042   5.703   4.932 -0.2528  0.5372 -0.3784
16416SOL    HW250062   0.991   5.574   4.873  0.4585  0.3640 -0.6277
16417SOL     OW50063   6.518   2.431   0.555 -0.1524  0.1871  0.3838
16417SOL    HW150064   6.479   2.468   0.476  0.1316 -0.0727  0.1162
16417SOL    HW250065   6.612   2.429   0.536 -0.3202 -2.5318 -0.4273
16418SOL     OW50066   3.831   4.192   6.093 -0.1398 -0.5776  0.5529
16418SOL    HW150067   3.772   4.217   6.165 -1.2565 -0.7736 -0.2846
16418SOL    HW250068   3.851   4.100   6.109  0.7108 -0.2710  1.3561
16419SOL     OW50069   5.277   1.722   5.153  0.0400 -0.5856 -0.1726
16419SOL    HW150070   5.215   1.755   5.218 -0.4231  0.9655 -1.3751
16419SOL    HW250071   5.244   1.635   5.131  0.4352 -1.3065  1.9345
16420SOL     OW50072   4.175   6.783   2.245 -0.1453 -0.5319 -0.0144
16420SOL    HW150073   4.098   6.835   2.221 -0.6494 -0.4211  1.7589
16420SOL    HW250074   4.238   6.847   2.277  0.9055 -0.5675 -1.9635
16421SOL     OW50075   1.045   7.324   3.490  0.2401 -0.0094  0.1819
16421SOL    HW150076   1.129   7.328   3.536 -0.0915 -0.2312  0.8113
16421SOL    HW250077   1.054   7.388   3.419  0.9253 -0.0058  0.2657
16422SOL     OW50078   3.350   3.705   1.250  0.3115 -0.2966  0.2789
16422SOL    HW150079   3.436   3.730   1.282  0.1903  0.3254  0.1151
16422SOL    HW250080   3.366   3.673   1.161  0.4734 -0.8916  0.5135
16423SOL     OW50081   6.986   0.589   1.631 -0.5184 -0.4682  1.0041
16423SOL    HW150082   6.924   0.574   1.703  0.3732 -0.9152  1.6809
16423SOL    HW250083   7.065   0.542   1.657  0.4682  0.9564  0.6239
16424SOL     OW50084   1.124   1.867   0.084  0.0186 -0.2228 -0.3343
16424SOL    HW150085   1.083   1.854   0.170 -1.9348  3.3055 -0.6424
16424SOL    HW250086   1.076   1.808   0.026 -0.0227 -1.1290  0.6129
16425SOL     OW50087   1.528   7.605   6.721 -0.0997 -0.2659  0.3803
16425SOL    HW150088   1.463   7.648   6.666  0.9951  0.1584 -0.6176
16425SOL    HW250089   1.477   7.554   6.784 -1.3861  0.4037 -0.1048
16426SOL     OW50090   6.307   7.138   4.755  0.4391 -0.2863 -0.0126
16426SOL    HW150091   6.358   7.060   4.732 -1.2372 -1.4939  0.2659
16426SOL    HW250092   6.266   7.115   4.838  0.0376  0.9510  0.1291
16427SOL     OW50093   0.262   6.101   5.328 -0.8440 -0.0356 -0.0397
16427SOL    HW150094   0.189   6.044   5.353  1.9314 -2.5908  2.8181
16427SOL    HW250095   0.254   6.177   5.386 -0.1090 -1.3179  1.8179
16428SOL     OW50096   5.744   4.535   5.978 -0.0310  0.2473  0.0728
16428SOL    HW150097   5.778   4.447   5.991 -1.7481 -0.3833  0.4549
16428SOL    HW250098   5.667   4.539   6.035 -0.3390  1.7703 -0.4358
16429SOL     OW50099   7.919   1.999   4.460  0.0028  0.0258 -0.1502
16429SOL    HW150100   7.839   1.946   4.455 -1.2216  1.6708  1.3428
16429SOL    HW250101   7.939   2.022   4.369 -2.4862  1.4038 -0.3895
16430SOL     OW50102   6.680   4.269   4.609 -0.1482 -0.0233 -0.3030
16430SOL    HW150103   6.718   4.355   4.625  1.2405 -0.6306 -0.1907
16430SOL    HW250104   6.602   4.266   4.664 -0.0950  1.0743 -0.1531
16431SOL     OW50105   7.967   1.001   4.709 -0.1798 -0.0786 -0.1924
16431SOL    HW150106   7.997   0.934   4.647 -1.9176  0.4811 -1.6879
16431SOL    HW250107   7.940   0.952   4.786 -1.2942 -1.1016 -1.2175
16432SOL     OW50108   0.436   3.811   2.430  0.5440 -0.2093  0.3628
16432SOL    HW150109   0.366   3.753   2.400 -0.3012  1.7508 -1.6321
16432SOL    HW250110   0.514   3.756   2.431 -0.6552 -1.9553  0.8164
16433SOL     OW50111   6.465   0.669   2.697 -0.3690  0.0001  0.2061
16433SOL    HW150112   6.480   0.644   2.606  0.8742 -0.1394  0.4392
16433SOL    HW250113   6.422   0.754   2.691 -0.4670 -0.0919 -0.5154
16434SOL     OW50114   4.995   0.034   4.125 -0.1853 -0.1227  0.5373
16434SOL    HW150115   5.044   0.028   4.207  0.1272 -1.5040  0.2661
16434SOL    HW250116   5.023   0.117   4.086  1.4904 -0.6134  0.6637
16435SOL     OW50117   6.054   1.188   6.692 -0.0124 -0.0167  0.4433
16435SOL    HW150118   6.055   1.283   6.704  0.7482 -0.2339  2.3034
16435SOL    HW250119   6.128   1.171   6.634  0.5688  0.4218  1.0462
16436SOL     OW50120   1.618   0.362   5.739  0.1140 -0.2981  0.5049
16436SOL    HW150121   1.565   0.355   5.819 -3.4085  2.2444 -1.4713
16436SOL    HW250122   1.674   0.438   5.754  1.3493 -1.3635  1.4987
16437SOL     OW50123   2.557   4.137   5.461 -0.3590 -0.1477  0.0590
16437SOL    HW150124   2.579   4.155   5.552  2.0654 -2.0136 -0.0965
16437SOL    HW250125   2.635   4.163   5.412 -0.1763 -2.6672 -1.0630
16438SOL     OW50126   4.938   1.894   5.041 -0.0520  0.6733  0.1048
16438SOL    HW150127   4.863   1.864   5.092  0.3088 -0.1673  0.1576
16438SOL    HW250128   4.963   1.977   5.082 -0.3197  0.4513  0.7256
16439SOL     OW50129   0.860   5.955   2.013  0.0410 -0.8155 -0.3274
16439SOL    HW150130   0.835   5.923   1.926  2.4837 -3.3074 -0.2045
16439SOL    HW250131   0.937   6.010   1.997 -1.2106  1.0604 -0.0089
16440SOL     OW50132   0.843   3.037   3.650  0.1229 -0.2001 -0.0466
16440SOL    HW150133   0.872   3.114   3.699 -0.6203  0.4662 -0.6417
16440SOL    HW250134   0.822   2.972   3.718 -0.5741  0.5957  0.5086
16441SOL     OW50135   2.533   2.698   2.926 -0.1476  0.4331  0.0510
16441SOL    HW150136   2.499   2.609   2.936  0.6036  0.1662  0.2552
16441SOL    HW250137   2.491   2.747   2.996  1.1028 -0.2599  1.3210
16442SOL     OW50138   4.922   4.200   1.209  0.0887 -0.0783  0.3793
16442SOL    HW150139   4.911   4.277   1.153 -3.0778 -1.9090 -1.6497
16442SOL    HW250140   4.840   4.194   1.258  0.2743 -2.2198  0.4600
16443SOL     OW50141   3.856   3.262   7.903 -0.2129  0.1614  0.2786
16443SOL    HW150142   3.906   3.180   7.901 -1.4752 -0.6381  1.0697
16443SOL    HW250143   3.765   3.235   7.891 -0.5438  1.5538 -0.5367
16444SOL     OW50144   3.624   7.779   0.181 -0.3596  0.6632 -0.3921
16444SOL    HW150145   3.559   7.790   0.251  0.0243 -1.3710  0.3186
16444SOL    HW250146   3.708   7.784   0.226 -0.0008  2.6222 -1.2185
16445SOL     OW50147   0.300   0.257   5.804 -0.0637 -0.0645 -0.0956
16445SOL    HW150148   0.326   0.349   5.794 -0.5979 -0.0820 -1.8098
16445SOL    HW250149   0.334   0.213   5.727 -0.1346 -1.2499  0.5317
16446SOL     OW50150   6.965   6.705   2.652 -0.4974 -0.6924  0.1730
16446SOL    HW150151   7.045   6.757   2.661 -1.6457  0.9913  0.9418
16446SOL    HW250152   6.956   6.659   2.736 -0.1626 -1.1496 -0.0391
16447SOL     OW50153   0.454   0.060   6.322 -0.1661 -0.2785  0.2459
16447SOL    HW150154   0.482  -0.020   6.367  3.3404 -0.6706 -2.4718
16447SOL    HW250155   0.374   0.034   6.276 -0.2173 -1.6251  1.0677
16448SOL     OW50156   7.985   6.291   1.214  0.3320  0.6284 -0.3797
16448SOL    HW150157   7.944   6.208   1.239 -0.2497  1.0277 -0.0099
16448SOL    HW250158   7.944   6.314   1.130 -0.2839  1.0884  0.0491
16449SOL     OW50159   6.492   3.219   4.788 -0.5737 -0.2806  0.0694
16449SOL    HW150160   6.508   3.313   4.794 -0.7337 -0.3544  2.1340
16449SOL    HW250161   6.568   3.184   4.740  0.3705  0.6797  0.8508
16450SOL     OW50162   3.135   4.208   2.896 -0.0176 -0.0439 -0.3474
16450SOL    HW150163   3.086   4.126   2.902  0.8267 -0.5816 -0.7033
16450SOL    HW250164   3.226   4.183   2.915 -0.0848  1.1682  1.7060
16451SOL     OW50165   5.849   1.546   1.170 -0.4159 -0.1678 -0.3604
16451SOL    HW150166   5.799   1.474   1.131  0.7713 -0.7889 -0.7458
16451SOL    HW250167   5.799   1.625   1.147 -1.1022 -0.7582 -0.9255
16452SOL     OW50168   5.456   4.916   0.019  0.3238  0.5359  0.5477
16452SOL    HW150169   5.458   4.991   0.077 -1.9013  1.1438 -0.0941
16452SOL    HW250170   5.534   4.925  -0.036  0.9473  1.4560  1.5801
16453SOL     OW50171   5.771   5.814   4.988 -0.1993 -0.2335 -0.2338
16453SOL    HW150172   5.843   5.849   4.937  0.0337 -1.2931 -0.6588
16453SOL    HW250173   5.754   5.728   4.949  0.1582 -1.1817  1.6250
16454SOL     OW50174   2.407   3.380   6.358 -0.3305 -0.2240 -0.2170
16454SOL    HW150175   2.482   3.433   6.384 -0.3951  0.1306 -0.7491
16454SOL    HW250176   2.445   3.297   6.327 -0.1266  0.1503 -0.9749
16455SOL     OW50177   7.401   6.950   4.409 -0.4726 -0.5577 -0.1182
16455SOL    HW150178   7.488   6.931   4.445 -0.1334  0.4098 -0.4230
16455SOL    HW250179   7.396   6.899   4.328 -0.7457 -1.7355  0.6261
16456SOL     OW50180   6.820   4.777   6.741 -0.1474  0.2748 -0.5729
16456SOL    HW150181   6.770   4.699   6.719 -1.2112  0.2104  1.8913
16456SOL    HW250182   6.754   4.840   6.772  1.0484  0.8874  0.8275
16457SOL     OW50183   0.851   4.423   1.583  0.1211  0.3186  0.2029
16457SOL    HW150184   0.923   4.452   1.639 -0.1292  0.4267  0.4677
16457SOL    HW250185   0.773   4.433   1.637  0.0229 -0.7996  0.2797
16458SOL     OW50186   1.665   6.158   4.365 -0.4816 -0.2403 -0.5559
16458SOL    HW150187   1.622   6.185   4.284 -0.1551  0.3820 -0.5300
16458SOL    HW250188   1.642   6.066   4.375 -0.1001 -0.4659 -1.6309
16459SOL     OW50189   1.124   0.171   7.126  0.0561 -1.0199 -0.6535
16459SOL    HW150190   1.211   0.179   7.164  0.5588 -0.1795 -1.9326
16459SOL    HW250191   1.117   0.244   7.065 -0.9428 -1.9861 -1.7373
16460SOL     OW50192   3.961   5.591   5.843 -0.0986 -0.7442 -0.1366
16460SOL    HW150193   3.963   5.683   5.815 -0.4939 -0.3948  0.9340
16460SOL    HW250194   4.053   5.568   5.855 -0.0147 -0.3667 -0.0456
16461SOL     OW50195   2.834   6.614   0.762 -0.6091 -0.4728  0.4617
16461SOL    HW150196   2.886   6.558   0.820 -1.4246  0.2031  1.8675
16461SOL    HW250197   2.858   6.586   0.674  0.9655 -1.2406  1.1127
16462SOL     OW50198   6.492   3.653   4.221 -0.0630  0.2338 -0.5979
16462SOL    HW150199   6.418   3.640   4.281 -0.5045 -1.9614 -1.5567
16462SOL    HW250200   6.451   3.676   4.138  0.4138  0.5160 -0.7572
16463SOL     OW50201   3.601   3.731   2.935 -0.3548 -0.3752  0.3878
16463SOL    HW150202   3.692   3.724   2.905 -0.9372  0.2097 -1.5826
16463SOL    HW250203   3.575   3.642   2.955  0.2319 -0.7209 -0.3543
16464SOL     OW50204   0.117   0.351   7.981 -0.2594  0.4053 -0.5310
16464SOL    HW150205   0.073   0.327   8.063 -0.3473 -0.0905 -0.7202
16464SOL    HW250206   0.137   0.444   7.991 -2.5753  0.9657 -1.0074
16465SOL     OW50207   7.388   4.919   3.790  0.1687 -0.3865  0.8017
16465SOL    HW150208   7.463   4.923   3.731 -0.5606  2.0743 -0.0496
16465SOL    HW250209   7.377   5.010   3.820 -2.3799 -0.7332  0.9905
16466SOL     OW50210   5.111   3.106   6.549  0.8153  0.1723  0.4203
16466SOL    HW150211   5.044   3.135   6.612  0.5872 -3.9320  2.1731
16466SOL    HW250212   5.190   3.096   6.601  0.6526 -3.1590  0.1184
16467SOL     OW50213   5.478   2.291   2.945  0.3415  0.2518  0.2270
16467SOL    HW150214   5.541   2.363   2.953  2.3347 -1.7176  3.0439
16467SOL    HW250215   5.418   2.303   3.018 -1.0334  0.6200 -0.9400
16468SOL     OW50216   6.576   5.109   4.372 -0.1082  0.2605 -0.1559
16468SOL    HW150217   6.661   5.113   4.329 -0.1470 -0.7095 -0.3186
16468SOL    HW250218   6.577   5.028   4.422 -1.1389 -0.0290 -0.5809
16469SOL     OW50219   6.674   1.775   7.179  0.2875 -0.0580  0.1933
16469SOL    HW150220   6.686   1.821   7.096 -1.8521 -0.9332 -0.6196
16469SOL    HW250221   6.763   1.765   7.214  1.5088 -2.1760 -3.3209
16470SOL     OW50222   5.826   3.593   6.246  0.2854 -0.1698  0.0515
16470SOL    HW150223   5.754   3.585   6.309 -0.5041 -0.1022 -0.8292
16470SOL    HW250224   5.874   3.511   6.255 -1.1232 -1.1181 -0.8292
16471SOL     OW50225   2.552   4.652   5.784  0.1487  0.1647  0.2369
16471SOL    HW150226   2.494   4.701   5.842 -0.2749 -0.9079  0.7291
16471SOL    HW250227   2.630   4.708   5.775 -1.4309  2.2114 -1.4281
16472SOL     OW50228   2.906   2.773   7.076 -0.3827  0.1282  0.5276
16472SOL    HW150229   2.976   2.838   7.081 -0.5530  0.3219  0.3560
16472SOL    HW250230   2.825   2.824   7.075 -0.4363  0.0608 -2.6031
16473SOL     OW50231   4.173   0.904   6.717  0.2647  0.0365 -0.1081
16473SOL    HW150232   4.266   0.915   6.739  0.1930 -0.5582  0.5041
16473SOL    HW250233   4.139   0.993   6.714  0.5819  0.1977  0.8940
16474SOL     OW50234   7.453   6.162   7.724  0.2111  0.1392 -0.5490
16474SOL    HW150235   7.516   6.218   7.678  0.6524 -0.5840 -0.8415
16474SOL    HW250236   7.476   6.170   7.816 -0.4272  1.2931 -0.4799
16475SOL     OW50237   1.375   2.335   7.725 -0.1995  0.3243 -0.2186
16475SOL    HW150238   1.341   2.401   7.664  0.9747 -0.1806 -1.4430
16475SOL    HW250239   1.312   2.264   7.721  0.2514 -0.0285 -1.4450
16476SOL     OW50240   3.867   1.974   2.259 -0.7827  0.2869  0.0027
16476SOL    HW150241   3.885   2.063   2.229 -0.7557  0.1806 -0.2934
16476SOL    HW250242   3.787   1.982   2.311  0.1176  0.7635  1.3377
16477SOL     OW50243   1.721   6.057   3.153 -0.0053  0.3677 -0.2338
16477SOL    HW150244   1.722   5.962   3.146 -0.0010  0.2484  1.2364
16477SOL    HW250245   1.711   6.088   3.063  0.6475 -1.0061 -0.7873
16478SOL     OW50246   2.466   6.392   0.157 -0.0776  0.3410 -0.2446
16478SOL    HW150247   2.378   6.398   0.196  0.6806 -0.0877  1.5930
16478SOL    HW250248   2.490   6.483   0.140 -0.2879  0.5675  0.6287
16479SOL     OW50249   2.360   5.057   3.647  0.5023  0.2468  0.3543
16479SOL    HW150250   2.375   5.148   3.621  1.2544 -0.4753 -1.8866
16479SOL    HW250251   2.265   5.046   3.639  0.3863  0.8508  0.7794
16480SOL     OW50252   5.181   4.447   6.049 -0.0053 -0.1204  0.0170
16480SOL    HW150253   5.140   4.507   5.986 -1.4607 -0.4709  0.6251
16480SOL    HW250254   5.188   4.499   6.129  0.9188 -0.0078 -0.1290
16481SOL     OW50255   5.625   5.257   2.022  0.1921  0.2192  0.0217
16481SOL    HW150256   5.671   5.193   1.968  2.3821  1.3005  0.5155
16481SOL    HW250257   5.691   5.324   2.041 -1.2572  1.1898  1.8583
16482SOL     OW50258   5.358   5.688   0.272  0.1742  0.4155  0.4105
16482SOL    HW150259   5.351   5.613   0.212  0.1287  1.7978 -1.3389
16482SOL    HW250260   5.420   5.659   0.339  0.8924 -0.8473 -0.7706
16483SOL     OW50261   6.456   0.478   0.820  0.1361 -0.3142 -0.3755
16483SOL    HW150262   6.382   0.494   0.878  1.6985 -0.2494  1.6222
16483SOL    HW250263   6.475   0.563   0.781 -0.5791 -0.2551 -0.6007
16484SOL     OW50264   3.858   4.420   4.916 -0.2815  0.4108  0.3988
16484SOL    HW150265   3.773   4.461   4.901 -0.0241  1.3923  1.5477
16484SOL    HW250266   3.911   4.489   4.955  1.2662  0.0074 -0.9546
16485SOL     OW50267   2.911   6.933   5.718  0.0298  0.0903 -0.1811
16485SOL    HW150268   2.862   6.892   5.790 -1.0284  1.1048 -0.3181
16485SOL    HW250269   2.999   6.946   5.754 -0.6490  1.1129  1.1306
16486SOL     OW50270   3.198   6.536   1.338 -0.2433  0.3111 -0.5329
16486SOL    HW150271   3.277   6.573   1.297  0.8077 -0.8624  0.3872
16486SOL    HW250272   3.231   6.488   1.414 -1.9589  0.6428  0.4439
16487SOL     OW50273   3.371   2.871   2.026 -0.0081  0.0285 -0.0457
16487SOL    HW150274   3.384   2.829   2.111  0.9061 -2.1405 -1.2232
16487SOL    HW250275   3.290   2.833   1.992  0.2922 -0.0548 -0.6829
16488SOL     OW50276   1.311   5.618   2.123  0.1921 -0.3641 -0.0183
16488SOL    HW150277   1.333   5.585   2.210  2.0250  1.6683  0.3542
16488SOL    HW250278   1.326   5.713   2.129  1.7263 -0.3533 -2.9136
16489SOL     OW50279   5.986   7.931   2.582 -0.4126  0.6324 -0.1892
16489SOL    HW150280   5.939   7.895   2.657 -0.8377 -0.7789 -1.1223
16489SOL    HW250281   5.919   7.979   2.533 -0.5233  0.0334 -0.6256
16490SOL     OW50282   5.711   7.079   3.693  0.7227  0.0905 -0.3469
16490SOL    HW150283   5.769   7.105   3.764 -0.1177 -0.4579  0.5520
16490SOL    HW250284   5.708   6.983   3.698 -0.1510  0.1090 -0.4791
16491SOL     OW50285   1.949   3.236   5.238 -0.7590 -0.4893 -0.4874
16491SOL    HW150286   1.984   3.249   5.326  0.5245 -0.4011 -0.9967
16491SOL    HW250287   2.025   3.246   5.181 -1.7461  0.3054 -1.6718
16492SOL     OW50288   4.999   0.806   7.367 -0.1151 -0.1129  0.7302
16492SOL    HW150289   4.913   0.847   7.353 -0.4292 -1.2740 -0.8476
16492SOL    HW250290   4.980   0.726   7.415 -0.2151 -1.6458 -1.7965
16493SOL     OW50291   1.082   5.501   6.465  0.7969  0.2042  0.1498
16493SOL    HW150292   1.138   5.565   6.421  1.4660  0.3649  1.2276
16493SOL    HW250293   1.011   5.554   6.502 -0.2783 -0.0390 -1.5084
16494SOL     OW50294   1.702   1.265   4.166  0.1837  0.2486  0.2484
16494SOL    HW150295   1.758   1.260   4.244 -0.6353  0.0344  0.8328
16494SOL    HW250296   1.619   1.226   4.194 -0.0282 -0.0862 -0.8191
16495SOL     OW50297   5.827   7.990   2.346 -0.3753 -0.5634 -0.9266
16495SOL    HW150298   5.743   7.972   2.388  0.0858 -0.9854 -0.1858
16495SOL    HW250299   5.836   8.085   2.349 -0.4536 -0.5761 -0.2770
16496SOL     OW50300   4.816   4.580   3.433 -0.4193 -0.0959  0.5481
16496SOL    HW150301   4.794   4.672   3.421 -2.8726 -0.5094  1.5278
16496SOL    HW250302   4.737   4.533   3.406  0.9908 -1.9624 -0.4645
16497SOL     OW50303   0.743   0.814   3.357  0.3606 -0.4484  0.4766
16497SOL    HW150304   0.706   0.790   3.272 -1.2249  3.5235 -0.0455
16497SOL    HW250305   0.836   0.829   3.339  0.2235 -0.5436 -0.3259
16498SOL     OW50306   6.537   2.237   1.963  0.1711  0.1838 -0.2473
16498SOL    HW150307   6.486   2.269   1.889  0.7258  1.9899  0.1164
16498SOL    HW250308   6.521   2.300   2.033 -1.5413 -2.2909  1.7110
16499SOL     OW50309   3.671   0.201   0.909  0.1531  0.9623 -0.5644
16499SOL    HW150310   3.703   0.167   0.993  1.2557 -0.3499 -1.4844
16499SOL    HW250311   3.733   0.168   0.844 -0.7499  1.8522 -1.9216
16500SOL     OW50312   2.253   5.727   7.644 -0.0016  0.4889  0.1680
16500SOL    HW150313   2.300   5.675   7.709  2.1753  2.6636  0.3887
16500SOL    HW250314   2.307   5.722   7.566 -1.2127  0.1376 -0.6598
16501SOL     OW50315   4.624   2.419   7.763  0.5740  0.1717 -0.0325
16501SOL    HW150316   4.573   2.489   7.804  0.8650  0.2124  0.2571
16501SOL    HW250317   4.598   2.339   7.810  2.6706  0.5500  1.8570
16502SOL     OW50318   5.499   1.491   5.432  0.0158 -0.1709  0.3108
16502SOL    HW150319   5.449   1.432   5.376  0.1926  1.5040 -1.6362
16502SOL    HW250320   5.589   1.459   5.425  0.2807  0.9451 -1.5844
16503SOL     OW50321   2.531   4.856   1.631 -0.1499  0.5786 -0.2804
16503SOL    HW150322   2.598   4.904   1.583  0.9310  1.9934  2.5421
16503SOL    HW250323   2.476   4.924   1.671 -0.9492 -0.5580  0.6034
16504SOL     OW50324   5.295   5.295   7.637  0.4573 -0.1615 -0.0062
16504SOL    HW150325   5.385   5.299   7.607  0.7555 -1.5502  0.6646
16504SOL    HW250326   5.271   5.386   7.653  1.5541  0.2609 -0.6985
16505SOL     OW50327   5.422   7.295   5.579 -0.3433  0.4430 -0.0182
16505SOL    HW150328   5.440   7.202   5.595  2.9858  1.3211  1.8173
16505SOL    HW250329   5.474   7.341   5.645 -2.2020  3.6314 -0.6845
16506SOL     OW50330   6.190   5.853   2.050 -0.4012 -0.3600  0.2884
16506SOL    HW150331   6.163   5.807   2.129 -1.3074  0.2247  0.3236
16506SOL    HW250332   6.168   5.794   1.978  1.4070 -1.3538  0.5187
16507SOL     OW50333   5.617   0.015   2.008 -0.2617  0.3355 -0.0509
16507SOL    HW150334   5.621   0.051   1.919 -0.6331  0.4025 -0.0416
16507SOL    HW250335   5.672   0.074   2.060 -0.3372  0.5102 -0.1669
16508SOL     OW50336   2.417   6.671   5.802 -0.9837 -0.2127 -0.3070
16508SOL    HW150337   2.434   6.733   5.874 -1.2323 -0.5151  0.0148
16508SOL    HW250338   2.321   6.668   5.796 -0.9630 -0.2194 -0.6259
16509SOL     OW50339   2.438   2.181   4.957  0.0080  0.0689  0.1029
16509SOL    HW150340   2.518   2.213   4.915 -0.4630 -0.0972 -0.9424
16509SOL    HW250341   2.428   2.236   5.034  1.2752 -0.0804  0.3889
16510SOL     OW50342   0.697   0.368   7.608 -0.2915 -0.1483 -0.4713
16510SOL    HW150343   0.681   0.337   7.697 -1.1262 -1.4641 -1.0626
16510SOL    HW250344   0.643   0.446   7.600 -2.1079 -1.3907 -0.5943
16511SOL     OW50345   0.169   6.519   3.509  0.0107  0.5484 -0.3411
16511SOL    HW150346   0.129   6.595   3.467  0.9306  0.6897 -0.9987
16511SOL    HW250347   0.245   6.500   3.454 -0.0633 -0.6791 -0.0241
16512SOL     OW50348   5.903   4.698   4.137 -0.1602  0.1411 -0.3272
16512SOL    HW150349   5.934   4.750   4.063  1.3311 -0.8798 -0.4451
16512SOL    HW250350   5.965   4.626   4.143 -2.7950 -2.2762 -0.8554
16513SOL     OW50351   2.601   2.362   2.773  0.7039 -0.3410  0.8966
16513SOL    HW150352   2.537   2.381   2.704  1.9008  2.2099  0.4337
16513SOL    HW250353   2.551   2.312   2.838 -1.4659  0.5841  0.0186
16514SOL     OW50354   5.488   5.780   7.044  0.3599 -0.3520  0.2336
16514SOL    HW150355   5.415   5.797   7.105 -1.3909 -0.8142 -1.6669
16514SOL    HW250356   5.540   5.713   7.088 -0.6463 -0.3912  1.4242
16515SOL     OW50357   1.233   3.570   7.538  0.6332  0.1840 -0.3968
16515SOL    HW150358   1.170   3.509   7.501  1.3161 -0.1558 -1.0111
16515SOL    HW250359   1.295   3.588   7.467  0.4968  1.5169 -0.1974
16516SOL     OW50360   1.098   7.450   6.997  0.0190  0.3128  0.1663
16516SOL    HW150361   1.140   7.467   7.082 -0.8198 -0.5569  0.7570
16516SOL    HW250362   1.013   7.494   7.003  0.3836  1.1589 -0.6376
16517SOL     OW50363   4.284   5.048   5.511 -0.2007 -0.5706  0.2890
16517SOL    HW150364   4.268   4.955   5.529  0.7913 -0.8183 -0.0353
16517SOL    HW250365   4.376   5.051   5.485 -0.1678  0.5417  0.5148
16518SOL     OW50366   6.937   4.876   3.868 -0.1252 -0.8003 -0.1962
16518SOL    HW150367   6.965   4.967   3.880 -0.3125 -0.8652  0.7150
16518SOL    HW250368   6.892   4.853   3.949 -0.9672 -1.3881 -0.8155
16519SOL     OW50369   2.932   1.763   4.448 -0.1694  0.5932  0.0869
16519SOL    HW150370   2.844   1.728   4.464 -0.0506  0.0129 -0.5079
16519SOL    HW250371   2.926   1.805   4.362  0.7441 -1.5467 -1.0637
16520SOL     OW50372   6.304   5.526   0.430 -0.1341 -0.2551 -0.0951
16520SOL    HW150373   6.231   5.523   0.493  0.3636  1.8734  0.6342
16520SOL    HW250374   6.315   5.620   0.411  0.8209 -0.7425 -2.0805
16521SOL     OW50375   2.151   6.033   3.686 -0.0750  0.2295 -0.0307
16521SOL    HW150376   2.243   6.019   3.708 -0.3651 -1.9357 -0.0090
16521SOL    HW250377   2.108   6.043   3.771  0.0123  0.2488  0.0117
16522SOL     OW50378   0.373   0.862   1.443 -0.0830 -0.0881 -0.2798
16522SOL    HW150379   0.395   0.940   1.392 -1.2106  0.4642  0.0717
16522SOL    HW250380   0.451   0.846   1.496  0.7530 -0.1333 -1.5041
16523SOL     OW50381   2.874   6.166   7.087  0.4137  0.0836  0.0428
16523SOL    HW150382   2.820   6.243   7.102 -1.4059 -0.9607 -0.9745
16523SOL    HW250383   2.892   6.132   7.174 -1.5135 -0.1775  0.3622
16524SOL     OW50384   3.054   6.500   3.810 -0.0384  0.1370 -0.5277
16524SOL    HW150385   3.106   6.576   3.836  1.3767 -0.5696 -1.2120
16524SOL    HW250386   3.008   6.529   3.731  0.2600  0.3894 -0.6129
16525SOL     OW50387   2.983   3.224   2.767  0.3147 -0.5968 -0.4201
16525SOL    HW150388   2.946   3.198   2.683  0.5963 -2.5631  0.0221
16525SOL    HW250389   2.912   3.212   2.829 -0.0065  1.2176 -0.4142
16526SOL     OW50390   6.828   6.495   3.945 -0.0362  0.7056  0.1358
16526SOL    HW150391   6.802   6.403   3.951 -0.6185  0.7774 -1.0964
16526SOL    HW250392   6.911   6.494   3.898  0.0684  0.7850  0.3213
16527SOL     OW50393   4.637   7.695   4.871 -0.2165 -0.1998  0.0035
16527SOL    HW150394   4.659   7.728   4.958 -0.2768  0.6103 -0.2809
16527SOL    HW250395   4.672   7.761   4.811  0.8380 -1.3265 -0.6302
16528SOL     OW50396   3.916   3.800   2.176 -0.3377  0.0220  0.0272
16528SOL    HW150397   3.947   3.785   2.086  0.7493 -0.6037  0.4931
16528SOL    HW250398   3.991   3.838   2.221 -0.4745 -0.8028  0.9751
16529SOL     OW50399   1.716   0.645   6.067 -0.2082  0.3082 -0.2270
16529SOL    HW150400   1.705   0.556   6.100  0.3905  0.0036 -0.8255
16529SOL    HW250401   1.754   0.694   6.141 -0.9766  0.1831  0.2499
16530SOL     OW50402   5.045   4.897   5.897 -0.3278  0.1191  0.5045
16530SOL    HW150403   5.109   4.899   5.826 -0.1635  1.4062  0.6849
16530SOL    HW250404   5.092   4.930   5.973 -0.8285 -0.1889  0.9560
16531SOL     OW50405   1.585   2.565   6.499 -0.3128 -0.5801  0.7255
16531SOL    HW150406   1.564   2.478   6.533 -1.9219 -1.0298 -1.2745
16531SOL    HW250407   1.669   2.554   6.455 -1.5143 -1.7063 -1.3882
16532SOL     OW50408   5.956   6.136   0.955 -0.0682 -0.7299  0.1800
16532SOL    HW150409   6.009   6.161   1.031 -2.1199  0.4308  1.2765
16532SOL    HW250410   5.941   6.219   0.908 -0.2832 -1.1614 -0.5168
16533SOL     OW50411   7.653   0.071   7.899 -0.6592  0.0961 -0.8713
16533SOL    HW150412   7.713   0.058   7.826 -0.2929 -3.4423 -0.0548
16533SOL    HW250413   7.566   0.059   7.862 -0.4475 -2.2594 -0.6883
16534SOL     OW50414   4.412   0.086   0.730  0.0034  0.6506 -0.0665
16534SOL    HW150415   4.402  -0.008   0.748 -0.0611  0.3181 -1.7688
16534SOL    HW250416   4.346   0.128   0.785  0.6569 -0.2144  1.4170
16535SOL     OW50417   3.208   1.302   5.205 -0.4972 -0.0221  0.1688
16535SOL    HW150418   3.173   1.247   5.275  0.3754 -0.8578 -0.0518
16535SOL    HW250419   3.153   1.282   5.129 -1.4669  0.9100  0.5976
16536SOL     OW50420   2.741   6.534   2.091 -0.0966  0.4744 -0.6953
16536SOL    HW150421   2.649   6.507   2.100 -0.3268  1.7740  1.0130
16536SOL    HW250422   2.791   6.461   2.128 -0.4475  0.0360 -1.0608
16537SOL     OW50423   4.013   0.602   0.709 -0.6072 -0.1581  0.3133
16537SOL    HW150424   4.010   0.572   0.618 -0.6809  1.0841 -0.0919
16537SOL    HW250425   3.936   0.656   0.719  0.3009  1.0998  0.6270
16538SOL     OW50426   3.811   5.786   6.670  0.0227  0.5695 -0.1264
16538SOL    HW150427   3.744   5.804   6.603  0.2533  0.1736 -0.4626
16538SOL    HW250428   3.765   5.799   6.753 -0.3685  0.6878 -0.3589
16539SOL     OW50429   1.517   3.513   2.520 -0.4035  0.1621  0.1124
16539SOL    HW150430   1.453   3.581   2.500  0.4419  0.4765 -1.5383
16539SOL    HW250431   1.465   3.433   2.529 -1.2239  0.7366  0.5890
16540SOL     OW50432   1.458   2.978   1.033 -0.0934 -0.1825 -0.1282
16540SOL    HW150433   1.496   3.037   0.967 -1.1610  0.9839  0.2675
16540SOL    HW250434   1.374   2.952   0.995 -1.2319  1.4022  1.2483
16541SOL     OW50435   6.437   5.370   4.383 -0.0376 -0.4652 -0.0280
16541SOL    HW150436   6.462   5.279   4.399 -2.6807 -1.2112  0.0682
16541SOL    HW250437   6.432   5.409   4.470  2.3774  0.1382 -0.1496
16542SOL     OW50438   4.484   7.494   3.778  0.2981  1.0240 -0.2362
16542SOL    HW150439   4.480   7.563   3.712  1.2118  0.9135 -0.4234
16542SOL    HW250440   4.516   7.417   3.731 -0.3592  0.5740  0.0475
16543SOL     OW50441   2.855   3.412   2.994  0.0575  1.0084  0.4731
16543SOL    HW150442   2.941   3.397   2.955  0.6591  1.8207  1.4530
16543SOL    HW250443   2.870   3.409   3.089 -1.1756  0.1771  0.6581
16544SOL     OW50444   4.826   5.417   6.247  0.2266  0.1423 -0.2672
16544SOL    HW150445   4.797   5.456   6.329  1.6228  2.5216 -0.8443
16544SOL    HW250446   4.886   5.482   6.210  0.2278 -1.2353 -2.7781
16545SOL     OW50447   1.381   2.249   2.956 -0.0427 -0.2025 -0.1882
16545SOL    HW150448   1.427   2.228   2.874 -1.0675  0.5603 -0.9628
16545SOL    HW250449   1.369   2.344   2.953 -0.8603 -0.2857  0.4358
16546SOL     OW50450   1.619   6.434   7.854  0.1142  0.3651  0.2105
16546SOL    HW150451   1.559   6.506   7.871 -1.6493 -1.1334  0.5221
16546SOL    HW250452   1.695   6.451   7.910 -0.3509  1.8862  0.3767
16547SOL     OW50453   7.715   4.495   4.852 -0.2013  0.0846  0.2100
16547SOL    HW150454   7.739   4.509   4.944 -1.4981 -1.4968  0.8129
16547SOL    HW250455   7.795   4.515   4.803  0.6498  0.4597  1.7155
16548SOL     OW50456   1.830   5.711   5.853  0.0915  0.5756  0.0544
16548SOL    HW150457   1.877   5.794   5.860 -1.1011  1.4355 -1.6926
16548SOL    HW250458   1.898   5.644   5.856  1.2660  1.7254 -0.6291
16549SOL     OW50459   6.297   2.136   7.302  0.3717 -0.0570 -0.6726
16549SOL    HW150460   6.205   2.144   7.325  1.0214 -1.0852  2.6053
16549SOL    HW250461   6.311   2.042   7.287  0.7520  0.1650 -1.7315
16550SOL     OW50462   5.418   0.317   4.396  0.2820  0.3513  0.4922
16550SOL    HW150463   5.461   0.247   4.445 -0.6011 -1.1898 -0.8857
16550SOL    HW250464   5.447   0.305   4.306 -1.4576  0.4965 -0.1054
16551SOL     OW50465   1.904   2.091   2.900  0.1856 -0.6912 -0.8170
16551SOL    HW150466   1.974   2.152   2.921 -1.1330  1.5300 -2.6885
16551SOL    HW250467   1.945   2.027   2.840  0.9979 -0.3110 -0.6650
16552SOL     OW50468   1.668   7.011   1.029  0.4390  0.2614 -0.1752
16552SOL    HW150469   1.712   7.074   0.971  2.1014  1.1656  2.0085
16552SOL    HW250470   1.575   7.027   1.014  0.8320  2.7444 -0.2100
16553SOL     OW50471   5.256   6.194   3.481  0.1530  0.3039  0.2408
16553SOL    HW150472   5.248   6.155   3.568  0.0195  0.6086  0.3636
16553SOL    HW250473   5.229   6.285   3.492  1.6009  0.7547  0.1938
16554SOL     OW50474   5.145   5.961   2.114 -0.2937  0.0066  0.1859
16554SOL    HW150475   5.142   6.048   2.074 -0.5641  0.4956  1.2317
16554SOL    HW250476   5.053   5.936   2.123 -0.2157 -0.3590 -0.0638
16555SOL     OW50477   2.489   1.246   5.263 -0.0327  0.1429 -0.0072
16555SOL    HW150478   2.496   1.340   5.275 -2.6626  0.2262  1.1482
16555SOL    HW250479   2.462   1.234   5.172  1.6444  0.4084 -0.5572
16556SOL     OW50480   6.898   7.089   2.398  0.0934 -0.3515  0.2245
16556SOL    HW150481   6.808   7.090   2.432  0.4944 -1.4528  1.3612
16556SOL    HW250482   6.896   7.150   2.325 -1.4568  0.0548  0.5737
16557SOL     OW50483   0.210   4.203   7.088  0.0706  0.0525 -0.6301
16557SOL    HW150484   0.176   4.146   7.157 -1.4332  0.2707 -1.1631
16557SOL    HW250485   0.234   4.143   7.018  1.9784 -0.2015  0.2201
16558SOL     OW50486   1.335   1.178   5.166 -0.5104  0.6430 -0.0911
16558SOL    HW150487   1.399   1.134   5.222  0.0024  1.7920  0.2373
16558SOL    HW250488   1.268   1.111   5.148  1.4461 -0.9765 -1.5437
16559SOL     OW50489   1.749   0.565   3.216 -0.5961  0.1107 -0.1146
16559SOL    HW150490   1.745   0.487   3.161 -1.6427 -0.5560  0.8676
16559SOL    HW250491   1.791   0.535   3.297  1.0032  1.0976 -0.5557
16560SOL     OW50492   7.696   5.097   2.018 -0.5849  0.7263  0.1844
16560SOL    HW150493   7.785   5.100   1.981 -0.7554  0.5130 -0.2504
16560SOL    HW250494   7.699   5.025   2.080 -0.5813  0.4143 -0.1736
16561SOL     OW50495   5.004   7.012   5.018  0.2488  0.6977 -0.0502
16561SOL    HW150496   4.975   6.952   5.087  0.0053 -0.4655 -1.1294
16561SOL    HW250497   5.054   7.079   5.064  1.0624 -0.6754  1.1389
16562SOL     OW50498   4.980   0.913   3.479  0.2824 -0.3900  0.1031
16562SOL    HW150499   5.060   0.964   3.489  0.6756 -0.6464 -1.5602
16562SOL    HW250500   4.961   0.880   3.567  2.1469 -0.5329  0.4626
16563SOL     OW50501   7.678   6.103   3.405 -0.1581  0.0173 -0.0610
16563SOL    HW150502   7.609   6.164   3.379 -0.4148 -0.1604  0.2124
16563SOL    HW250503   7.758   6.141   3.369 -0.4190  0.1421 -0.5134
16564SOL     OW50504   7.625   1.943   3.087  0.2236 -0.1597 -0.7040
16564SOL    HW150505   7.683   1.982   3.152 -0.4957  0.5882 -0.5012
16564SOL    HW250506   7.543   1.993   3.095 -1.8821 -3.7205  1.8049
16565SOL     OW50507   0.495   5.257   5.859  0.4419  0.1664 -0.0026
16565SOL    HW150508   0.574   5.204   5.852  0.0957 -0.1811 -1.4488
16565SOL    HW250509   0.423   5.195   5.849  0.0383  0.8627 -1.5841
16566SOL     OW50510   5.735   3.441   2.916  0.1069 -0.4365 -0.2044
16566SOL    HW150511   5.755   3.533   2.932  0.4604 -0.3171 -1.3246
16566SOL    HW250512   5.775   3.395   2.989 -1.1892  0.4055  1.0849
16567SOL     OW50513   5.963   6.998   7.232  0.6157 -0.7634 -0.4421
16567SOL    HW150514   5.939   6.941   7.306 -0.7945  0.5303  0.1190
16567SOL    HW250515   6.001   6.938   7.167  1.0787 -2.0323  0.9802
16568SOL     OW50516   7.938   3.763   7.990  0.1653  0.5874  0.0627
16568SOL    HW150517   7.980   3.812   7.920 -1.2121  0.3457 -0.9683
16568SOL    HW250518   7.927   3.675   7.955 -0.8769  0.5592  0.4200
16569SOL     OW50519   3.056   0.995   6.648 -0.1039  0.7300  0.2710
16569SOL    HW150520   3.095   0.979   6.733  0.4415  1.7646  0.2198
16569SOL    HW250521   3.091   0.925   6.592 -0.3665  0.1268  0.8571
16570SOL     OW50522   0.210   3.234   0.009 -0.1977 -0.0130 -0.1356
16570SOL    HW150523   0.270   3.306   0.027 -0.6623  0.3379  0.0458
16570SOL    HW250524   0.175   3.211   0.095  0.0865 -0.5757 -0.1716
16571SOL     OW50525   3.254   6.624   6.406  0.0199 -0.1328  0.1537
16571SOL    HW150526   3.318   6.557   6.431  0.6731  0.6319  0.5905
16571SOL    HW250527   3.207   6.586   6.332 -1.5487 -2.2119  2.1693
16572SOL     OW50528   7.410   4.773   6.736 -0.1739 -0.0375 -0.1754
16572SOL    HW150529   7.399   4.720   6.657  0.9472  0.2047 -0.5008
16572SOL    HW250530   7.502   4.760   6.760 -0.4036  0.2308  0.8447
16573SOL     OW50531   7.052   0.843   1.918  0.3782  0.0649  0.1808
16573SOL    HW150532   7.104   0.842   1.838  0.1176  0.6846  0.0061
16573SOL    HW250533   7.116   0.841   1.989  0.6180 -0.0514 -0.0400
16574SOL     OW50534   5.641   5.838   3.371  0.0607  0.2439 -0.4298
16574SOL    HW150535   5.601   5.753   3.354 -0.4922  0.1574  1.2293
16574SOL    HW250536   5.674   5.832   3.460 -0.1900  1.8448 -0.2079
16575SOL     OW50537   5.638   3.528   6.451  0.4910 -0.2402  0.0772
16575SOL    HW150538   5.545   3.513   6.464  0.0444  1.0002 -1.4776
16575SOL    HW250539   5.672   3.549   6.537 -1.2186  2.1291  0.2051
16576SOL     OW50540   5.507   7.015   5.625  0.0415  0.4459 -0.0107
16576SOL    HW150541   5.502   6.959   5.703 -1.6571 -1.1675 -1.2320
16576SOL    HW250542   5.594   7.055   5.629  0.4499 -0.5900  2.0399
16577SOL     OW50543   5.361   0.015   1.506  0.5267  0.1793  0.7390
16577SOL    HW150544   5.394   0.099   1.539  0.9181  0.4608 -0.3274
16577SOL    HW250545   5.428  -0.048   1.530  1.6266  0.6668 -0.9826
16578SOL     OW50546   0.591   4.026   2.883 -0.1922 -0.9039 -0.2079
16578SOL    HW150547   0.510   4.027   2.934  0.7819  1.5548  1.4294
16578SOL    HW250548   0.596   3.938   2.846 -2.2626 -1.9209  1.8194
16579SOL     OW50549   2.798   1.676   6.571 -0.0846  0.0257  0.2451
16579SOL    HW150550   2.845   1.753   6.603 -1.6225  0.7561  0.8139
16579SOL    HW250551   2.861   1.604   6.578  1.2151  1.1418  0.1543
16580SOL     OW50552   3.855   1.920   6.662  0.0300  0.4215  0.1319
16580SOL    HW150553   3.838   2.008   6.695 -0.8154  0.1704  0.3729
16580SOL    HW250554   3.821   1.862   6.730 -0.6917 -0.0952 -0.6626
16581SOL     OW50555   7.064   2.769   0.396 -0.6169  0.0431  0.4490
16581SOL    HW150556   7.065   2.865   0.396 -1.2130  0.0481 -0.2487
16581SOL    HW250557   7.150   2.744   0.362 -0.5054  0.3312  0.5183
16582SOL     OW50558   3.569   6.674   5.134  0.9094 -0.0128  0.4789
16582SOL    HW150559   3.645   6.729   5.113 -0.7266  2.0691 -0.1737
16582SOL    HW250560   3.494   6.726   5.106 -0.7340 -2.3589  0.4387
16583SOL     OW50561   7.240   1.985   1.205 -0.4669  0.3165 -0.6311
16583SOL    HW150562   7.329   2.001   1.172 -0.8991  1.5554 -1.2284
16583SOL    HW250563   7.254   1.949   1.293  0.6339  0.3573 -0.7767
16584SOL     OW50564   0.055   7.644   0.254  0.3213 -0.0861 -0.5522
16584SOL    HW150565  -0.011   7.574   0.258  0.4235 -0.1455  0.2472
16584SOL    HW250566   0.096   7.643   0.341 -0.1527  1.4315 -0.2914
16585SOL     OW50567   0.260   7.347   0.084 -0.6151 -0.5655 -0.1010
16585SOL    HW150568   0.198   7.285   0.123 -0.6464 -0.5005 -0.0469
16585SOL    HW250569   0.318   7.292   0.032 -0.9465 -0.5846 -0.4526
16586SOL     OW50570   4.058   4.401   6.857  0.5126 -0.6570  0.0559
16586SOL    HW150571   4.033   4.353   6.936  3.6013 -2.5780 -0.0603
16586SOL    HW250572   4.009   4.359   6.787  1.1043 -1.8645  0.3521
16587SOL     OW50573   4.577   3.765   4.252 -0.3998 -0.1486 -0.0306
16587SOL    HW150574   4.489   3.737   4.229  0.0894 -0.6034 -1.4093
16587SOL    HW250575   4.633   3.691   4.227  0.5060  0.6388 -0.3666
16588SOL     OW50576   0.733   7.478   0.786 -0.2525  0.3529 -0.8274
16588SOL    HW150577   0.824   7.453   0.772 -0.5136 -0.4744 -1.0997
16588SOL    HW250578   0.737   7.562   0.832  0.6610 -0.1119 -0.0349
16589SOL     OW50579   1.652   0.250   1.809 -0.1400 -0.3713 -0.0581
16589SOL    HW150580   1.718   0.222   1.873  1.1837  0.1981 -1.1322
16589SOL    HW250581   1.569   0.243   1.855  0.7261 -0.6002  1.5110
16590SOL     OW50582   7.024   3.207   7.950 -0.0681  0.0904 -0.3695
16590SOL    HW150583   7.027   3.115   7.974 -0.2775  0.2557  0.2967
16590SOL    HW250584   6.939   3.238   7.981 -0.0221  0.4913 -0.6363
16591SOL     OW50585   4.478   2.364   4.272 -0.2722  0.5647  0.4961
16591SOL    HW150586   4.394   2.380   4.314 -0.3909 -0.2705  0.5896
16591SOL    HW250587   4.490   2.269   4.278 -0.3064  0.4195 -1.3717
16592SOL     OW50588   0.740   5.727   7.394  0.9426 -0.8482  0.3710
16592SOL    HW150589   0.676   5.758   7.330  0.9552  0.0874  0.8058
16592SOL    HW250590   0.694   5.660   7.443  0.4326 -0.4880  0.3933
16593SOL     OW50591   6.570   4.848   2.636  0.1155 -0.4142 -0.0145
16593SOL    HW150592   6.479   4.822   2.648 -0.3527  1.2619  0.1852
16593SOL    HW250593   6.567   4.919   2.572  1.3373 -0.6561 -0.3613
16594SOL     OW50594   5.980   2.209   6.968 -0.3342  0.1802 -0.3822
16594SOL    HW150595   5.970   2.116   6.948  2.3362  0.6052 -4.4203
16594SOL    HW250596   5.963   2.253   6.884  0.0765  3.2059  1.0616
16595SOL     OW50597   0.118   4.119   1.599  0.0141 -0.2964  0.0090
16595SOL    HW150598   0.053   4.177   1.637  1.7848  1.5340  0.2928
16595SOL    HW250599   0.198   4.135   1.649  1.0280 -1.5600 -1.1587
16596SOL     OW50600   5.019   6.230   3.212  0.2067  0.2391 -0.0317
16596SOL    HW150601   4.973   6.146   3.209  0.9390 -0.1245 -1.6556
16596SOL    HW250602   5.111   6.207   3.221  0.4684  0.8421 -1.0396
16597SOL     OW50603   2.139   6.646   2.715  0.5415 -0.1416  0.0993
16597SOL    HW150604   2.235   6.646   2.714  0.5680  0.8674  1.3716
16597SOL    HW250605   2.115   6.645   2.622  1.7632 -1.5711 -0.2253
16598SOL     OW50606   1.260   0.918   3.362 -0.4139 -0.0609 -0.6132
16598SOL    HW150607   1.329   0.857   3.338  0.3422  0.3520  0.4508
16598SOL    HW250608   1.296   0.968   3.436 -2.2130 -0.5089  0.6100
16599SOL     OW50609   3.383   6.904   2.449 -0.5190  0.0542  0.2545
16599SOL    HW150610   3.294   6.878   2.470 -0.4638 -0.7018 -0.3957
16599SOL    HW250611   3.420   6.829   2.403 -0.3302  1.2489 -1.6203
16600SOL     OW50612   1.963   0.250   1.276 -0.0432  0.1974 -0.0853
16600SOL    HW150613   1.939   0.334   1.316 -2.0312  0.7630 -2.3773
16600SOL    HW250614   1.898   0.236   1.208  3.0948 -0.8678 -2.9945
16601SOL     OW50615   7.294   1.966   4.397 -0.3179  0.5934  0.0098
16601SOL    HW150616   7.227   1.966   4.329 -0.0067  1.6858 -0.3026
16601SOL    HW250617   7.325   1.875   4.400  0.6012  0.7858 -2.2444
16602SOL     OW50618   0.846   2.644   2.783 -0.0744  0.2571 -0.1749
16602SOL    HW150619   0.918   2.588   2.755  0.7908 -0.6103  3.4381
16602SOL    HW250620   0.773   2.583   2.797 -0.5775  0.7050 -0.8473
16603SOL     OW50621   2.411   6.366   6.021 -0.0576 -0.0753 -0.1697
16603SOL    HW150622   2.329   6.368   6.070  0.7182 -0.8810  1.1978
16603SOL    HW250623   2.479   6.356   6.088  1.0374 -1.0200 -1.3946
16604SOL     OW50624   5.022   5.592   1.197 -0.6680  0.5789  0.2478
16604SOL    HW150625   4.978   5.508   1.211  1.0498 -0.3888 -0.0171
16604SOL    HW250626   4.992   5.620   1.110 -0.4036 -0.2963 -0.1349
16605SOL     OW50627   2.980   7.297   5.608 -0.0037  0.0289 -0.2078
16605SOL    HW150628   2.985   7.211   5.651  2.9951 -1.1326 -2.6505
16605SOL    HW250629   2.913   7.286   5.541 -0.1099 -0.1855 -0.0685
16606SOL     OW50630   4.397   0.970   4.286 -0.4931 -0.7974 -0.5776
16606SOL    HW150631   4.346   1.046   4.314 -0.7457 -0.9206 -0.7004
16606SOL    HW250632   4.452   1.002   4.215  0.2720 -0.4403  0.1683
16607SOL     OW50633   0.770   2.838   3.261  0.5425  0.3068 -0.2671
16607SOL    HW150634   0.848   2.783   3.268 -0.6727 -1.4759 -0.1201
16607SOL    HW250635   0.768   2.866   3.170  1.2225  0.1526 -0.3268
16608SOL     OW50636   5.070   6.559   6.130  0.5667  0.0827  0.4716
16608SOL    HW150637   5.034   6.553   6.218 -1.0971 -0.0778 -0.1777
16608SOL    HW250638   5.005   6.611   6.081  1.1228 -0.3912 -0.8083
16609SOL     OW50639   5.790   5.895   0.532 -0.7181 -0.1056 -0.0610
16609SOL    HW150640   5.753   5.868   0.616 -0.1523 -0.7828 -0.0183
16609SOL    HW250641   5.780   5.818   0.476 -0.0564 -0.0443 -0.2661
16610SOL     OW50642   2.517   3.535   1.049  0.4313  0.1163  0.7504
16610SOL    HW150643   2.521   3.440   1.060 -2.2305 -0.0097  0.8338
16610SOL    HW250644   2.478   3.548   0.963  0.3681  1.1447  0.9252
16611SOL     OW50645   2.487   4.040   7.844  0.4121  0.1940 -0.4771
16611SOL    HW150646   2.579   4.026   7.867  0.8841  1.8542 -1.2628
16611SOL    HW250647   2.463   3.963   7.792  0.5294 -1.5882  2.0362
16612SOL     OW50648   7.139   3.721   7.539  0.2072  0.0608  0.3521
16612SOL    HW150649   7.217   3.690   7.493  0.0075 -2.2546  1.4870
16612SOL    HW250650   7.067   3.668   7.503 -0.0620 -1.2732  2.7096
16613SOL     OW50651   6.844   1.983   3.440 -0.7958 -0.3141  0.4657
16613SOL    HW150652   6.847   2.019   3.529 -1.4677 -2.3740  1.3590
16613SOL    HW250653   6.928   1.937   3.431 -2.5764 -4.0208  1.8046
16614NA      NA50654   7.653   2.478   1.043  0.3132  0.1453  0.1171
16615NA      NA50655   6.982   7.088   0.278  0.0364 -0.1170 -0.3687
16616NA      NA50656   3.431   3.952   0.819  0.1975  0.0856 -0.2812
16617NA      NA50657   3.733   0.903   3.304  0.1523  0.0997  0.3273
16618NA      NA50658   7.193   4.848   6.653 -0.6479 -0.3435 -0.1718
16619NA      NA50659   7.305   1.790   2.231  0.1326  0.2796 -0.0458
16620NA      NA50660   6.706   7.799   1.630 -0.1444 -0.2998 -0.2341
16621NA      NA50661   0.358   0.799   3.415  0.5179 -0.3319 -0.3923
16622NA      NA50662   4.642   2.185   5.900 -0.4110 -0.1892 -0.0924
16623NA      NA50663   3.545   3.327   0.945 -0.2185 -0.4353 -0.4646
16624NA      NA50664   4.151   3.470   7.177  0.1352 -0.3681  0.3880
16625NA      NA50665   5.351   6.918   6.980  0.3249 -0.1128 -0.3010
16626NA      NA50666   6.428   6.512   3.482  0.2768  0.1164  0.3686
16627NA      NA50667   1.219   6.113   4.732  0.1917  0.1657 -0.1700
16628NA      NA50668   7.685   5.899   3.482 -0.4394  0.3237  0.4057
16629NA      NA50669   1.677   1.489   3.263  0.0879 -0.5051 -0.2393
16630NA      NA50670   6.847   2.614   6.783  0.0536  0.5082  0.2148
16631NA      NA50671   5.313   3.049   0.746  0.4238  0.0320  0.1707
16632NA      NA50672   7.924   5.330   7.524 -0.2018 -0.1872  0.2782
16633NA      NA50673   6.271   4.426   0.468  0.4535  0.2826  0.1373
16634NA      NA50674   0.220   2.337   5.847 -0.3033 -0.2384 -0.2028
16635NA      NA50675   5.296   4.529   3.934 -0.5365 -0.8152  0.1317
16636NA      NA50676   1.473   5.674   4.475  0.4433  0.6033  0.2517
16637NA      NA50677   4.054   7.480   3.034 -0.4598  0.1015  0.3404
16638NA      NA50678   7.058   1.749   0.568  0.3472 -0.0277 -0.2185
16639NA      NA50679   2.598   7.279   1.675  0.1997 -0.1491 -0.0861
16640NA      NA50680   1.090   5.939   6.877 -0.1903  0.2845 -0.0617
16641NA      NA50681   3.512   2.283   5.352 -0.2802 -0.1941 -0.1306
16642NA      NA50682   6.372   4.348   1.418 -0.8045  0.2610 -0.0151
16643NA      NA50683   4.464   1.735   7.997  0.1071 -0.0327 -0.3599
16644NA      NA50684   6.232   7.539   3.806  0.1204 -0.4328 -0.0802
16645NA      NA50685   1.627   7.461   3.212  0.1935 -0.6138 -0.4974
16646NA      NA50686   0.437   7.551   3.739  0.1589  0.0088  0.4416
16647NA      NA50687   3.764   3.216   6.697 -0.5675 -0.0794  0.0735
16648NA      NA50688   2.156   5.015   7.125  0.4302 -0.0796 -0.0015
16649NA      NA50689   5.894   1.412   4.654  0.8739  0.2703 -0.2619
16650NA      NA50690   0.478   4.524   4.406  0.0342  0.1313 -0.1623
16651NA      NA50691   5.567   0.671   7.462 -0.1939 -0.0899 -0.5872
16652NA      NA50692   6.433   0.575   7.529  0.0906 -0.1406  0.2008
16653NA      NA50693   1.946   4.792   4.034 -0.0283  0.0456 -0.0593
16654NA      NA50694   3.824   5.382   1.071 -0.2019  0.2824 -0.3866
16655NA      NA50695   1.715   6.295   5.917 -0.1712  0.0139 -0.1215
16656NA      NA50696   4.925   7.291   4.239 -0.0747 -0.3759 -0.5313
16657NA      NA50697   7.020   1.382   1.334  0.1558  0.1998 -0.0084
16658NA      NA50698   2.722   3.717   6.757 -0.1271  0.0807 -0.0300
16659NA      NA50699   1.392   4.125   4.235 -0.0941 -0.1461  0.2515
16660NA      NA50700   7.053   7.119   4.230  0.1164 -0.3432 -0.0639
16661CL      CL50701   4.927   1.202   4.993 -0.0329 -0.2563  0.3387
16662CL      CL50702   0.678   3.244   1.293 -0.3895  0.0368  0.3078
16663CL      CL50703   3.993   3.680   4.030 -0.2838 -0.4899 -0.2118
16664CL      CL50704   3.498   3.553   1.019  0.2747  0.0588  0.0193
16665CL      CL50705   4.674   2.596   6.181  0.6869  0.1449  0.1297
16666CL      CL50706   7.481   0.473   4.568  0.1810 -0.3090  0.1588
16667CL      CL50707   2.372   5.450   5.780  0.1318 -0.3840 -0.1579
16668CL      CL50708   3.015   2.806   1.223  0.0932  0.3282 -0.5601
16669CL      CL50709   6.096   7.439   0.122  0.5287  0.1124 -0.0580
16670CL      CL50710   1.138   6.434   4.341 -0.2886 -0.2557 -0.2026
16671CL      CL50711   0.870   5.316   4.584  0.0570 -0.2478 -0.1618
16672CL      CL50712   5.655   3.455   7.252 -0.1194  0.0490  0.0778
16673CL      CL50713   0.109   7.088   0.215 -0.1134 -0.1495 -0.2260
16674CL      CL50714   6.719   7.951   1.258  0.2231  0.0203 -0.2769
16675CL      CL50715   7.527   2.384   1.838 -0.2890 -0.1187 -0.3828
16676CL      CL50716   4.832   7.762   1.855  0.3049 -0.2220  0.0009
16677CL      CL50717   3.082   1.130   3.019  0.3296  0.1710  0.0481
16678CL      CL50718   7.778   0.139   1.003 -0.0617 -0.0068 -0.0501
16679CL      CL50719   0.868   6.799   4.936 -0.1527  0.1194 -0.1347
16680CL      CL50720   4.214   4.747   2.180 -0.5640 -0.5979 -0.3215
16681CL      CL50721   5.848   0.443   1.924 -0.3299 -0.0232  0.6261
16682CL      CL50722   6.208   6.687   4.299  0.3468 -0.0308 -0.2825
16683CL      CL50723   4.006   3.784   7.475 -0.2779 -0.0549  0.2963
16684CL      CL50724   4.126   3.794   2.791 -0.3452  0.1867  0.3065
16685CL      CL50725   7.139   5.742   1.853  0.0235  0.0231  0.2673
16686CL      CL50726   1.674   6.581   4.711 -0.1168 -0.0884 -0.0843
16687CL      CL50727   0.477   4.883   4.746 -0.2045  0.2161 -0.0437
16688CL      CL50728   0.918   4.315   5.934  0.1401 -0.0607  0.2159
16689CL      CL50729   6.158   0.763   6.071 -0.0578 -0.1967  0.2747
16690CL      CL50730   5.176   6.788   7.125 -0.0729 -0.3251 -0.2024
16691CL      CL50731   0.127   5.487   3.420 -0.0772  0.0119  0.0986
16692CL      CL50732   6.527   2.868   3.351  0.1348 -0.1527  0.1321
16693CL      CL50733   6.064   7.614   5.343  0.4187  0.1688  0.3945
16694CL      CL50734   2.473   6.932   0.748 -0.4108  0.3523  0.2297
16695CL      CL50735   0.242   2.449   7.465 -0.1819 -0.1208  0.2335
16696CL      CL50736   3.080   3.575   7.779  0.0484 -0.2626  0.0585
16697CL      CL50737   1.771   7.628   6.402 -0.0216 -0.4098 -0.4491
16698CL      CL50738   7.539   2.357   7.078  0.4409  0.2698  0.4161
16699CL      CL50739   7.619   5.921   3.717 -0.4309 -0.2137 -0.1049
16700CL      CL50740   3.356   0.723   1.432 -0.3076  0.0396  0.0234
16701CL      CL50741   0.138   6.908   4.071 -0.5286 -0.1649 -0.0666
16702CL      CL50742   6.320   2.506   7.545  0.0276  0.1782 -0.0085
16703CL      CL50743   5.910   3.115   1.153  0.0901 -0.4352 -0.3373
16704CL      CL50744   0.179   4.210   7.866 -0.1898 -0.1719 -0.0843
16705CL      CL50745   3.921   0.973   3.183  0.2888  0.1439  0.0352
16706CL      CL50746   3.307   6.432   2.559  0.1321 -0.5005  0.2533
16707CL      CL50747   4.261   2.765   7.129 -0.0393  0.4000  0.0864
   7.99855   7.99855   7.99855
