;
;   File g3.5ocore_petim.itp  was generated
;   By user: sairam (1000)
;   On host: sairam
;   At date: Sun. August  0 00:36:51 2023
;
;   This is a standalone topology file
;
;   Created by:
;   ParmEd:       amb2gro_top_gro.py, VERSION 3.4.1
;   Executable:   amb2gro_top_gro.py
;   Library dir:  /usr/local/gromacs/share/gromacs/top
;   Command line:
;     ./amb2gro_top_gro.py -p g3.5ocore_petim.prmtop -c g3.5ocore_petim.inpcrd -t g3.5ocore_petim.itp -g g3.5ocore_petim.gro -b g3.5ocore_petim.pdb
;

;[ defaults ]
;; nbfunc        comb-rule       gen-pairs       fudgeLJ fudgeQQ
;1               2               yes             0.5          0.83333333  
;
;[ atomtypes ]
;; name    at.num    mass    charge ptype  sigma      epsilon
;os             8  16.000000  0.00000000  A     0.30000123        0.71128
;c3             6  12.010000  0.00000000  A     0.33996695      0.4577296
;h1             1   1.008000  0.00000000  A      0.2471353      0.0656888
;hc             1   1.008000  0.00000000  A     0.26495328      0.0656888
;n3             7  14.010000  0.00000000  A     0.32499985        0.71128
;c              6  12.010000  0.00000000  A     0.33996695       0.359824
;o              8  16.000000  0.00000000  A     0.29599219        0.87864
;

[ moleculetype ]
; Name            nrexcl
g3.5ocore_petim          3

[ atoms ]
;   nr       type  resnr residue  atom   cgnr    charge       mass  typeB    chargeB      massB
; residue    1 aaa rtp aaa q -0.0
    1         os      1    aaa     O1      1 -0.43807400  16.000000   ; qtot -0.438074
    2         c3      1    aaa     C1      2 0.04509800  12.010000   ; qtot -0.392976
    3         h1      1    aaa     H1      3 0.04771700   1.008000   ; qtot -0.345259
    4         h1      1    aaa     H2      4 0.04771700   1.008000   ; qtot -0.297542
    5         c3      1    aaa     C2      5 0.04509800  12.010000   ; qtot -0.252444
    6         h1      1    aaa     H3      6 0.04771700   1.008000   ; qtot -0.204727
    7         h1      1    aaa     H4      7 0.04771700   1.008000   ; qtot -0.157010
    8         c3      1    aaa     C3      8 0.05658600  12.010000   ; qtot -0.100424
    9         hc      1    aaa     H5      9 0.04933800   1.008000   ; qtot -0.051086
   10         hc      1    aaa     H6     10 0.04933800   1.008000   ; qtot -0.001748
   11         c3      1    aaa     C4     11 0.05658600  12.010000   ; qtot 0.054838
   12         hc      1    aaa     H7     12 0.04933800   1.008000   ; qtot 0.104176
   13         hc      1    aaa     H8     13 0.04933800   1.008000   ; qtot 0.153514
   14         c3      1    aaa     C5     14 0.00989700  12.010000   ; qtot 0.163411
   15         h1      1    aaa     H9     15 0.04845500   1.008000   ; qtot 0.211866
   16         h1      1    aaa    H10     16 0.04845500   1.008000   ; qtot 0.260321
   17         c3      1    aaa     C6     17 0.00989700  12.010000   ; qtot 0.270218
   18         h1      1    aaa    H11     18 0.04845500   1.008000   ; qtot 0.318673
   19         h1      1    aaa    H12     19 0.04845500   1.008000   ; qtot 0.367128
   20         n3      1    aaa     N1     20 -0.59936800  14.010000   ; qtot -0.232240
   21         n3      1    aaa     N2     21 -0.59936800  14.010000   ; qtot -0.831608
   22         c3      1    aaa     C7     22 0.08030200  12.010000   ; qtot -0.751306
   23         h1      1    aaa    H13     23 0.05071600   1.008000   ; qtot -0.700590
   24         h1      1    aaa    H14     24 0.05071600   1.008000   ; qtot -0.649874
   25         c3      1    aaa     C8     25 0.08030200  12.010000   ; qtot -0.569572
   26         h1      1    aaa    H15     26 0.05071600   1.008000   ; qtot -0.518856
   27         h1      1    aaa    H16     27 0.05071600   1.008000   ; qtot -0.468140
   28         c3      1    aaa     C9     28 0.08030200  12.010000   ; qtot -0.387838
   29         h1      1    aaa    H17     29 0.05071600   1.008000   ; qtot -0.337122
   30         h1      1    aaa    H18     30 0.05071600   1.008000   ; qtot -0.286406
   31         c3      1    aaa    C10     31 0.08030200  12.010000   ; qtot -0.206104
   32         h1      1    aaa    H19     32 0.05071600   1.008000   ; qtot -0.155388
   33         h1      1    aaa    H20     33 0.05071600   1.008000   ; qtot -0.104672
   34         c3      1    aaa    C11     34 0.10287800  12.010000   ; qtot -0.001794
   35         hc      1    aaa    H21     35 0.06787400   1.008000   ; qtot 0.066080
   36         hc      1    aaa    H22     36 0.06787400   1.008000   ; qtot 0.133954
   37         c3      1    aaa    C12     37 0.10287800  12.010000   ; qtot 0.236832
   38         hc      1    aaa    H23     38 0.06787400   1.008000   ; qtot 0.304706
   39         hc      1    aaa    H24     39 0.06787400   1.008000   ; qtot 0.372580
   40         c3      1    aaa    C13     40 0.10287800  12.010000   ; qtot 0.475458
   41         hc      1    aaa    H25     41 0.06787400   1.008000   ; qtot 0.543332
   42         hc      1    aaa    H26     42 0.06787400   1.008000   ; qtot 0.611206
   43         c3      1    aaa    C14     43 0.10287800  12.010000   ; qtot 0.714084
   44         hc      1    aaa    H27     44 0.06787400   1.008000   ; qtot 0.781958
   45         hc      1    aaa    H28     45 0.06787400   1.008000   ; qtot 0.849832
   46         c3      1    aaa    C15     46 -0.72585200  12.010000   ; qtot 0.123980
   47         h1      1    aaa    H29     47 0.25669700   1.008000   ; qtot 0.380677
   48         h1      1    aaa    H30     48 0.25669700   1.008000   ; qtot 0.637374
   49         c3      1    aaa    C16     49 -0.72585200  12.010000   ; qtot -0.088478
   50         h1      1    aaa    H31     50 0.25669700   1.008000   ; qtot 0.168219
   51         h1      1    aaa    H32     51 0.25669700   1.008000   ; qtot 0.424916
   52         c3      1    aaa    C17     52 -0.72585200  12.010000   ; qtot -0.300936
   53         h1      1    aaa    H33     53 0.25669700   1.008000   ; qtot -0.044239
   54         h1      1    aaa    H34     54 0.25669700   1.008000   ; qtot 0.212458
   55         c3      1    aaa    C18     55 -0.72585200  12.010000   ; qtot -0.513394
   56         h1      1    aaa    H35     56 0.25669700   1.008000   ; qtot -0.256697
   57         h1      1    aaa    H36     57 0.25669700   1.008000   ; qtot -0.000000
; residue    2 bbb rtp bbb q -0.0
   58         n3      2    bbb     N1     58 -0.59685800  14.010000   ; qtot -0.596858
   59         c3      2    bbb     C1     59 0.10137000  12.010000   ; qtot -0.495488
   60         h1      2    bbb     H1     60 0.04411300   1.008000   ; qtot -0.451375
   61         h1      2    bbb     H2     61 0.04411300   1.008000   ; qtot -0.407262
   62         c3      2    bbb     C2     62 0.10137000  12.010000   ; qtot -0.305892
   63         h1      2    bbb     H3     63 0.04411300   1.008000   ; qtot -0.261779
   64         h1      2    bbb     H4     64 0.04411300   1.008000   ; qtot -0.217666
   65         c3      2    bbb     C3     65 -0.00195300  12.010000   ; qtot -0.219619
   66         h1      2    bbb     H5     66 0.05064400   1.008000   ; qtot -0.168975
   67         h1      2    bbb     H6     67 0.05064400   1.008000   ; qtot -0.118331
   68         c3      2    bbb     C4     68 -0.01612100  12.010000   ; qtot -0.134452
   69         hc      2    bbb     H7     69 0.04936100   1.008000   ; qtot -0.085091
   70         hc      2    bbb     H8     70 0.04936100   1.008000   ; qtot -0.035730
   71         c3      2    bbb     C5     71 0.11363000  12.010000   ; qtot 0.077900
   72         hc      2    bbb     H9     72 0.06265900   1.008000   ; qtot 0.140559
   73         hc      2    bbb    H10     73 0.06265900   1.008000   ; qtot 0.203218
   74         c3      2    bbb     C6     74 0.11363000  12.010000   ; qtot 0.316848
   75         hc      2    bbb    H11     75 0.06265900   1.008000   ; qtot 0.379507
   76         hc      2    bbb    H12     76 0.06265900   1.008000   ; qtot 0.442166
   77         c3      2    bbb     C7     77 0.05858200  12.010000   ; qtot 0.500748
   78         h1      2    bbb    H13     78 0.06123400   1.008000   ; qtot 0.561982
   79         h1      2    bbb    H14     79 0.06123400   1.008000   ; qtot 0.623216
   80         c3      2    bbb     C8     80 -0.72423400  12.010000   ; qtot -0.101018
   81         h1      2    bbb    H15     81 0.25637600   1.008000   ; qtot 0.155358
   82         h1      2    bbb    H16     82 0.25637600   1.008000   ; qtot 0.411734
   83         c3      2    bbb     C9     83 -0.72423400  12.010000   ; qtot -0.312500
   84         h1      2    bbb    H17     84 0.25637600   1.008000   ; qtot -0.056124
   85         h1      2    bbb    H18     85 0.25637600   1.008000   ; qtot 0.200252
   86         os      2    bbb     O1     86 -0.20025300  16.000000   ; qtot -0.000001
; residue    3 bbb rtp bbb q -0.0
   87         n3      3    bbb     N1     87 -0.59685800  14.010000   ; qtot -0.596859
   88         c3      3    bbb     C1     88 0.10137000  12.010000   ; qtot -0.495489
   89         h1      3    bbb     H1     89 0.04411300   1.008000   ; qtot -0.451376
   90         h1      3    bbb     H2     90 0.04411300   1.008000   ; qtot -0.407263
   91         c3      3    bbb     C2     91 0.10137000  12.010000   ; qtot -0.305893
   92         h1      3    bbb     H3     92 0.04411300   1.008000   ; qtot -0.261780
   93         h1      3    bbb     H4     93 0.04411300   1.008000   ; qtot -0.217667
   94         c3      3    bbb     C3     94 -0.00195300  12.010000   ; qtot -0.219620
   95         h1      3    bbb     H5     95 0.05064400   1.008000   ; qtot -0.168976
   96         h1      3    bbb     H6     96 0.05064400   1.008000   ; qtot -0.118332
   97         c3      3    bbb     C4     97 -0.01612100  12.010000   ; qtot -0.134453
   98         hc      3    bbb     H7     98 0.04936100   1.008000   ; qtot -0.085092
   99         hc      3    bbb     H8     99 0.04936100   1.008000   ; qtot -0.035731
  100         c3      3    bbb     C5    100 0.11363000  12.010000   ; qtot 0.077899
  101         hc      3    bbb     H9    101 0.06265900   1.008000   ; qtot 0.140558
  102         hc      3    bbb    H10    102 0.06265900   1.008000   ; qtot 0.203217
  103         c3      3    bbb     C6    103 0.11363000  12.010000   ; qtot 0.316847
  104         hc      3    bbb    H11    104 0.06265900   1.008000   ; qtot 0.379506
  105         hc      3    bbb    H12    105 0.06265900   1.008000   ; qtot 0.442165
  106         c3      3    bbb     C7    106 0.05858200  12.010000   ; qtot 0.500747
  107         h1      3    bbb    H13    107 0.06123400   1.008000   ; qtot 0.561981
  108         h1      3    bbb    H14    108 0.06123400   1.008000   ; qtot 0.623215
  109         c3      3    bbb     C8    109 -0.72423400  12.010000   ; qtot -0.101019
  110         h1      3    bbb    H15    110 0.25637600   1.008000   ; qtot 0.155357
  111         h1      3    bbb    H16    111 0.25637600   1.008000   ; qtot 0.411733
  112         c3      3    bbb     C9    112 -0.72423400  12.010000   ; qtot -0.312501
  113         h1      3    bbb    H17    113 0.25637600   1.008000   ; qtot -0.056125
  114         h1      3    bbb    H18    114 0.25637600   1.008000   ; qtot 0.200251
  115         os      3    bbb     O1    115 -0.20025300  16.000000   ; qtot -0.000002
; residue    4 bbb rtp bbb q -0.0
  116         n3      4    bbb     N1    116 -0.59685800  14.010000   ; qtot -0.596860
  117         c3      4    bbb     C1    117 0.10137000  12.010000   ; qtot -0.495490
  118         h1      4    bbb     H1    118 0.04411300   1.008000   ; qtot -0.451377
  119         h1      4    bbb     H2    119 0.04411300   1.008000   ; qtot -0.407264
  120         c3      4    bbb     C2    120 0.10137000  12.010000   ; qtot -0.305894
  121         h1      4    bbb     H3    121 0.04411300   1.008000   ; qtot -0.261781
  122         h1      4    bbb     H4    122 0.04411300   1.008000   ; qtot -0.217668
  123         c3      4    bbb     C3    123 -0.00195300  12.010000   ; qtot -0.219621
  124         h1      4    bbb     H5    124 0.05064400   1.008000   ; qtot -0.168977
  125         h1      4    bbb     H6    125 0.05064400   1.008000   ; qtot -0.118333
  126         c3      4    bbb     C4    126 -0.01612100  12.010000   ; qtot -0.134454
  127         hc      4    bbb     H7    127 0.04936100   1.008000   ; qtot -0.085093
  128         hc      4    bbb     H8    128 0.04936100   1.008000   ; qtot -0.035732
  129         c3      4    bbb     C5    129 0.11363000  12.010000   ; qtot 0.077898
  130         hc      4    bbb     H9    130 0.06265900   1.008000   ; qtot 0.140557
  131         hc      4    bbb    H10    131 0.06265900   1.008000   ; qtot 0.203216
  132         c3      4    bbb     C6    132 0.11363000  12.010000   ; qtot 0.316846
  133         hc      4    bbb    H11    133 0.06265900   1.008000   ; qtot 0.379505
  134         hc      4    bbb    H12    134 0.06265900   1.008000   ; qtot 0.442164
  135         c3      4    bbb     C7    135 0.05858200  12.010000   ; qtot 0.500746
  136         h1      4    bbb    H13    136 0.06123400   1.008000   ; qtot 0.561980
  137         h1      4    bbb    H14    137 0.06123400   1.008000   ; qtot 0.623214
  138         c3      4    bbb     C8    138 -0.72423400  12.010000   ; qtot -0.101020
  139         h1      4    bbb    H15    139 0.25637600   1.008000   ; qtot 0.155356
  140         h1      4    bbb    H16    140 0.25637600   1.008000   ; qtot 0.411732
  141         c3      4    bbb     C9    141 -0.72423400  12.010000   ; qtot -0.312502
  142         h1      4    bbb    H17    142 0.25637600   1.008000   ; qtot -0.056126
  143         h1      4    bbb    H18    143 0.25637600   1.008000   ; qtot 0.200250
  144         os      4    bbb     O1    144 -0.20025300  16.000000   ; qtot -0.000003
; residue    5 bbb rtp bbb q -0.0
  145         n3      5    bbb     N1    145 -0.59685800  14.010000   ; qtot -0.596861
  146         c3      5    bbb     C1    146 0.10137000  12.010000   ; qtot -0.495491
  147         h1      5    bbb     H1    147 0.04411300   1.008000   ; qtot -0.451378
  148         h1      5    bbb     H2    148 0.04411300   1.008000   ; qtot -0.407265
  149         c3      5    bbb     C2    149 0.10137000  12.010000   ; qtot -0.305895
  150         h1      5    bbb     H3    150 0.04411300   1.008000   ; qtot -0.261782
  151         h1      5    bbb     H4    151 0.04411300   1.008000   ; qtot -0.217669
  152         c3      5    bbb     C3    152 -0.00195300  12.010000   ; qtot -0.219622
  153         h1      5    bbb     H5    153 0.05064400   1.008000   ; qtot -0.168978
  154         h1      5    bbb     H6    154 0.05064400   1.008000   ; qtot -0.118334
  155         c3      5    bbb     C4    155 -0.01612100  12.010000   ; qtot -0.134455
  156         hc      5    bbb     H7    156 0.04936100   1.008000   ; qtot -0.085094
  157         hc      5    bbb     H8    157 0.04936100   1.008000   ; qtot -0.035733
  158         c3      5    bbb     C5    158 0.11363000  12.010000   ; qtot 0.077897
  159         hc      5    bbb     H9    159 0.06265900   1.008000   ; qtot 0.140556
  160         hc      5    bbb    H10    160 0.06265900   1.008000   ; qtot 0.203215
  161         c3      5    bbb     C6    161 0.11363000  12.010000   ; qtot 0.316845
  162         hc      5    bbb    H11    162 0.06265900   1.008000   ; qtot 0.379504
  163         hc      5    bbb    H12    163 0.06265900   1.008000   ; qtot 0.442163
  164         c3      5    bbb     C7    164 0.05858200  12.010000   ; qtot 0.500745
  165         h1      5    bbb    H13    165 0.06123400   1.008000   ; qtot 0.561979
  166         h1      5    bbb    H14    166 0.06123400   1.008000   ; qtot 0.623213
  167         c3      5    bbb     C8    167 -0.72423400  12.010000   ; qtot -0.101021
  168         h1      5    bbb    H15    168 0.25637600   1.008000   ; qtot 0.155355
  169         h1      5    bbb    H16    169 0.25637600   1.008000   ; qtot 0.411731
  170         c3      5    bbb     C9    170 -0.72423400  12.010000   ; qtot -0.312503
  171         h1      5    bbb    H17    171 0.25637600   1.008000   ; qtot -0.056127
  172         h1      5    bbb    H18    172 0.25637600   1.008000   ; qtot 0.200249
  173         os      5    bbb     O1    173 -0.20025300  16.000000   ; qtot -0.000004
; residue    6 bbb rtp bbb q -0.0
  174         n3      6    bbb     N1    174 -0.59685800  14.010000   ; qtot -0.596862
  175         c3      6    bbb     C1    175 0.10137000  12.010000   ; qtot -0.495492
  176         h1      6    bbb     H1    176 0.04411300   1.008000   ; qtot -0.451379
  177         h1      6    bbb     H2    177 0.04411300   1.008000   ; qtot -0.407266
  178         c3      6    bbb     C2    178 0.10137000  12.010000   ; qtot -0.305896
  179         h1      6    bbb     H3    179 0.04411300   1.008000   ; qtot -0.261783
  180         h1      6    bbb     H4    180 0.04411300   1.008000   ; qtot -0.217670
  181         c3      6    bbb     C3    181 -0.00195300  12.010000   ; qtot -0.219623
  182         h1      6    bbb     H5    182 0.05064400   1.008000   ; qtot -0.168979
  183         h1      6    bbb     H6    183 0.05064400   1.008000   ; qtot -0.118335
  184         c3      6    bbb     C4    184 -0.01612100  12.010000   ; qtot -0.134456
  185         hc      6    bbb     H7    185 0.04936100   1.008000   ; qtot -0.085095
  186         hc      6    bbb     H8    186 0.04936100   1.008000   ; qtot -0.035734
  187         c3      6    bbb     C5    187 0.11363000  12.010000   ; qtot 0.077896
  188         hc      6    bbb     H9    188 0.06265900   1.008000   ; qtot 0.140555
  189         hc      6    bbb    H10    189 0.06265900   1.008000   ; qtot 0.203214
  190         c3      6    bbb     C6    190 0.11363000  12.010000   ; qtot 0.316844
  191         hc      6    bbb    H11    191 0.06265900   1.008000   ; qtot 0.379503
  192         hc      6    bbb    H12    192 0.06265900   1.008000   ; qtot 0.442162
  193         c3      6    bbb     C7    193 0.05858200  12.010000   ; qtot 0.500744
  194         h1      6    bbb    H13    194 0.06123400   1.008000   ; qtot 0.561978
  195         h1      6    bbb    H14    195 0.06123400   1.008000   ; qtot 0.623212
  196         c3      6    bbb     C8    196 -0.72423400  12.010000   ; qtot -0.101022
  197         h1      6    bbb    H15    197 0.25637600   1.008000   ; qtot 0.155354
  198         h1      6    bbb    H16    198 0.25637600   1.008000   ; qtot 0.411730
  199         c3      6    bbb     C9    199 -0.72423400  12.010000   ; qtot -0.312504
  200         h1      6    bbb    H17    200 0.25637600   1.008000   ; qtot -0.056128
  201         h1      6    bbb    H18    201 0.25637600   1.008000   ; qtot 0.200248
  202         os      6    bbb     O1    202 -0.20025300  16.000000   ; qtot -0.000005
; residue    7 bbb rtp bbb q -0.0
  203         n3      7    bbb     N1    203 -0.59685800  14.010000   ; qtot -0.596863
  204         c3      7    bbb     C1    204 0.10137000  12.010000   ; qtot -0.495493
  205         h1      7    bbb     H1    205 0.04411300   1.008000   ; qtot -0.451380
  206         h1      7    bbb     H2    206 0.04411300   1.008000   ; qtot -0.407267
  207         c3      7    bbb     C2    207 0.10137000  12.010000   ; qtot -0.305897
  208         h1      7    bbb     H3    208 0.04411300   1.008000   ; qtot -0.261784
  209         h1      7    bbb     H4    209 0.04411300   1.008000   ; qtot -0.217671
  210         c3      7    bbb     C3    210 -0.00195300  12.010000   ; qtot -0.219624
  211         h1      7    bbb     H5    211 0.05064400   1.008000   ; qtot -0.168980
  212         h1      7    bbb     H6    212 0.05064400   1.008000   ; qtot -0.118336
  213         c3      7    bbb     C4    213 -0.01612100  12.010000   ; qtot -0.134457
  214         hc      7    bbb     H7    214 0.04936100   1.008000   ; qtot -0.085096
  215         hc      7    bbb     H8    215 0.04936100   1.008000   ; qtot -0.035735
  216         c3      7    bbb     C5    216 0.11363000  12.010000   ; qtot 0.077895
  217         hc      7    bbb     H9    217 0.06265900   1.008000   ; qtot 0.140554
  218         hc      7    bbb    H10    218 0.06265900   1.008000   ; qtot 0.203213
  219         c3      7    bbb     C6    219 0.11363000  12.010000   ; qtot 0.316843
  220         hc      7    bbb    H11    220 0.06265900   1.008000   ; qtot 0.379502
  221         hc      7    bbb    H12    221 0.06265900   1.008000   ; qtot 0.442161
  222         c3      7    bbb     C7    222 0.05858200  12.010000   ; qtot 0.500743
  223         h1      7    bbb    H13    223 0.06123400   1.008000   ; qtot 0.561977
  224         h1      7    bbb    H14    224 0.06123400   1.008000   ; qtot 0.623211
  225         c3      7    bbb     C8    225 -0.72423400  12.010000   ; qtot -0.101023
  226         h1      7    bbb    H15    226 0.25637600   1.008000   ; qtot 0.155353
  227         h1      7    bbb    H16    227 0.25637600   1.008000   ; qtot 0.411729
  228         c3      7    bbb     C9    228 -0.72423400  12.010000   ; qtot -0.312505
  229         h1      7    bbb    H17    229 0.25637600   1.008000   ; qtot -0.056129
  230         h1      7    bbb    H18    230 0.25637600   1.008000   ; qtot 0.200247
  231         os      7    bbb     O1    231 -0.20025300  16.000000   ; qtot -0.000006
; residue    8 bbb rtp bbb q -0.0
  232         n3      8    bbb     N1    232 -0.59685800  14.010000   ; qtot -0.596864
  233         c3      8    bbb     C1    233 0.10137000  12.010000   ; qtot -0.495494
  234         h1      8    bbb     H1    234 0.04411300   1.008000   ; qtot -0.451381
  235         h1      8    bbb     H2    235 0.04411300   1.008000   ; qtot -0.407268
  236         c3      8    bbb     C2    236 0.10137000  12.010000   ; qtot -0.305898
  237         h1      8    bbb     H3    237 0.04411300   1.008000   ; qtot -0.261785
  238         h1      8    bbb     H4    238 0.04411300   1.008000   ; qtot -0.217672
  239         c3      8    bbb     C3    239 -0.00195300  12.010000   ; qtot -0.219625
  240         h1      8    bbb     H5    240 0.05064400   1.008000   ; qtot -0.168981
  241         h1      8    bbb     H6    241 0.05064400   1.008000   ; qtot -0.118337
  242         c3      8    bbb     C4    242 -0.01612100  12.010000   ; qtot -0.134458
  243         hc      8    bbb     H7    243 0.04936100   1.008000   ; qtot -0.085097
  244         hc      8    bbb     H8    244 0.04936100   1.008000   ; qtot -0.035736
  245         c3      8    bbb     C5    245 0.11363000  12.010000   ; qtot 0.077894
  246         hc      8    bbb     H9    246 0.06265900   1.008000   ; qtot 0.140553
  247         hc      8    bbb    H10    247 0.06265900   1.008000   ; qtot 0.203212
  248         c3      8    bbb     C6    248 0.11363000  12.010000   ; qtot 0.316842
  249         hc      8    bbb    H11    249 0.06265900   1.008000   ; qtot 0.379501
  250         hc      8    bbb    H12    250 0.06265900   1.008000   ; qtot 0.442160
  251         c3      8    bbb     C7    251 0.05858200  12.010000   ; qtot 0.500742
  252         h1      8    bbb    H13    252 0.06123400   1.008000   ; qtot 0.561976
  253         h1      8    bbb    H14    253 0.06123400   1.008000   ; qtot 0.623210
  254         c3      8    bbb     C8    254 -0.72423400  12.010000   ; qtot -0.101024
  255         h1      8    bbb    H15    255 0.25637600   1.008000   ; qtot 0.155352
  256         h1      8    bbb    H16    256 0.25637600   1.008000   ; qtot 0.411728
  257         c3      8    bbb     C9    257 -0.72423400  12.010000   ; qtot -0.312506
  258         h1      8    bbb    H17    258 0.25637600   1.008000   ; qtot -0.056130
  259         h1      8    bbb    H18    259 0.25637600   1.008000   ; qtot 0.200246
  260         os      8    bbb     O1    260 -0.20025300  16.000000   ; qtot -0.000007
; residue    9 bbb rtp bbb q -0.0
  261         n3      9    bbb     N1    261 -0.59685800  14.010000   ; qtot -0.596865
  262         c3      9    bbb     C1    262 0.10137000  12.010000   ; qtot -0.495495
  263         h1      9    bbb     H1    263 0.04411300   1.008000   ; qtot -0.451382
  264         h1      9    bbb     H2    264 0.04411300   1.008000   ; qtot -0.407269
  265         c3      9    bbb     C2    265 0.10137000  12.010000   ; qtot -0.305899
  266         h1      9    bbb     H3    266 0.04411300   1.008000   ; qtot -0.261786
  267         h1      9    bbb     H4    267 0.04411300   1.008000   ; qtot -0.217673
  268         c3      9    bbb     C3    268 -0.00195300  12.010000   ; qtot -0.219626
  269         h1      9    bbb     H5    269 0.05064400   1.008000   ; qtot -0.168982
  270         h1      9    bbb     H6    270 0.05064400   1.008000   ; qtot -0.118338
  271         c3      9    bbb     C4    271 -0.01612100  12.010000   ; qtot -0.134459
  272         hc      9    bbb     H7    272 0.04936100   1.008000   ; qtot -0.085098
  273         hc      9    bbb     H8    273 0.04936100   1.008000   ; qtot -0.035737
  274         c3      9    bbb     C5    274 0.11363000  12.010000   ; qtot 0.077893
  275         hc      9    bbb     H9    275 0.06265900   1.008000   ; qtot 0.140552
  276         hc      9    bbb    H10    276 0.06265900   1.008000   ; qtot 0.203211
  277         c3      9    bbb     C6    277 0.11363000  12.010000   ; qtot 0.316841
  278         hc      9    bbb    H11    278 0.06265900   1.008000   ; qtot 0.379500
  279         hc      9    bbb    H12    279 0.06265900   1.008000   ; qtot 0.442159
  280         c3      9    bbb     C7    280 0.05858200  12.010000   ; qtot 0.500741
  281         h1      9    bbb    H13    281 0.06123400   1.008000   ; qtot 0.561975
  282         h1      9    bbb    H14    282 0.06123400   1.008000   ; qtot 0.623209
  283         c3      9    bbb     C8    283 -0.72423400  12.010000   ; qtot -0.101025
  284         h1      9    bbb    H15    284 0.25637600   1.008000   ; qtot 0.155351
  285         h1      9    bbb    H16    285 0.25637600   1.008000   ; qtot 0.411727
  286         c3      9    bbb     C9    286 -0.72423400  12.010000   ; qtot -0.312507
  287         h1      9    bbb    H17    287 0.25637600   1.008000   ; qtot -0.056131
  288         h1      9    bbb    H18    288 0.25637600   1.008000   ; qtot 0.200245
  289         os      9    bbb     O1    289 -0.20025300  16.000000   ; qtot -0.000008
; residue   10 bbb rtp bbb q -0.0
  290         n3     10    bbb     N1    290 -0.59685800  14.010000   ; qtot -0.596866
  291         c3     10    bbb     C1    291 0.10137000  12.010000   ; qtot -0.495496
  292         h1     10    bbb     H1    292 0.04411300   1.008000   ; qtot -0.451383
  293         h1     10    bbb     H2    293 0.04411300   1.008000   ; qtot -0.407270
  294         c3     10    bbb     C2    294 0.10137000  12.010000   ; qtot -0.305900
  295         h1     10    bbb     H3    295 0.04411300   1.008000   ; qtot -0.261787
  296         h1     10    bbb     H4    296 0.04411300   1.008000   ; qtot -0.217674
  297         c3     10    bbb     C3    297 -0.00195300  12.010000   ; qtot -0.219627
  298         h1     10    bbb     H5    298 0.05064400   1.008000   ; qtot -0.168983
  299         h1     10    bbb     H6    299 0.05064400   1.008000   ; qtot -0.118339
  300         c3     10    bbb     C4    300 -0.01612100  12.010000   ; qtot -0.134460
  301         hc     10    bbb     H7    301 0.04936100   1.008000   ; qtot -0.085099
  302         hc     10    bbb     H8    302 0.04936100   1.008000   ; qtot -0.035738
  303         c3     10    bbb     C5    303 0.11363000  12.010000   ; qtot 0.077892
  304         hc     10    bbb     H9    304 0.06265900   1.008000   ; qtot 0.140551
  305         hc     10    bbb    H10    305 0.06265900   1.008000   ; qtot 0.203210
  306         c3     10    bbb     C6    306 0.11363000  12.010000   ; qtot 0.316840
  307         hc     10    bbb    H11    307 0.06265900   1.008000   ; qtot 0.379499
  308         hc     10    bbb    H12    308 0.06265900   1.008000   ; qtot 0.442158
  309         c3     10    bbb     C7    309 0.05858200  12.010000   ; qtot 0.500740
  310         h1     10    bbb    H13    310 0.06123400   1.008000   ; qtot 0.561974
  311         h1     10    bbb    H14    311 0.06123400   1.008000   ; qtot 0.623208
  312         c3     10    bbb     C8    312 -0.72423400  12.010000   ; qtot -0.101026
  313         h1     10    bbb    H15    313 0.25637600   1.008000   ; qtot 0.155350
  314         h1     10    bbb    H16    314 0.25637600   1.008000   ; qtot 0.411726
  315         c3     10    bbb     C9    315 -0.72423400  12.010000   ; qtot -0.312508
  316         h1     10    bbb    H17    316 0.25637600   1.008000   ; qtot -0.056132
  317         h1     10    bbb    H18    317 0.25637600   1.008000   ; qtot 0.200244
  318         os     10    bbb     O1    318 -0.20025300  16.000000   ; qtot -0.000009
; residue   11 bbb rtp bbb q -0.0
  319         n3     11    bbb     N1    319 -0.59685800  14.010000   ; qtot -0.596867
  320         c3     11    bbb     C1    320 0.10137000  12.010000   ; qtot -0.495497
  321         h1     11    bbb     H1    321 0.04411300   1.008000   ; qtot -0.451384
  322         h1     11    bbb     H2    322 0.04411300   1.008000   ; qtot -0.407271
  323         c3     11    bbb     C2    323 0.10137000  12.010000   ; qtot -0.305901
  324         h1     11    bbb     H3    324 0.04411300   1.008000   ; qtot -0.261788
  325         h1     11    bbb     H4    325 0.04411300   1.008000   ; qtot -0.217675
  326         c3     11    bbb     C3    326 -0.00195300  12.010000   ; qtot -0.219628
  327         h1     11    bbb     H5    327 0.05064400   1.008000   ; qtot -0.168984
  328         h1     11    bbb     H6    328 0.05064400   1.008000   ; qtot -0.118340
  329         c3     11    bbb     C4    329 -0.01612100  12.010000   ; qtot -0.134461
  330         hc     11    bbb     H7    330 0.04936100   1.008000   ; qtot -0.085100
  331         hc     11    bbb     H8    331 0.04936100   1.008000   ; qtot -0.035739
  332         c3     11    bbb     C5    332 0.11363000  12.010000   ; qtot 0.077891
  333         hc     11    bbb     H9    333 0.06265900   1.008000   ; qtot 0.140550
  334         hc     11    bbb    H10    334 0.06265900   1.008000   ; qtot 0.203209
  335         c3     11    bbb     C6    335 0.11363000  12.010000   ; qtot 0.316839
  336         hc     11    bbb    H11    336 0.06265900   1.008000   ; qtot 0.379498
  337         hc     11    bbb    H12    337 0.06265900   1.008000   ; qtot 0.442157
  338         c3     11    bbb     C7    338 0.05858200  12.010000   ; qtot 0.500739
  339         h1     11    bbb    H13    339 0.06123400   1.008000   ; qtot 0.561973
  340         h1     11    bbb    H14    340 0.06123400   1.008000   ; qtot 0.623207
  341         c3     11    bbb     C8    341 -0.72423400  12.010000   ; qtot -0.101027
  342         h1     11    bbb    H15    342 0.25637600   1.008000   ; qtot 0.155349
  343         h1     11    bbb    H16    343 0.25637600   1.008000   ; qtot 0.411725
  344         c3     11    bbb     C9    344 -0.72423400  12.010000   ; qtot -0.312509
  345         h1     11    bbb    H17    345 0.25637600   1.008000   ; qtot -0.056133
  346         h1     11    bbb    H18    346 0.25637600   1.008000   ; qtot 0.200243
  347         os     11    bbb     O1    347 -0.20025300  16.000000   ; qtot -0.000010
; residue   12 bbb rtp bbb q -0.0
  348         n3     12    bbb     N1    348 -0.59685800  14.010000   ; qtot -0.596868
  349         c3     12    bbb     C1    349 0.10137000  12.010000   ; qtot -0.495498
  350         h1     12    bbb     H1    350 0.04411300   1.008000   ; qtot -0.451385
  351         h1     12    bbb     H2    351 0.04411300   1.008000   ; qtot -0.407272
  352         c3     12    bbb     C2    352 0.10137000  12.010000   ; qtot -0.305902
  353         h1     12    bbb     H3    353 0.04411300   1.008000   ; qtot -0.261789
  354         h1     12    bbb     H4    354 0.04411300   1.008000   ; qtot -0.217676
  355         c3     12    bbb     C3    355 -0.00195300  12.010000   ; qtot -0.219629
  356         h1     12    bbb     H5    356 0.05064400   1.008000   ; qtot -0.168985
  357         h1     12    bbb     H6    357 0.05064400   1.008000   ; qtot -0.118341
  358         c3     12    bbb     C4    358 -0.01612100  12.010000   ; qtot -0.134462
  359         hc     12    bbb     H7    359 0.04936100   1.008000   ; qtot -0.085101
  360         hc     12    bbb     H8    360 0.04936100   1.008000   ; qtot -0.035740
  361         c3     12    bbb     C5    361 0.11363000  12.010000   ; qtot 0.077890
  362         hc     12    bbb     H9    362 0.06265900   1.008000   ; qtot 0.140549
  363         hc     12    bbb    H10    363 0.06265900   1.008000   ; qtot 0.203208
  364         c3     12    bbb     C6    364 0.11363000  12.010000   ; qtot 0.316838
  365         hc     12    bbb    H11    365 0.06265900   1.008000   ; qtot 0.379497
  366         hc     12    bbb    H12    366 0.06265900   1.008000   ; qtot 0.442156
  367         c3     12    bbb     C7    367 0.05858200  12.010000   ; qtot 0.500738
  368         h1     12    bbb    H13    368 0.06123400   1.008000   ; qtot 0.561972
  369         h1     12    bbb    H14    369 0.06123400   1.008000   ; qtot 0.623206
  370         c3     12    bbb     C8    370 -0.72423400  12.010000   ; qtot -0.101028
  371         h1     12    bbb    H15    371 0.25637600   1.008000   ; qtot 0.155348
  372         h1     12    bbb    H16    372 0.25637600   1.008000   ; qtot 0.411724
  373         c3     12    bbb     C9    373 -0.72423400  12.010000   ; qtot -0.312510
  374         h1     12    bbb    H17    374 0.25637600   1.008000   ; qtot -0.056134
  375         h1     12    bbb    H18    375 0.25637600   1.008000   ; qtot 0.200242
  376         os     12    bbb     O1    376 -0.20025300  16.000000   ; qtot -0.000011
; residue   13 bbb rtp bbb q -0.0
  377         n3     13    bbb     N1    377 -0.59685800  14.010000   ; qtot -0.596869
  378         c3     13    bbb     C1    378 0.10137000  12.010000   ; qtot -0.495499
  379         h1     13    bbb     H1    379 0.04411300   1.008000   ; qtot -0.451386
  380         h1     13    bbb     H2    380 0.04411300   1.008000   ; qtot -0.407273
  381         c3     13    bbb     C2    381 0.10137000  12.010000   ; qtot -0.305903
  382         h1     13    bbb     H3    382 0.04411300   1.008000   ; qtot -0.261790
  383         h1     13    bbb     H4    383 0.04411300   1.008000   ; qtot -0.217677
  384         c3     13    bbb     C3    384 -0.00195300  12.010000   ; qtot -0.219630
  385         h1     13    bbb     H5    385 0.05064400   1.008000   ; qtot -0.168986
  386         h1     13    bbb     H6    386 0.05064400   1.008000   ; qtot -0.118342
  387         c3     13    bbb     C4    387 -0.01612100  12.010000   ; qtot -0.134463
  388         hc     13    bbb     H7    388 0.04936100   1.008000   ; qtot -0.085102
  389         hc     13    bbb     H8    389 0.04936100   1.008000   ; qtot -0.035741
  390         c3     13    bbb     C5    390 0.11363000  12.010000   ; qtot 0.077889
  391         hc     13    bbb     H9    391 0.06265900   1.008000   ; qtot 0.140548
  392         hc     13    bbb    H10    392 0.06265900   1.008000   ; qtot 0.203207
  393         c3     13    bbb     C6    393 0.11363000  12.010000   ; qtot 0.316837
  394         hc     13    bbb    H11    394 0.06265900   1.008000   ; qtot 0.379496
  395         hc     13    bbb    H12    395 0.06265900   1.008000   ; qtot 0.442155
  396         c3     13    bbb     C7    396 0.05858200  12.010000   ; qtot 0.500737
  397         h1     13    bbb    H13    397 0.06123400   1.008000   ; qtot 0.561971
  398         h1     13    bbb    H14    398 0.06123400   1.008000   ; qtot 0.623205
  399         c3     13    bbb     C8    399 -0.72423400  12.010000   ; qtot -0.101029
  400         h1     13    bbb    H15    400 0.25637600   1.008000   ; qtot 0.155347
  401         h1     13    bbb    H16    401 0.25637600   1.008000   ; qtot 0.411723
  402         c3     13    bbb     C9    402 -0.72423400  12.010000   ; qtot -0.312511
  403         h1     13    bbb    H17    403 0.25637600   1.008000   ; qtot -0.056135
  404         h1     13    bbb    H18    404 0.25637600   1.008000   ; qtot 0.200241
  405         os     13    bbb     O1    405 -0.20025300  16.000000   ; qtot -0.000012
; residue   14 ccc rtp ccc q -2.0
  406         c3     14    ccc     C3    406 -0.04070000  12.010000   ; qtot -0.040712
  407         h1     14    ccc     H5    407 0.04610000   1.008000   ; qtot 0.005388
  408         h1     14    ccc     H6    408 0.04610000   1.008000   ; qtot 0.051488
  409         c3     14    ccc     C2    409 -0.02540000  12.010000   ; qtot 0.026088
  410         hc     14    ccc     H3    410 0.00850000   1.008000   ; qtot 0.034588
  411         hc     14    ccc     H4    411 0.00850000   1.008000   ; qtot 0.043088
  412         c3     14    ccc     C1    412 0.60210000  12.010000   ; qtot 0.645188
  413         h1     14    ccc     H1    413 -0.09250000   1.008000   ; qtot 0.552688
  414         h1     14    ccc     H2    414 -0.09250000   1.008000   ; qtot 0.460188
  415         n3     14    ccc     N1    415 -0.59700000  14.010000   ; qtot -0.136812
  416         c3     14    ccc     C4    416 0.32800000  12.010000   ; qtot 0.191188
  417         h1     14    ccc     H7    417 -0.07120000   1.008000   ; qtot 0.119988
  418         h1     14    ccc     H8    418 -0.07120000   1.008000   ; qtot 0.048788
  419         c3     14    ccc     C5    419 -0.39330000  12.010000   ; qtot -0.344512
  420         hc     14    ccc     H9    420 0.08130000   1.008000   ; qtot -0.263212
  421         hc     14    ccc    H10    421 0.08130000   1.008000   ; qtot -0.181912
  422          c     14    ccc     C6    422 1.08970000  12.010000   ; qtot 0.907788
  423          o     14    ccc     O2    423 -0.96050000  16.000000   ; qtot -0.052712
  424          o     14    ccc     O3    424 -0.96050000  16.000000   ; qtot -1.013212
  425         c3     14    ccc     C7    425 0.32800000  12.010000   ; qtot -0.685212
  426         h1     14    ccc    H11    426 -0.07120000   1.008000   ; qtot -0.756412
  427         h1     14    ccc    H12    427 -0.07120000   1.008000   ; qtot -0.827612
  428         c3     14    ccc     C8    428 -0.39330000  12.010000   ; qtot -1.220912
  429         hc     14    ccc    H13    429 0.08130000   1.008000   ; qtot -1.139612
  430         hc     14    ccc    H14    430 0.08130000   1.008000   ; qtot -1.058312
  431          c     14    ccc     C9    431 1.08970000  12.010000   ; qtot 0.031388
  432          o     14    ccc     O4    432 -0.96050000  16.000000   ; qtot -0.929112
  433          o     14    ccc     O5    433 -0.96050000  16.000000   ; qtot -1.889612
  434         os     14    ccc     O1    434 -0.11060000  16.000000   ; qtot -2.000212
; residue   15 ccc rtp ccc q -2.0
  435         c3     15    ccc     C3    435 -0.04070000  12.010000   ; qtot -2.040912
  436         h1     15    ccc     H5    436 0.04610000   1.008000   ; qtot -1.994812
  437         h1     15    ccc     H6    437 0.04610000   1.008000   ; qtot -1.948712
  438         c3     15    ccc     C2    438 -0.02540000  12.010000   ; qtot -1.974112
  439         hc     15    ccc     H3    439 0.00850000   1.008000   ; qtot -1.965612
  440         hc     15    ccc     H4    440 0.00850000   1.008000   ; qtot -1.957112
  441         c3     15    ccc     C1    441 0.60210000  12.010000   ; qtot -1.355012
  442         h1     15    ccc     H1    442 -0.09250000   1.008000   ; qtot -1.447512
  443         h1     15    ccc     H2    443 -0.09250000   1.008000   ; qtot -1.540012
  444         n3     15    ccc     N1    444 -0.59700000  14.010000   ; qtot -2.137012
  445         c3     15    ccc     C4    445 0.32800000  12.010000   ; qtot -1.809012
  446         h1     15    ccc     H7    446 -0.07120000   1.008000   ; qtot -1.880212
  447         h1     15    ccc     H8    447 -0.07120000   1.008000   ; qtot -1.951412
  448         c3     15    ccc     C5    448 -0.39330000  12.010000   ; qtot -2.344712
  449         hc     15    ccc     H9    449 0.08130000   1.008000   ; qtot -2.263412
  450         hc     15    ccc    H10    450 0.08130000   1.008000   ; qtot -2.182112
  451          c     15    ccc     C6    451 1.08970000  12.010000   ; qtot -1.092412
  452          o     15    ccc     O2    452 -0.96050000  16.000000   ; qtot -2.052912
  453          o     15    ccc     O3    453 -0.96050000  16.000000   ; qtot -3.013412
  454         c3     15    ccc     C7    454 0.32800000  12.010000   ; qtot -2.685412
  455         h1     15    ccc    H11    455 -0.07120000   1.008000   ; qtot -2.756612
  456         h1     15    ccc    H12    456 -0.07120000   1.008000   ; qtot -2.827812
  457         c3     15    ccc     C8    457 -0.39330000  12.010000   ; qtot -3.221112
  458         hc     15    ccc    H13    458 0.08130000   1.008000   ; qtot -3.139812
  459         hc     15    ccc    H14    459 0.08130000   1.008000   ; qtot -3.058512
  460          c     15    ccc     C9    460 1.08970000  12.010000   ; qtot -1.968812
  461          o     15    ccc     O4    461 -0.96050000  16.000000   ; qtot -2.929312
  462          o     15    ccc     O5    462 -0.96050000  16.000000   ; qtot -3.889812
  463         os     15    ccc     O1    463 -0.11060000  16.000000   ; qtot -4.000412
; residue   16 ccc rtp ccc q -2.0
  464         c3     16    ccc     C3    464 -0.04070000  12.010000   ; qtot -4.041112
  465         h1     16    ccc     H5    465 0.04610000   1.008000   ; qtot -3.995012
  466         h1     16    ccc     H6    466 0.04610000   1.008000   ; qtot -3.948912
  467         c3     16    ccc     C2    467 -0.02540000  12.010000   ; qtot -3.974312
  468         hc     16    ccc     H3    468 0.00850000   1.008000   ; qtot -3.965812
  469         hc     16    ccc     H4    469 0.00850000   1.008000   ; qtot -3.957312
  470         c3     16    ccc     C1    470 0.60210000  12.010000   ; qtot -3.355212
  471         h1     16    ccc     H1    471 -0.09250000   1.008000   ; qtot -3.447712
  472         h1     16    ccc     H2    472 -0.09250000   1.008000   ; qtot -3.540212
  473         n3     16    ccc     N1    473 -0.59700000  14.010000   ; qtot -4.137212
  474         c3     16    ccc     C4    474 0.32800000  12.010000   ; qtot -3.809212
  475         h1     16    ccc     H7    475 -0.07120000   1.008000   ; qtot -3.880412
  476         h1     16    ccc     H8    476 -0.07120000   1.008000   ; qtot -3.951612
  477         c3     16    ccc     C5    477 -0.39330000  12.010000   ; qtot -4.344912
  478         hc     16    ccc     H9    478 0.08130000   1.008000   ; qtot -4.263612
  479         hc     16    ccc    H10    479 0.08130000   1.008000   ; qtot -4.182312
  480          c     16    ccc     C6    480 1.08970000  12.010000   ; qtot -3.092612
  481          o     16    ccc     O2    481 -0.96050000  16.000000   ; qtot -4.053112
  482          o     16    ccc     O3    482 -0.96050000  16.000000   ; qtot -5.013612
  483         c3     16    ccc     C7    483 0.32800000  12.010000   ; qtot -4.685612
  484         h1     16    ccc    H11    484 -0.07120000   1.008000   ; qtot -4.756812
  485         h1     16    ccc    H12    485 -0.07120000   1.008000   ; qtot -4.828012
  486         c3     16    ccc     C8    486 -0.39330000  12.010000   ; qtot -5.221312
  487         hc     16    ccc    H13    487 0.08130000   1.008000   ; qtot -5.140012
  488         hc     16    ccc    H14    488 0.08130000   1.008000   ; qtot -5.058712
  489          c     16    ccc     C9    489 1.08970000  12.010000   ; qtot -3.969012
  490          o     16    ccc     O4    490 -0.96050000  16.000000   ; qtot -4.929512
  491          o     16    ccc     O5    491 -0.96050000  16.000000   ; qtot -5.890012
  492         os     16    ccc     O1    492 -0.11060000  16.000000   ; qtot -6.000612
; residue   17 ccc rtp ccc q -2.0
  493         c3     17    ccc     C3    493 -0.04070000  12.010000   ; qtot -6.041312
  494         h1     17    ccc     H5    494 0.04610000   1.008000   ; qtot -5.995212
  495         h1     17    ccc     H6    495 0.04610000   1.008000   ; qtot -5.949112
  496         c3     17    ccc     C2    496 -0.02540000  12.010000   ; qtot -5.974512
  497         hc     17    ccc     H3    497 0.00850000   1.008000   ; qtot -5.966012
  498         hc     17    ccc     H4    498 0.00850000   1.008000   ; qtot -5.957512
  499         c3     17    ccc     C1    499 0.60210000  12.010000   ; qtot -5.355412
  500         h1     17    ccc     H1    500 -0.09250000   1.008000   ; qtot -5.447912
  501         h1     17    ccc     H2    501 -0.09250000   1.008000   ; qtot -5.540412
  502         n3     17    ccc     N1    502 -0.59700000  14.010000   ; qtot -6.137412
  503         c3     17    ccc     C4    503 0.32800000  12.010000   ; qtot -5.809412
  504         h1     17    ccc     H7    504 -0.07120000   1.008000   ; qtot -5.880612
  505         h1     17    ccc     H8    505 -0.07120000   1.008000   ; qtot -5.951812
  506         c3     17    ccc     C5    506 -0.39330000  12.010000   ; qtot -6.345112
  507         hc     17    ccc     H9    507 0.08130000   1.008000   ; qtot -6.263812
  508         hc     17    ccc    H10    508 0.08130000   1.008000   ; qtot -6.182512
  509          c     17    ccc     C6    509 1.08970000  12.010000   ; qtot -5.092812
  510          o     17    ccc     O2    510 -0.96050000  16.000000   ; qtot -6.053312
  511          o     17    ccc     O3    511 -0.96050000  16.000000   ; qtot -7.013812
  512         c3     17    ccc     C7    512 0.32800000  12.010000   ; qtot -6.685812
  513         h1     17    ccc    H11    513 -0.07120000   1.008000   ; qtot -6.757012
  514         h1     17    ccc    H12    514 -0.07120000   1.008000   ; qtot -6.828212
  515         c3     17    ccc     C8    515 -0.39330000  12.010000   ; qtot -7.221512
  516         hc     17    ccc    H13    516 0.08130000   1.008000   ; qtot -7.140212
  517         hc     17    ccc    H14    517 0.08130000   1.008000   ; qtot -7.058912
  518          c     17    ccc     C9    518 1.08970000  12.010000   ; qtot -5.969212
  519          o     17    ccc     O4    519 -0.96050000  16.000000   ; qtot -6.929712
  520          o     17    ccc     O5    520 -0.96050000  16.000000   ; qtot -7.890212
  521         os     17    ccc     O1    521 -0.11060000  16.000000   ; qtot -8.000812
; residue   18 ccc rtp ccc q -2.0
  522         c3     18    ccc     C3    522 -0.04070000  12.010000   ; qtot -8.041512
  523         h1     18    ccc     H5    523 0.04610000   1.008000   ; qtot -7.995412
  524         h1     18    ccc     H6    524 0.04610000   1.008000   ; qtot -7.949312
  525         c3     18    ccc     C2    525 -0.02540000  12.010000   ; qtot -7.974712
  526         hc     18    ccc     H3    526 0.00850000   1.008000   ; qtot -7.966212
  527         hc     18    ccc     H4    527 0.00850000   1.008000   ; qtot -7.957712
  528         c3     18    ccc     C1    528 0.60210000  12.010000   ; qtot -7.355612
  529         h1     18    ccc     H1    529 -0.09250000   1.008000   ; qtot -7.448112
  530         h1     18    ccc     H2    530 -0.09250000   1.008000   ; qtot -7.540612
  531         n3     18    ccc     N1    531 -0.59700000  14.010000   ; qtot -8.137612
  532         c3     18    ccc     C4    532 0.32800000  12.010000   ; qtot -7.809612
  533         h1     18    ccc     H7    533 -0.07120000   1.008000   ; qtot -7.880812
  534         h1     18    ccc     H8    534 -0.07120000   1.008000   ; qtot -7.952012
  535         c3     18    ccc     C5    535 -0.39330000  12.010000   ; qtot -8.345312
  536         hc     18    ccc     H9    536 0.08130000   1.008000   ; qtot -8.264012
  537         hc     18    ccc    H10    537 0.08130000   1.008000   ; qtot -8.182712
  538          c     18    ccc     C6    538 1.08970000  12.010000   ; qtot -7.093012
  539          o     18    ccc     O2    539 -0.96050000  16.000000   ; qtot -8.053512
  540          o     18    ccc     O3    540 -0.96050000  16.000000   ; qtot -9.014012
  541         c3     18    ccc     C7    541 0.32800000  12.010000   ; qtot -8.686012
  542         h1     18    ccc    H11    542 -0.07120000   1.008000   ; qtot -8.757212
  543         h1     18    ccc    H12    543 -0.07120000   1.008000   ; qtot -8.828412
  544         c3     18    ccc     C8    544 -0.39330000  12.010000   ; qtot -9.221712
  545         hc     18    ccc    H13    545 0.08130000   1.008000   ; qtot -9.140412
  546         hc     18    ccc    H14    546 0.08130000   1.008000   ; qtot -9.059112
  547          c     18    ccc     C9    547 1.08970000  12.010000   ; qtot -7.969412
  548          o     18    ccc     O4    548 -0.96050000  16.000000   ; qtot -8.929912
  549          o     18    ccc     O5    549 -0.96050000  16.000000   ; qtot -9.890412
  550         os     18    ccc     O1    550 -0.11060000  16.000000   ; qtot -10.001012
; residue   19 ccc rtp ccc q -2.0
  551         c3     19    ccc     C3    551 -0.04070000  12.010000   ; qtot -10.041712
  552         h1     19    ccc     H5    552 0.04610000   1.008000   ; qtot -9.995612
  553         h1     19    ccc     H6    553 0.04610000   1.008000   ; qtot -9.949512
  554         c3     19    ccc     C2    554 -0.02540000  12.010000   ; qtot -9.974912
  555         hc     19    ccc     H3    555 0.00850000   1.008000   ; qtot -9.966412
  556         hc     19    ccc     H4    556 0.00850000   1.008000   ; qtot -9.957912
  557         c3     19    ccc     C1    557 0.60210000  12.010000   ; qtot -9.355812
  558         h1     19    ccc     H1    558 -0.09250000   1.008000   ; qtot -9.448312
  559         h1     19    ccc     H2    559 -0.09250000   1.008000   ; qtot -9.540812
  560         n3     19    ccc     N1    560 -0.59700000  14.010000   ; qtot -10.137812
  561         c3     19    ccc     C4    561 0.32800000  12.010000   ; qtot -9.809812
  562         h1     19    ccc     H7    562 -0.07120000   1.008000   ; qtot -9.881012
  563         h1     19    ccc     H8    563 -0.07120000   1.008000   ; qtot -9.952212
  564         c3     19    ccc     C5    564 -0.39330000  12.010000   ; qtot -10.345512
  565         hc     19    ccc     H9    565 0.08130000   1.008000   ; qtot -10.264212
  566         hc     19    ccc    H10    566 0.08130000   1.008000   ; qtot -10.182912
  567          c     19    ccc     C6    567 1.08970000  12.010000   ; qtot -9.093212
  568          o     19    ccc     O2    568 -0.96050000  16.000000   ; qtot -10.053712
  569          o     19    ccc     O3    569 -0.96050000  16.000000   ; qtot -11.014212
  570         c3     19    ccc     C7    570 0.32800000  12.010000   ; qtot -10.686212
  571         h1     19    ccc    H11    571 -0.07120000   1.008000   ; qtot -10.757412
  572         h1     19    ccc    H12    572 -0.07120000   1.008000   ; qtot -10.828612
  573         c3     19    ccc     C8    573 -0.39330000  12.010000   ; qtot -11.221912
  574         hc     19    ccc    H13    574 0.08130000   1.008000   ; qtot -11.140612
  575         hc     19    ccc    H14    575 0.08130000   1.008000   ; qtot -11.059312
  576          c     19    ccc     C9    576 1.08970000  12.010000   ; qtot -9.969612
  577          o     19    ccc     O4    577 -0.96050000  16.000000   ; qtot -10.930112
  578          o     19    ccc     O5    578 -0.96050000  16.000000   ; qtot -11.890612
  579         os     19    ccc     O1    579 -0.11060000  16.000000   ; qtot -12.001212
; residue   20 ccc rtp ccc q -2.0
  580         c3     20    ccc     C3    580 -0.04070000  12.010000   ; qtot -12.041912
  581         h1     20    ccc     H5    581 0.04610000   1.008000   ; qtot -11.995812
  582         h1     20    ccc     H6    582 0.04610000   1.008000   ; qtot -11.949712
  583         c3     20    ccc     C2    583 -0.02540000  12.010000   ; qtot -11.975112
  584         hc     20    ccc     H3    584 0.00850000   1.008000   ; qtot -11.966612
  585         hc     20    ccc     H4    585 0.00850000   1.008000   ; qtot -11.958112
  586         c3     20    ccc     C1    586 0.60210000  12.010000   ; qtot -11.356012
  587         h1     20    ccc     H1    587 -0.09250000   1.008000   ; qtot -11.448512
  588         h1     20    ccc     H2    588 -0.09250000   1.008000   ; qtot -11.541012
  589         n3     20    ccc     N1    589 -0.59700000  14.010000   ; qtot -12.138012
  590         c3     20    ccc     C4    590 0.32800000  12.010000   ; qtot -11.810012
  591         h1     20    ccc     H7    591 -0.07120000   1.008000   ; qtot -11.881212
  592         h1     20    ccc     H8    592 -0.07120000   1.008000   ; qtot -11.952412
  593         c3     20    ccc     C5    593 -0.39330000  12.010000   ; qtot -12.345712
  594         hc     20    ccc     H9    594 0.08130000   1.008000   ; qtot -12.264412
  595         hc     20    ccc    H10    595 0.08130000   1.008000   ; qtot -12.183112
  596          c     20    ccc     C6    596 1.08970000  12.010000   ; qtot -11.093412
  597          o     20    ccc     O2    597 -0.96050000  16.000000   ; qtot -12.053912
  598          o     20    ccc     O3    598 -0.96050000  16.000000   ; qtot -13.014412
  599         c3     20    ccc     C7    599 0.32800000  12.010000   ; qtot -12.686412
  600         h1     20    ccc    H11    600 -0.07120000   1.008000   ; qtot -12.757612
  601         h1     20    ccc    H12    601 -0.07120000   1.008000   ; qtot -12.828812
  602         c3     20    ccc     C8    602 -0.39330000  12.010000   ; qtot -13.222112
  603         hc     20    ccc    H13    603 0.08130000   1.008000   ; qtot -13.140812
  604         hc     20    ccc    H14    604 0.08130000   1.008000   ; qtot -13.059512
  605          c     20    ccc     C9    605 1.08970000  12.010000   ; qtot -11.969812
  606          o     20    ccc     O4    606 -0.96050000  16.000000   ; qtot -12.930312
  607          o     20    ccc     O5    607 -0.96050000  16.000000   ; qtot -13.890812
  608         os     20    ccc     O1    608 -0.11060000  16.000000   ; qtot -14.001412
; residue   21 ccc rtp ccc q -2.0
  609         c3     21    ccc     C3    609 -0.04070000  12.010000   ; qtot -14.042112
  610         h1     21    ccc     H5    610 0.04610000   1.008000   ; qtot -13.996012
  611         h1     21    ccc     H6    611 0.04610000   1.008000   ; qtot -13.949912
  612         c3     21    ccc     C2    612 -0.02540000  12.010000   ; qtot -13.975312
  613         hc     21    ccc     H3    613 0.00850000   1.008000   ; qtot -13.966812
  614         hc     21    ccc     H4    614 0.00850000   1.008000   ; qtot -13.958312
  615         c3     21    ccc     C1    615 0.60210000  12.010000   ; qtot -13.356212
  616         h1     21    ccc     H1    616 -0.09250000   1.008000   ; qtot -13.448712
  617         h1     21    ccc     H2    617 -0.09250000   1.008000   ; qtot -13.541212
  618         n3     21    ccc     N1    618 -0.59700000  14.010000   ; qtot -14.138212
  619         c3     21    ccc     C4    619 0.32800000  12.010000   ; qtot -13.810212
  620         h1     21    ccc     H7    620 -0.07120000   1.008000   ; qtot -13.881412
  621         h1     21    ccc     H8    621 -0.07120000   1.008000   ; qtot -13.952612
  622         c3     21    ccc     C5    622 -0.39330000  12.010000   ; qtot -14.345912
  623         hc     21    ccc     H9    623 0.08130000   1.008000   ; qtot -14.264612
  624         hc     21    ccc    H10    624 0.08130000   1.008000   ; qtot -14.183312
  625          c     21    ccc     C6    625 1.08970000  12.010000   ; qtot -13.093612
  626          o     21    ccc     O2    626 -0.96050000  16.000000   ; qtot -14.054112
  627          o     21    ccc     O3    627 -0.96050000  16.000000   ; qtot -15.014612
  628         c3     21    ccc     C7    628 0.32800000  12.010000   ; qtot -14.686612
  629         h1     21    ccc    H11    629 -0.07120000   1.008000   ; qtot -14.757812
  630         h1     21    ccc    H12    630 -0.07120000   1.008000   ; qtot -14.829012
  631         c3     21    ccc     C8    631 -0.39330000  12.010000   ; qtot -15.222312
  632         hc     21    ccc    H13    632 0.08130000   1.008000   ; qtot -15.141012
  633         hc     21    ccc    H14    633 0.08130000   1.008000   ; qtot -15.059712
  634          c     21    ccc     C9    634 1.08970000  12.010000   ; qtot -13.970012
  635          o     21    ccc     O4    635 -0.96050000  16.000000   ; qtot -14.930512
  636          o     21    ccc     O5    636 -0.96050000  16.000000   ; qtot -15.891012
  637         os     21    ccc     O1    637 -0.11060000  16.000000   ; qtot -16.001612
; residue   22 ccc rtp ccc q -2.0
  638         c3     22    ccc     C3    638 -0.04070000  12.010000   ; qtot -16.042312
  639         h1     22    ccc     H5    639 0.04610000   1.008000   ; qtot -15.996212
  640         h1     22    ccc     H6    640 0.04610000   1.008000   ; qtot -15.950112
  641         c3     22    ccc     C2    641 -0.02540000  12.010000   ; qtot -15.975512
  642         hc     22    ccc     H3    642 0.00850000   1.008000   ; qtot -15.967012
  643         hc     22    ccc     H4    643 0.00850000   1.008000   ; qtot -15.958512
  644         c3     22    ccc     C1    644 0.60210000  12.010000   ; qtot -15.356412
  645         h1     22    ccc     H1    645 -0.09250000   1.008000   ; qtot -15.448912
  646         h1     22    ccc     H2    646 -0.09250000   1.008000   ; qtot -15.541412
  647         n3     22    ccc     N1    647 -0.59700000  14.010000   ; qtot -16.138412
  648         c3     22    ccc     C4    648 0.32800000  12.010000   ; qtot -15.810412
  649         h1     22    ccc     H7    649 -0.07120000   1.008000   ; qtot -15.881612
  650         h1     22    ccc     H8    650 -0.07120000   1.008000   ; qtot -15.952812
  651         c3     22    ccc     C5    651 -0.39330000  12.010000   ; qtot -16.346112
  652         hc     22    ccc     H9    652 0.08130000   1.008000   ; qtot -16.264812
  653         hc     22    ccc    H10    653 0.08130000   1.008000   ; qtot -16.183512
  654          c     22    ccc     C6    654 1.08970000  12.010000   ; qtot -15.093812
  655          o     22    ccc     O2    655 -0.96050000  16.000000   ; qtot -16.054312
  656          o     22    ccc     O3    656 -0.96050000  16.000000   ; qtot -17.014812
  657         c3     22    ccc     C7    657 0.32800000  12.010000   ; qtot -16.686812
  658         h1     22    ccc    H11    658 -0.07120000   1.008000   ; qtot -16.758012
  659         h1     22    ccc    H12    659 -0.07120000   1.008000   ; qtot -16.829212
  660         c3     22    ccc     C8    660 -0.39330000  12.010000   ; qtot -17.222512
  661         hc     22    ccc    H13    661 0.08130000   1.008000   ; qtot -17.141212
  662         hc     22    ccc    H14    662 0.08130000   1.008000   ; qtot -17.059912
  663          c     22    ccc     C9    663 1.08970000  12.010000   ; qtot -15.970212
  664          o     22    ccc     O4    664 -0.96050000  16.000000   ; qtot -16.930712
  665          o     22    ccc     O5    665 -0.96050000  16.000000   ; qtot -17.891212
  666         os     22    ccc     O1    666 -0.11060000  16.000000   ; qtot -18.001812
; residue   23 ccc rtp ccc q -2.0
  667         c3     23    ccc     C3    667 -0.04070000  12.010000   ; qtot -18.042512
  668         h1     23    ccc     H5    668 0.04610000   1.008000   ; qtot -17.996412
  669         h1     23    ccc     H6    669 0.04610000   1.008000   ; qtot -17.950312
  670         c3     23    ccc     C2    670 -0.02540000  12.010000   ; qtot -17.975712
  671         hc     23    ccc     H3    671 0.00850000   1.008000   ; qtot -17.967212
  672         hc     23    ccc     H4    672 0.00850000   1.008000   ; qtot -17.958712
  673         c3     23    ccc     C1    673 0.60210000  12.010000   ; qtot -17.356612
  674         h1     23    ccc     H1    674 -0.09250000   1.008000   ; qtot -17.449112
  675         h1     23    ccc     H2    675 -0.09250000   1.008000   ; qtot -17.541612
  676         n3     23    ccc     N1    676 -0.59700000  14.010000   ; qtot -18.138612
  677         c3     23    ccc     C4    677 0.32800000  12.010000   ; qtot -17.810612
  678         h1     23    ccc     H7    678 -0.07120000   1.008000   ; qtot -17.881812
  679         h1     23    ccc     H8    679 -0.07120000   1.008000   ; qtot -17.953012
  680         c3     23    ccc     C5    680 -0.39330000  12.010000   ; qtot -18.346312
  681         hc     23    ccc     H9    681 0.08130000   1.008000   ; qtot -18.265012
  682         hc     23    ccc    H10    682 0.08130000   1.008000   ; qtot -18.183712
  683          c     23    ccc     C6    683 1.08970000  12.010000   ; qtot -17.094012
  684          o     23    ccc     O2    684 -0.96050000  16.000000   ; qtot -18.054512
  685          o     23    ccc     O3    685 -0.96050000  16.000000   ; qtot -19.015012
  686         c3     23    ccc     C7    686 0.32800000  12.010000   ; qtot -18.687012
  687         h1     23    ccc    H11    687 -0.07120000   1.008000   ; qtot -18.758212
  688         h1     23    ccc    H12    688 -0.07120000   1.008000   ; qtot -18.829412
  689         c3     23    ccc     C8    689 -0.39330000  12.010000   ; qtot -19.222712
  690         hc     23    ccc    H13    690 0.08130000   1.008000   ; qtot -19.141412
  691         hc     23    ccc    H14    691 0.08130000   1.008000   ; qtot -19.060112
  692          c     23    ccc     C9    692 1.08970000  12.010000   ; qtot -17.970412
  693          o     23    ccc     O4    693 -0.96050000  16.000000   ; qtot -18.930912
  694          o     23    ccc     O5    694 -0.96050000  16.000000   ; qtot -19.891412
  695         os     23    ccc     O1    695 -0.11060000  16.000000   ; qtot -20.002012
; residue   24 ccc rtp ccc q -2.0
  696         c3     24    ccc     C3    696 -0.04070000  12.010000   ; qtot -20.042712
  697         h1     24    ccc     H5    697 0.04610000   1.008000   ; qtot -19.996612
  698         h1     24    ccc     H6    698 0.04610000   1.008000   ; qtot -19.950512
  699         c3     24    ccc     C2    699 -0.02540000  12.010000   ; qtot -19.975912
  700         hc     24    ccc     H3    700 0.00850000   1.008000   ; qtot -19.967412
  701         hc     24    ccc     H4    701 0.00850000   1.008000   ; qtot -19.958912
  702         c3     24    ccc     C1    702 0.60210000  12.010000   ; qtot -19.356812
  703         h1     24    ccc     H1    703 -0.09250000   1.008000   ; qtot -19.449312
  704         h1     24    ccc     H2    704 -0.09250000   1.008000   ; qtot -19.541812
  705         n3     24    ccc     N1    705 -0.59700000  14.010000   ; qtot -20.138812
  706         c3     24    ccc     C4    706 0.32800000  12.010000   ; qtot -19.810812
  707         h1     24    ccc     H7    707 -0.07120000   1.008000   ; qtot -19.882012
  708         h1     24    ccc     H8    708 -0.07120000   1.008000   ; qtot -19.953212
  709         c3     24    ccc     C5    709 -0.39330000  12.010000   ; qtot -20.346512
  710         hc     24    ccc     H9    710 0.08130000   1.008000   ; qtot -20.265212
  711         hc     24    ccc    H10    711 0.08130000   1.008000   ; qtot -20.183912
  712          c     24    ccc     C6    712 1.08970000  12.010000   ; qtot -19.094212
  713          o     24    ccc     O2    713 -0.96050000  16.000000   ; qtot -20.054712
  714          o     24    ccc     O3    714 -0.96050000  16.000000   ; qtot -21.015212
  715         c3     24    ccc     C7    715 0.32800000  12.010000   ; qtot -20.687212
  716         h1     24    ccc    H11    716 -0.07120000   1.008000   ; qtot -20.758412
  717         h1     24    ccc    H12    717 -0.07120000   1.008000   ; qtot -20.829612
  718         c3     24    ccc     C8    718 -0.39330000  12.010000   ; qtot -21.222912
  719         hc     24    ccc    H13    719 0.08130000   1.008000   ; qtot -21.141612
  720         hc     24    ccc    H14    720 0.08130000   1.008000   ; qtot -21.060312
  721          c     24    ccc     C9    721 1.08970000  12.010000   ; qtot -19.970612
  722          o     24    ccc     O4    722 -0.96050000  16.000000   ; qtot -20.931112
  723          o     24    ccc     O5    723 -0.96050000  16.000000   ; qtot -21.891612
  724         os     24    ccc     O1    724 -0.11060000  16.000000   ; qtot -22.002212
; residue   25 ccc rtp ccc q -2.0
  725         c3     25    ccc     C3    725 -0.04070000  12.010000   ; qtot -22.042912
  726         h1     25    ccc     H5    726 0.04610000   1.008000   ; qtot -21.996812
  727         h1     25    ccc     H6    727 0.04610000   1.008000   ; qtot -21.950712
  728         c3     25    ccc     C2    728 -0.02540000  12.010000   ; qtot -21.976112
  729         hc     25    ccc     H3    729 0.00850000   1.008000   ; qtot -21.967612
  730         hc     25    ccc     H4    730 0.00850000   1.008000   ; qtot -21.959112
  731         c3     25    ccc     C1    731 0.60210000  12.010000   ; qtot -21.357012
  732         h1     25    ccc     H1    732 -0.09250000   1.008000   ; qtot -21.449512
  733         h1     25    ccc     H2    733 -0.09250000   1.008000   ; qtot -21.542012
  734         n3     25    ccc     N1    734 -0.59700000  14.010000   ; qtot -22.139012
  735         c3     25    ccc     C4    735 0.32800000  12.010000   ; qtot -21.811012
  736         h1     25    ccc     H7    736 -0.07120000   1.008000   ; qtot -21.882212
  737         h1     25    ccc     H8    737 -0.07120000   1.008000   ; qtot -21.953412
  738         c3     25    ccc     C5    738 -0.39330000  12.010000   ; qtot -22.346712
  739         hc     25    ccc     H9    739 0.08130000   1.008000   ; qtot -22.265412
  740         hc     25    ccc    H10    740 0.08130000   1.008000   ; qtot -22.184112
  741          c     25    ccc     C6    741 1.08970000  12.010000   ; qtot -21.094412
  742          o     25    ccc     O2    742 -0.96050000  16.000000   ; qtot -22.054912
  743          o     25    ccc     O3    743 -0.96050000  16.000000   ; qtot -23.015412
  744         c3     25    ccc     C7    744 0.32800000  12.010000   ; qtot -22.687412
  745         h1     25    ccc    H11    745 -0.07120000   1.008000   ; qtot -22.758612
  746         h1     25    ccc    H12    746 -0.07120000   1.008000   ; qtot -22.829812
  747         c3     25    ccc     C8    747 -0.39330000  12.010000   ; qtot -23.223112
  748         hc     25    ccc    H13    748 0.08130000   1.008000   ; qtot -23.141812
  749         hc     25    ccc    H14    749 0.08130000   1.008000   ; qtot -23.060512
  750          c     25    ccc     C9    750 1.08970000  12.010000   ; qtot -21.970812
  751          o     25    ccc     O4    751 -0.96050000  16.000000   ; qtot -22.931312
  752          o     25    ccc     O5    752 -0.96050000  16.000000   ; qtot -23.891812
  753         os     25    ccc     O1    753 -0.11060000  16.000000   ; qtot -24.002412
; residue   26 ccc rtp ccc q -2.0
  754         c3     26    ccc     C3    754 -0.04070000  12.010000   ; qtot -24.043112
  755         h1     26    ccc     H5    755 0.04610000   1.008000   ; qtot -23.997012
  756         h1     26    ccc     H6    756 0.04610000   1.008000   ; qtot -23.950912
  757         c3     26    ccc     C2    757 -0.02540000  12.010000   ; qtot -23.976312
  758         hc     26    ccc     H3    758 0.00850000   1.008000   ; qtot -23.967812
  759         hc     26    ccc     H4    759 0.00850000   1.008000   ; qtot -23.959312
  760         c3     26    ccc     C1    760 0.60210000  12.010000   ; qtot -23.357212
  761         h1     26    ccc     H1    761 -0.09250000   1.008000   ; qtot -23.449712
  762         h1     26    ccc     H2    762 -0.09250000   1.008000   ; qtot -23.542212
  763         n3     26    ccc     N1    763 -0.59700000  14.010000   ; qtot -24.139212
  764         c3     26    ccc     C4    764 0.32800000  12.010000   ; qtot -23.811212
  765         h1     26    ccc     H7    765 -0.07120000   1.008000   ; qtot -23.882412
  766         h1     26    ccc     H8    766 -0.07120000   1.008000   ; qtot -23.953612
  767         c3     26    ccc     C5    767 -0.39330000  12.010000   ; qtot -24.346912
  768         hc     26    ccc     H9    768 0.08130000   1.008000   ; qtot -24.265612
  769         hc     26    ccc    H10    769 0.08130000   1.008000   ; qtot -24.184312
  770          c     26    ccc     C6    770 1.08970000  12.010000   ; qtot -23.094612
  771          o     26    ccc     O2    771 -0.96050000  16.000000   ; qtot -24.055112
  772          o     26    ccc     O3    772 -0.96050000  16.000000   ; qtot -25.015612
  773         c3     26    ccc     C7    773 0.32800000  12.010000   ; qtot -24.687612
  774         h1     26    ccc    H11    774 -0.07120000   1.008000   ; qtot -24.758812
  775         h1     26    ccc    H12    775 -0.07120000   1.008000   ; qtot -24.830012
  776         c3     26    ccc     C8    776 -0.39330000  12.010000   ; qtot -25.223312
  777         hc     26    ccc    H13    777 0.08130000   1.008000   ; qtot -25.142012
  778         hc     26    ccc    H14    778 0.08130000   1.008000   ; qtot -25.060712
  779          c     26    ccc     C9    779 1.08970000  12.010000   ; qtot -23.971012
  780          o     26    ccc     O4    780 -0.96050000  16.000000   ; qtot -24.931512
  781          o     26    ccc     O5    781 -0.96050000  16.000000   ; qtot -25.892012
  782         os     26    ccc     O1    782 -0.11060000  16.000000   ; qtot -26.002612
; residue   27 ccc rtp ccc q -2.0
  783         c3     27    ccc     C3    783 -0.04070000  12.010000   ; qtot -26.043312
  784         h1     27    ccc     H5    784 0.04610000   1.008000   ; qtot -25.997212
  785         h1     27    ccc     H6    785 0.04610000   1.008000   ; qtot -25.951112
  786         c3     27    ccc     C2    786 -0.02540000  12.010000   ; qtot -25.976512
  787         hc     27    ccc     H3    787 0.00850000   1.008000   ; qtot -25.968012
  788         hc     27    ccc     H4    788 0.00850000   1.008000   ; qtot -25.959512
  789         c3     27    ccc     C1    789 0.60210000  12.010000   ; qtot -25.357412
  790         h1     27    ccc     H1    790 -0.09250000   1.008000   ; qtot -25.449912
  791         h1     27    ccc     H2    791 -0.09250000   1.008000   ; qtot -25.542412
  792         n3     27    ccc     N1    792 -0.59700000  14.010000   ; qtot -26.139412
  793         c3     27    ccc     C4    793 0.32800000  12.010000   ; qtot -25.811412
  794         h1     27    ccc     H7    794 -0.07120000   1.008000   ; qtot -25.882612
  795         h1     27    ccc     H8    795 -0.07120000   1.008000   ; qtot -25.953812
  796         c3     27    ccc     C5    796 -0.39330000  12.010000   ; qtot -26.347112
  797         hc     27    ccc     H9    797 0.08130000   1.008000   ; qtot -26.265812
  798         hc     27    ccc    H10    798 0.08130000   1.008000   ; qtot -26.184512
  799          c     27    ccc     C6    799 1.08970000  12.010000   ; qtot -25.094812
  800          o     27    ccc     O2    800 -0.96050000  16.000000   ; qtot -26.055312
  801          o     27    ccc     O3    801 -0.96050000  16.000000   ; qtot -27.015812
  802         c3     27    ccc     C7    802 0.32800000  12.010000   ; qtot -26.687812
  803         h1     27    ccc    H11    803 -0.07120000   1.008000   ; qtot -26.759012
  804         h1     27    ccc    H12    804 -0.07120000   1.008000   ; qtot -26.830212
  805         c3     27    ccc     C8    805 -0.39330000  12.010000   ; qtot -27.223512
  806         hc     27    ccc    H13    806 0.08130000   1.008000   ; qtot -27.142212
  807         hc     27    ccc    H14    807 0.08130000   1.008000   ; qtot -27.060912
  808          c     27    ccc     C9    808 1.08970000  12.010000   ; qtot -25.971212
  809          o     27    ccc     O4    809 -0.96050000  16.000000   ; qtot -26.931712
  810          o     27    ccc     O5    810 -0.96050000  16.000000   ; qtot -27.892212
  811         os     27    ccc     O1    811 -0.11060000  16.000000   ; qtot -28.002812
; residue   28 ccc rtp ccc q -2.0
  812         c3     28    ccc     C3    812 -0.04070000  12.010000   ; qtot -28.043512
  813         h1     28    ccc     H5    813 0.04610000   1.008000   ; qtot -27.997412
  814         h1     28    ccc     H6    814 0.04610000   1.008000   ; qtot -27.951312
  815         c3     28    ccc     C2    815 -0.02540000  12.010000   ; qtot -27.976712
  816         hc     28    ccc     H3    816 0.00850000   1.008000   ; qtot -27.968212
  817         hc     28    ccc     H4    817 0.00850000   1.008000   ; qtot -27.959712
  818         c3     28    ccc     C1    818 0.60210000  12.010000   ; qtot -27.357612
  819         h1     28    ccc     H1    819 -0.09250000   1.008000   ; qtot -27.450112
  820         h1     28    ccc     H2    820 -0.09250000   1.008000   ; qtot -27.542612
  821         n3     28    ccc     N1    821 -0.59700000  14.010000   ; qtot -28.139612
  822         c3     28    ccc     C4    822 0.32800000  12.010000   ; qtot -27.811612
  823         h1     28    ccc     H7    823 -0.07120000   1.008000   ; qtot -27.882812
  824         h1     28    ccc     H8    824 -0.07120000   1.008000   ; qtot -27.954012
  825         c3     28    ccc     C5    825 -0.39330000  12.010000   ; qtot -28.347312
  826         hc     28    ccc     H9    826 0.08130000   1.008000   ; qtot -28.266012
  827         hc     28    ccc    H10    827 0.08130000   1.008000   ; qtot -28.184712
  828          c     28    ccc     C6    828 1.08970000  12.010000   ; qtot -27.095012
  829          o     28    ccc     O2    829 -0.96050000  16.000000   ; qtot -28.055512
  830          o     28    ccc     O3    830 -0.96050000  16.000000   ; qtot -29.016012
  831         c3     28    ccc     C7    831 0.32800000  12.010000   ; qtot -28.688012
  832         h1     28    ccc    H11    832 -0.07120000   1.008000   ; qtot -28.759212
  833         h1     28    ccc    H12    833 -0.07120000   1.008000   ; qtot -28.830412
  834         c3     28    ccc     C8    834 -0.39330000  12.010000   ; qtot -29.223712
  835         hc     28    ccc    H13    835 0.08130000   1.008000   ; qtot -29.142412
  836         hc     28    ccc    H14    836 0.08130000   1.008000   ; qtot -29.061112
  837          c     28    ccc     C9    837 1.08970000  12.010000   ; qtot -27.971412
  838          o     28    ccc     O4    838 -0.96050000  16.000000   ; qtot -28.931912
  839          o     28    ccc     O5    839 -0.96050000  16.000000   ; qtot -29.892412
  840         os     28    ccc     O1    840 -0.11060000  16.000000   ; qtot -30.003012
; residue   29 ccc rtp ccc q -2.0
  841         c3     29    ccc     C3    841 -0.04070000  12.010000   ; qtot -30.043712
  842         h1     29    ccc     H5    842 0.04610000   1.008000   ; qtot -29.997612
  843         h1     29    ccc     H6    843 0.04610000   1.008000   ; qtot -29.951512
  844         c3     29    ccc     C2    844 -0.02540000  12.010000   ; qtot -29.976912
  845         hc     29    ccc     H3    845 0.00850000   1.008000   ; qtot -29.968412
  846         hc     29    ccc     H4    846 0.00850000   1.008000   ; qtot -29.959912
  847         c3     29    ccc     C1    847 0.60210000  12.010000   ; qtot -29.357812
  848         h1     29    ccc     H1    848 -0.09250000   1.008000   ; qtot -29.450312
  849         h1     29    ccc     H2    849 -0.09250000   1.008000   ; qtot -29.542812
  850         n3     29    ccc     N1    850 -0.59700000  14.010000   ; qtot -30.139812
  851         c3     29    ccc     C4    851 0.32800000  12.010000   ; qtot -29.811812
  852         h1     29    ccc     H7    852 -0.07120000   1.008000   ; qtot -29.883012
  853         h1     29    ccc     H8    853 -0.07120000   1.008000   ; qtot -29.954212
  854         c3     29    ccc     C5    854 -0.39330000  12.010000   ; qtot -30.347512
  855         hc     29    ccc     H9    855 0.08130000   1.008000   ; qtot -30.266212
  856         hc     29    ccc    H10    856 0.08130000   1.008000   ; qtot -30.184912
  857          c     29    ccc     C6    857 1.08970000  12.010000   ; qtot -29.095212
  858          o     29    ccc     O2    858 -0.96050000  16.000000   ; qtot -30.055712
  859          o     29    ccc     O3    859 -0.96050000  16.000000   ; qtot -31.016212
  860         c3     29    ccc     C7    860 0.32800000  12.010000   ; qtot -30.688212
  861         h1     29    ccc    H11    861 -0.07120000   1.008000   ; qtot -30.759412
  862         h1     29    ccc    H12    862 -0.07120000   1.008000   ; qtot -30.830612
  863         c3     29    ccc     C8    863 -0.39330000  12.010000   ; qtot -31.223912
  864         hc     29    ccc    H13    864 0.08130000   1.008000   ; qtot -31.142612
  865         hc     29    ccc    H14    865 0.08130000   1.008000   ; qtot -31.061312
  866          c     29    ccc     C9    866 1.08970000  12.010000   ; qtot -29.971612
  867          o     29    ccc     O4    867 -0.96050000  16.000000   ; qtot -30.932112
  868          o     29    ccc     O5    868 -0.96050000  16.000000   ; qtot -31.892612
  869         os     29    ccc     O1    869 -0.11060000  16.000000   ; qtot -32.003212

[ bonds ]
;    ai     aj funct         c0         c1         c2         c3
      1      2     1   0.14316 258236.480000
      1      5     1   0.14316 258236.480000
      2      8     1   0.15375 251793.120000
      5     11     1   0.15375 251793.120000
      8     14     1   0.15375 251793.120000
     11     17     1   0.15375 251793.120000
     14     20     1   0.14647 272713.120000
     17     21     1   0.14647 272713.120000
     20     28     1   0.14647 272713.120000
     20     31     1   0.14647 272713.120000
     21     22     1   0.14647 272713.120000
     21     25     1   0.14647 272713.120000
     22     34     1   0.15375 251793.120000
     25     37     1   0.15375 251793.120000
     28     40     1   0.15375 251793.120000
     31     43     1   0.15375 251793.120000
     34     55     1   0.15375 251793.120000
     37     52     1   0.15375 251793.120000
     40     49     1   0.15375 251793.120000
     43     46     1   0.15375 251793.120000
     46     86     1   0.14316 258236.480000
     49    115     1   0.14316 258236.480000
     52    144     1   0.14316 258236.480000
     55    173     1   0.14316 258236.480000
     58     59     1   0.14647 272713.120000
     58     62     1   0.14647 272713.120000
     58     65     1   0.14647 272713.120000
     59     71     1   0.15375 251793.120000
     62     74     1   0.15375 251793.120000
     65     68     1   0.15375 251793.120000
     68     77     1   0.15375 251793.120000
     71     83     1   0.15375 251793.120000
     74     80     1   0.15375 251793.120000
     77     86     1   0.14316 258236.480000
     80    202     1   0.14316 258236.480000
     83    231     1   0.14316 258236.480000
     87     88     1   0.14647 272713.120000
     87     91     1   0.14647 272713.120000
     87     94     1   0.14647 272713.120000
     88    100     1   0.15375 251793.120000
     91    103     1   0.15375 251793.120000
     94     97     1   0.15375 251793.120000
     97    106     1   0.15375 251793.120000
    100    112     1   0.15375 251793.120000
    103    109     1   0.15375 251793.120000
    106    115     1   0.14316 258236.480000
    109    260     1   0.14316 258236.480000
    112    289     1   0.14316 258236.480000
    116    117     1   0.14647 272713.120000
    116    120     1   0.14647 272713.120000
    116    123     1   0.14647 272713.120000
    117    129     1   0.15375 251793.120000
    120    132     1   0.15375 251793.120000
    123    126     1   0.15375 251793.120000
    126    135     1   0.15375 251793.120000
    129    141     1   0.15375 251793.120000
    132    138     1   0.15375 251793.120000
    135    144     1   0.14316 258236.480000
    138    318     1   0.14316 258236.480000
    141    347     1   0.14316 258236.480000
    145    146     1   0.14647 272713.120000
    145    149     1   0.14647 272713.120000
    145    152     1   0.14647 272713.120000
    146    158     1   0.15375 251793.120000
    149    161     1   0.15375 251793.120000
    152    155     1   0.15375 251793.120000
    155    164     1   0.15375 251793.120000
    158    170     1   0.15375 251793.120000
    161    167     1   0.15375 251793.120000
    164    173     1   0.14316 258236.480000
    167    376     1   0.14316 258236.480000
    170    405     1   0.14316 258236.480000
    174    175     1   0.14647 272713.120000
    174    178     1   0.14647 272713.120000
    174    181     1   0.14647 272713.120000
    175    187     1   0.15375 251793.120000
    178    190     1   0.15375 251793.120000
    181    184     1   0.15375 251793.120000
    184    193     1   0.15375 251793.120000
    187    199     1   0.15375 251793.120000
    190    196     1   0.15375 251793.120000
    193    202     1   0.14316 258236.480000
    196    434     1   0.14316 258236.480000
    199    463     1   0.14316 258236.480000
    203    204     1   0.14647 272713.120000
    203    207     1   0.14647 272713.120000
    203    210     1   0.14647 272713.120000
    204    216     1   0.15375 251793.120000
    207    219     1   0.15375 251793.120000
    210    213     1   0.15375 251793.120000
    213    222     1   0.15375 251793.120000
    216    228     1   0.15375 251793.120000
    219    225     1   0.15375 251793.120000
    222    231     1   0.14316 258236.480000
    225    492     1   0.14316 258236.480000
    228    521     1   0.14316 258236.480000
    232    233     1   0.14647 272713.120000
    232    236     1   0.14647 272713.120000
    232    239     1   0.14647 272713.120000
    233    245     1   0.15375 251793.120000
    236    248     1   0.15375 251793.120000
    239    242     1   0.15375 251793.120000
    242    251     1   0.15375 251793.120000
    245    257     1   0.15375 251793.120000
    248    254     1   0.15375 251793.120000
    251    260     1   0.14316 258236.480000
    254    550     1   0.14316 258236.480000
    257    579     1   0.14316 258236.480000
    261    262     1   0.14647 272713.120000
    261    265     1   0.14647 272713.120000
    261    268     1   0.14647 272713.120000
    262    274     1   0.15375 251793.120000
    265    277     1   0.15375 251793.120000
    268    271     1   0.15375 251793.120000
    271    280     1   0.15375 251793.120000
    274    286     1   0.15375 251793.120000
    277    283     1   0.15375 251793.120000
    280    289     1   0.14316 258236.480000
    283    608     1   0.14316 258236.480000
    286    637     1   0.14316 258236.480000
    290    291     1   0.14647 272713.120000
    290    294     1   0.14647 272713.120000
    290    297     1   0.14647 272713.120000
    291    303     1   0.15375 251793.120000
    294    306     1   0.15375 251793.120000
    297    300     1   0.15375 251793.120000
    300    309     1   0.15375 251793.120000
    303    315     1   0.15375 251793.120000
    306    312     1   0.15375 251793.120000
    309    318     1   0.14316 258236.480000
    312    666     1   0.14316 258236.480000
    315    695     1   0.14316 258236.480000
    319    320     1   0.14647 272713.120000
    319    323     1   0.14647 272713.120000
    319    326     1   0.14647 272713.120000
    320    332     1   0.15375 251793.120000
    323    335     1   0.15375 251793.120000
    326    329     1   0.15375 251793.120000
    329    338     1   0.15375 251793.120000
    332    344     1   0.15375 251793.120000
    335    341     1   0.15375 251793.120000
    338    347     1   0.14316 258236.480000
    341    724     1   0.14316 258236.480000
    344    753     1   0.14316 258236.480000
    348    349     1   0.14647 272713.120000
    348    352     1   0.14647 272713.120000
    348    355     1   0.14647 272713.120000
    349    361     1   0.15375 251793.120000
    352    364     1   0.15375 251793.120000
    355    358     1   0.15375 251793.120000
    358    367     1   0.15375 251793.120000
    361    373     1   0.15375 251793.120000
    364    370     1   0.15375 251793.120000
    367    376     1   0.14316 258236.480000
    370    782     1   0.14316 258236.480000
    373    811     1   0.14316 258236.480000
    377    378     1   0.14647 272713.120000
    377    381     1   0.14647 272713.120000
    377    384     1   0.14647 272713.120000
    378    390     1   0.15375 251793.120000
    381    393     1   0.15375 251793.120000
    384    387     1   0.15375 251793.120000
    387    396     1   0.15375 251793.120000
    390    402     1   0.15375 251793.120000
    393    399     1   0.15375 251793.120000
    396    405     1   0.14316 258236.480000
    399    840     1   0.14316 258236.480000
    402    869     1   0.14316 258236.480000
    406    409     1   0.15375 251793.120000
    406    434     1   0.14316 258236.480000
    409    412     1   0.15375 251793.120000
    412    415     1   0.14647 272713.120000
    415    416     1   0.14647 272713.120000
    415    425     1   0.14647 272713.120000
    416    419     1   0.15375 251793.120000
    419    422     1   0.15241 261918.400000
    422    423     1   0.12183 533627.360000
    422    424     1   0.12183 533627.360000
    425    428     1   0.15375 251793.120000
    428    431     1   0.15241 261918.400000
    431    432     1   0.12183 533627.360000
    431    433     1   0.12183 533627.360000
    435    438     1   0.15375 251793.120000
    435    463     1   0.14316 258236.480000
    438    441     1   0.15375 251793.120000
    441    444     1   0.14647 272713.120000
    444    445     1   0.14647 272713.120000
    444    454     1   0.14647 272713.120000
    445    448     1   0.15375 251793.120000
    448    451     1   0.15241 261918.400000
    451    452     1   0.12183 533627.360000
    451    453     1   0.12183 533627.360000
    454    457     1   0.15375 251793.120000
    457    460     1   0.15241 261918.400000
    460    461     1   0.12183 533627.360000
    460    462     1   0.12183 533627.360000
    464    467     1   0.15375 251793.120000
    464    492     1   0.14316 258236.480000
    467    470     1   0.15375 251793.120000
    470    473     1   0.14647 272713.120000
    473    474     1   0.14647 272713.120000
    473    483     1   0.14647 272713.120000
    474    477     1   0.15375 251793.120000
    477    480     1   0.15241 261918.400000
    480    481     1   0.12183 533627.360000
    480    482     1   0.12183 533627.360000
    483    486     1   0.15375 251793.120000
    486    489     1   0.15241 261918.400000
    489    490     1   0.12183 533627.360000
    489    491     1   0.12183 533627.360000
    493    496     1   0.15375 251793.120000
    493    521     1   0.14316 258236.480000
    496    499     1   0.15375 251793.120000
    499    502     1   0.14647 272713.120000
    502    503     1   0.14647 272713.120000
    502    512     1   0.14647 272713.120000
    503    506     1   0.15375 251793.120000
    506    509     1   0.15241 261918.400000
    509    510     1   0.12183 533627.360000
    509    511     1   0.12183 533627.360000
    512    515     1   0.15375 251793.120000
    515    518     1   0.15241 261918.400000
    518    519     1   0.12183 533627.360000
    518    520     1   0.12183 533627.360000
    522    525     1   0.15375 251793.120000
    522    550     1   0.14316 258236.480000
    525    528     1   0.15375 251793.120000
    528    531     1   0.14647 272713.120000
    531    532     1   0.14647 272713.120000
    531    541     1   0.14647 272713.120000
    532    535     1   0.15375 251793.120000
    535    538     1   0.15241 261918.400000
    538    539     1   0.12183 533627.360000
    538    540     1   0.12183 533627.360000
    541    544     1   0.15375 251793.120000
    544    547     1   0.15241 261918.400000
    547    548     1   0.12183 533627.360000
    547    549     1   0.12183 533627.360000
    551    554     1   0.15375 251793.120000
    551    579     1   0.14316 258236.480000
    554    557     1   0.15375 251793.120000
    557    560     1   0.14647 272713.120000
    560    561     1   0.14647 272713.120000
    560    570     1   0.14647 272713.120000
    561    564     1   0.15375 251793.120000
    564    567     1   0.15241 261918.400000
    567    568     1   0.12183 533627.360000
    567    569     1   0.12183 533627.360000
    570    573     1   0.15375 251793.120000
    573    576     1   0.15241 261918.400000
    576    577     1   0.12183 533627.360000
    576    578     1   0.12183 533627.360000
    580    583     1   0.15375 251793.120000
    580    608     1   0.14316 258236.480000
    583    586     1   0.15375 251793.120000
    586    589     1   0.14647 272713.120000
    589    590     1   0.14647 272713.120000
    589    599     1   0.14647 272713.120000
    590    593     1   0.15375 251793.120000
    593    596     1   0.15241 261918.400000
    596    597     1   0.12183 533627.360000
    596    598     1   0.12183 533627.360000
    599    602     1   0.15375 251793.120000
    602    605     1   0.15241 261918.400000
    605    606     1   0.12183 533627.360000
    605    607     1   0.12183 533627.360000
    609    612     1   0.15375 251793.120000
    609    637     1   0.14316 258236.480000
    612    615     1   0.15375 251793.120000
    615    618     1   0.14647 272713.120000
    618    619     1   0.14647 272713.120000
    618    628     1   0.14647 272713.120000
    619    622     1   0.15375 251793.120000
    622    625     1   0.15241 261918.400000
    625    626     1   0.12183 533627.360000
    625    627     1   0.12183 533627.360000
    628    631     1   0.15375 251793.120000
    631    634     1   0.15241 261918.400000
    634    635     1   0.12183 533627.360000
    634    636     1   0.12183 533627.360000
    638    641     1   0.15375 251793.120000
    638    666     1   0.14316 258236.480000
    641    644     1   0.15375 251793.120000
    644    647     1   0.14647 272713.120000
    647    648     1   0.14647 272713.120000
    647    657     1   0.14647 272713.120000
    648    651     1   0.15375 251793.120000
    651    654     1   0.15241 261918.400000
    654    655     1   0.12183 533627.360000
    654    656     1   0.12183 533627.360000
    657    660     1   0.15375 251793.120000
    660    663     1   0.15241 261918.400000
    663    664     1   0.12183 533627.360000
    663    665     1   0.12183 533627.360000
    667    670     1   0.15375 251793.120000
    667    695     1   0.14316 258236.480000
    670    673     1   0.15375 251793.120000
    673    676     1   0.14647 272713.120000
    676    677     1   0.14647 272713.120000
    676    686     1   0.14647 272713.120000
    677    680     1   0.15375 251793.120000
    680    683     1   0.15241 261918.400000
    683    684     1   0.12183 533627.360000
    683    685     1   0.12183 533627.360000
    686    689     1   0.15375 251793.120000
    689    692     1   0.15241 261918.400000
    692    693     1   0.12183 533627.360000
    692    694     1   0.12183 533627.360000
    696    699     1   0.15375 251793.120000
    696    724     1   0.14316 258236.480000
    699    702     1   0.15375 251793.120000
    702    705     1   0.14647 272713.120000
    705    706     1   0.14647 272713.120000
    705    715     1   0.14647 272713.120000
    706    709     1   0.15375 251793.120000
    709    712     1   0.15241 261918.400000
    712    713     1   0.12183 533627.360000
    712    714     1   0.12183 533627.360000
    715    718     1   0.15375 251793.120000
    718    721     1   0.15241 261918.400000
    721    722     1   0.12183 533627.360000
    721    723     1   0.12183 533627.360000
    725    728     1   0.15375 251793.120000
    725    753     1   0.14316 258236.480000
    728    731     1   0.15375 251793.120000
    731    734     1   0.14647 272713.120000
    734    735     1   0.14647 272713.120000
    734    744     1   0.14647 272713.120000
    735    738     1   0.15375 251793.120000
    738    741     1   0.15241 261918.400000
    741    742     1   0.12183 533627.360000
    741    743     1   0.12183 533627.360000
    744    747     1   0.15375 251793.120000
    747    750     1   0.15241 261918.400000
    750    751     1   0.12183 533627.360000
    750    752     1   0.12183 533627.360000
    754    757     1   0.15375 251793.120000
    754    782     1   0.14316 258236.480000
    757    760     1   0.15375 251793.120000
    760    763     1   0.14647 272713.120000
    763    764     1   0.14647 272713.120000
    763    773     1   0.14647 272713.120000
    764    767     1   0.15375 251793.120000
    767    770     1   0.15241 261918.400000
    770    771     1   0.12183 533627.360000
    770    772     1   0.12183 533627.360000
    773    776     1   0.15375 251793.120000
    776    779     1   0.15241 261918.400000
    779    780     1   0.12183 533627.360000
    779    781     1   0.12183 533627.360000
    783    786     1   0.15375 251793.120000
    783    811     1   0.14316 258236.480000
    786    789     1   0.15375 251793.120000
    789    792     1   0.14647 272713.120000
    792    793     1   0.14647 272713.120000
    792    802     1   0.14647 272713.120000
    793    796     1   0.15375 251793.120000
    796    799     1   0.15241 261918.400000
    799    800     1   0.12183 533627.360000
    799    801     1   0.12183 533627.360000
    802    805     1   0.15375 251793.120000
    805    808     1   0.15241 261918.400000
    808    809     1   0.12183 533627.360000
    808    810     1   0.12183 533627.360000
    812    815     1   0.15375 251793.120000
    812    840     1   0.14316 258236.480000
    815    818     1   0.15375 251793.120000
    818    821     1   0.14647 272713.120000
    821    822     1   0.14647 272713.120000
    821    831     1   0.14647 272713.120000
    822    825     1   0.15375 251793.120000
    825    828     1   0.15241 261918.400000
    828    829     1   0.12183 533627.360000
    828    830     1   0.12183 533627.360000
    831    834     1   0.15375 251793.120000
    834    837     1   0.15241 261918.400000
    837    838     1   0.12183 533627.360000
    837    839     1   0.12183 533627.360000
    841    844     1   0.15375 251793.120000
    841    869     1   0.14316 258236.480000
    844    847     1   0.15375 251793.120000
    847    850     1   0.14647 272713.120000
    850    851     1   0.14647 272713.120000
    850    860     1   0.14647 272713.120000
    851    854     1   0.15375 251793.120000
    854    857     1   0.15241 261918.400000
    857    858     1   0.12183 533627.360000
    857    859     1   0.12183 533627.360000
    860    863     1   0.15375 251793.120000
    863    866     1   0.15241 261918.400000
    866    867     1   0.12183 533627.360000
    866    868     1   0.12183 533627.360000
      2      3     1   0.10969 276646.080000
      2      4     1   0.10969 276646.080000
      5      6     1   0.10969 276646.080000
      5      7     1   0.10969 276646.080000
      8      9     1   0.10969 276646.080000
      8     10     1   0.10969 276646.080000
     11     12     1   0.10969 276646.080000
     11     13     1   0.10969 276646.080000
     14     15     1   0.10969 276646.080000
     14     16     1   0.10969 276646.080000
     17     18     1   0.10969 276646.080000
     17     19     1   0.10969 276646.080000
     22     23     1   0.10969 276646.080000
     22     24     1   0.10969 276646.080000
     25     26     1   0.10969 276646.080000
     25     27     1   0.10969 276646.080000
     28     29     1   0.10969 276646.080000
     28     30     1   0.10969 276646.080000
     31     32     1   0.10969 276646.080000
     31     33     1   0.10969 276646.080000
     34     35     1   0.10969 276646.080000
     34     36     1   0.10969 276646.080000
     37     38     1   0.10969 276646.080000
     37     39     1   0.10969 276646.080000
     40     41     1   0.10969 276646.080000
     40     42     1   0.10969 276646.080000
     43     44     1   0.10969 276646.080000
     43     45     1   0.10969 276646.080000
     46     47     1   0.10969 276646.080000
     46     48     1   0.10969 276646.080000
     49     50     1   0.10969 276646.080000
     49     51     1   0.10969 276646.080000
     52     53     1   0.10969 276646.080000
     52     54     1   0.10969 276646.080000
     55     56     1   0.10969 276646.080000
     55     57     1   0.10969 276646.080000
     59     60     1   0.10969 276646.080000
     59     61     1   0.10969 276646.080000
     62     63     1   0.10969 276646.080000
     62     64     1   0.10969 276646.080000
     65     66     1   0.10969 276646.080000
     65     67     1   0.10969 276646.080000
     68     69     1   0.10969 276646.080000
     68     70     1   0.10969 276646.080000
     71     72     1   0.10969 276646.080000
     71     73     1   0.10969 276646.080000
     74     75     1   0.10969 276646.080000
     74     76     1   0.10969 276646.080000
     77     78     1   0.10969 276646.080000
     77     79     1   0.10969 276646.080000
     80     81     1   0.10969 276646.080000
     80     82     1   0.10969 276646.080000
     83     84     1   0.10969 276646.080000
     83     85     1   0.10969 276646.080000
     88     89     1   0.10969 276646.080000
     88     90     1   0.10969 276646.080000
     91     92     1   0.10969 276646.080000
     91     93     1   0.10969 276646.080000
     94     95     1   0.10969 276646.080000
     94     96     1   0.10969 276646.080000
     97     98     1   0.10969 276646.080000
     97     99     1   0.10969 276646.080000
    100    101     1   0.10969 276646.080000
    100    102     1   0.10969 276646.080000
    103    104     1   0.10969 276646.080000
    103    105     1   0.10969 276646.080000
    106    107     1   0.10969 276646.080000
    106    108     1   0.10969 276646.080000
    109    110     1   0.10969 276646.080000
    109    111     1   0.10969 276646.080000
    112    113     1   0.10969 276646.080000
    112    114     1   0.10969 276646.080000
    117    118     1   0.10969 276646.080000
    117    119     1   0.10969 276646.080000
    120    121     1   0.10969 276646.080000
    120    122     1   0.10969 276646.080000
    123    124     1   0.10969 276646.080000
    123    125     1   0.10969 276646.080000
    126    127     1   0.10969 276646.080000
    126    128     1   0.10969 276646.080000
    129    130     1   0.10969 276646.080000
    129    131     1   0.10969 276646.080000
    132    133     1   0.10969 276646.080000
    132    134     1   0.10969 276646.080000
    135    136     1   0.10969 276646.080000
    135    137     1   0.10969 276646.080000
    138    139     1   0.10969 276646.080000
    138    140     1   0.10969 276646.080000
    141    142     1   0.10969 276646.080000
    141    143     1   0.10969 276646.080000
    146    147     1   0.10969 276646.080000
    146    148     1   0.10969 276646.080000
    149    150     1   0.10969 276646.080000
    149    151     1   0.10969 276646.080000
    152    153     1   0.10969 276646.080000
    152    154     1   0.10969 276646.080000
    155    156     1   0.10969 276646.080000
    155    157     1   0.10969 276646.080000
    158    159     1   0.10969 276646.080000
    158    160     1   0.10969 276646.080000
    161    162     1   0.10969 276646.080000
    161    163     1   0.10969 276646.080000
    164    165     1   0.10969 276646.080000
    164    166     1   0.10969 276646.080000
    167    168     1   0.10969 276646.080000
    167    169     1   0.10969 276646.080000
    170    171     1   0.10969 276646.080000
    170    172     1   0.10969 276646.080000
    175    176     1   0.10969 276646.080000
    175    177     1   0.10969 276646.080000
    178    179     1   0.10969 276646.080000
    178    180     1   0.10969 276646.080000
    181    182     1   0.10969 276646.080000
    181    183     1   0.10969 276646.080000
    184    185     1   0.10969 276646.080000
    184    186     1   0.10969 276646.080000
    187    188     1   0.10969 276646.080000
    187    189     1   0.10969 276646.080000
    190    191     1   0.10969 276646.080000
    190    192     1   0.10969 276646.080000
    193    194     1   0.10969 276646.080000
    193    195     1   0.10969 276646.080000
    196    197     1   0.10969 276646.080000
    196    198     1   0.10969 276646.080000
    199    200     1   0.10969 276646.080000
    199    201     1   0.10969 276646.080000
    204    205     1   0.10969 276646.080000
    204    206     1   0.10969 276646.080000
    207    208     1   0.10969 276646.080000
    207    209     1   0.10969 276646.080000
    210    211     1   0.10969 276646.080000
    210    212     1   0.10969 276646.080000
    213    214     1   0.10969 276646.080000
    213    215     1   0.10969 276646.080000
    216    217     1   0.10969 276646.080000
    216    218     1   0.10969 276646.080000
    219    220     1   0.10969 276646.080000
    219    221     1   0.10969 276646.080000
    222    223     1   0.10969 276646.080000
    222    224     1   0.10969 276646.080000
    225    226     1   0.10969 276646.080000
    225    227     1   0.10969 276646.080000
    228    229     1   0.10969 276646.080000
    228    230     1   0.10969 276646.080000
    233    234     1   0.10969 276646.080000
    233    235     1   0.10969 276646.080000
    236    237     1   0.10969 276646.080000
    236    238     1   0.10969 276646.080000
    239    240     1   0.10969 276646.080000
    239    241     1   0.10969 276646.080000
    242    243     1   0.10969 276646.080000
    242    244     1   0.10969 276646.080000
    245    246     1   0.10969 276646.080000
    245    247     1   0.10969 276646.080000
    248    249     1   0.10969 276646.080000
    248    250     1   0.10969 276646.080000
    251    252     1   0.10969 276646.080000
    251    253     1   0.10969 276646.080000
    254    255     1   0.10969 276646.080000
    254    256     1   0.10969 276646.080000
    257    258     1   0.10969 276646.080000
    257    259     1   0.10969 276646.080000
    262    263     1   0.10969 276646.080000
    262    264     1   0.10969 276646.080000
    265    266     1   0.10969 276646.080000
    265    267     1   0.10969 276646.080000
    268    269     1   0.10969 276646.080000
    268    270     1   0.10969 276646.080000
    271    272     1   0.10969 276646.080000
    271    273     1   0.10969 276646.080000
    274    275     1   0.10969 276646.080000
    274    276     1   0.10969 276646.080000
    277    278     1   0.10969 276646.080000
    277    279     1   0.10969 276646.080000
    280    281     1   0.10969 276646.080000
    280    282     1   0.10969 276646.080000
    283    284     1   0.10969 276646.080000
    283    285     1   0.10969 276646.080000
    286    287     1   0.10969 276646.080000
    286    288     1   0.10969 276646.080000
    291    292     1   0.10969 276646.080000
    291    293     1   0.10969 276646.080000
    294    295     1   0.10969 276646.080000
    294    296     1   0.10969 276646.080000
    297    298     1   0.10969 276646.080000
    297    299     1   0.10969 276646.080000
    300    301     1   0.10969 276646.080000
    300    302     1   0.10969 276646.080000
    303    304     1   0.10969 276646.080000
    303    305     1   0.10969 276646.080000
    306    307     1   0.10969 276646.080000
    306    308     1   0.10969 276646.080000
    309    310     1   0.10969 276646.080000
    309    311     1   0.10969 276646.080000
    312    313     1   0.10969 276646.080000
    312    314     1   0.10969 276646.080000
    315    316     1   0.10969 276646.080000
    315    317     1   0.10969 276646.080000
    320    321     1   0.10969 276646.080000
    320    322     1   0.10969 276646.080000
    323    324     1   0.10969 276646.080000
    323    325     1   0.10969 276646.080000
    326    327     1   0.10969 276646.080000
    326    328     1   0.10969 276646.080000
    329    330     1   0.10969 276646.080000
    329    331     1   0.10969 276646.080000
    332    333     1   0.10969 276646.080000
    332    334     1   0.10969 276646.080000
    335    336     1   0.10969 276646.080000
    335    337     1   0.10969 276646.080000
    338    339     1   0.10969 276646.080000
    338    340     1   0.10969 276646.080000
    341    342     1   0.10969 276646.080000
    341    343     1   0.10969 276646.080000
    344    345     1   0.10969 276646.080000
    344    346     1   0.10969 276646.080000
    349    350     1   0.10969 276646.080000
    349    351     1   0.10969 276646.080000
    352    353     1   0.10969 276646.080000
    352    354     1   0.10969 276646.080000
    355    356     1   0.10969 276646.080000
    355    357     1   0.10969 276646.080000
    358    359     1   0.10969 276646.080000
    358    360     1   0.10969 276646.080000
    361    362     1   0.10969 276646.080000
    361    363     1   0.10969 276646.080000
    364    365     1   0.10969 276646.080000
    364    366     1   0.10969 276646.080000
    367    368     1   0.10969 276646.080000
    367    369     1   0.10969 276646.080000
    370    371     1   0.10969 276646.080000
    370    372     1   0.10969 276646.080000
    373    374     1   0.10969 276646.080000
    373    375     1   0.10969 276646.080000
    378    379     1   0.10969 276646.080000
    378    380     1   0.10969 276646.080000
    381    382     1   0.10969 276646.080000
    381    383     1   0.10969 276646.080000
    384    385     1   0.10969 276646.080000
    384    386     1   0.10969 276646.080000
    387    388     1   0.10969 276646.080000
    387    389     1   0.10969 276646.080000
    390    391     1   0.10969 276646.080000
    390    392     1   0.10969 276646.080000
    393    394     1   0.10969 276646.080000
    393    395     1   0.10969 276646.080000
    396    397     1   0.10969 276646.080000
    396    398     1   0.10969 276646.080000
    399    400     1   0.10969 276646.080000
    399    401     1   0.10969 276646.080000
    402    403     1   0.10969 276646.080000
    402    404     1   0.10969 276646.080000
    406    407     1   0.10969 276646.080000
    406    408     1   0.10969 276646.080000
    409    410     1   0.10969 276646.080000
    409    411     1   0.10969 276646.080000
    412    413     1   0.10969 276646.080000
    412    414     1   0.10969 276646.080000
    416    417     1   0.10969 276646.080000
    416    418     1   0.10969 276646.080000
    419    420     1   0.10969 276646.080000
    419    421     1   0.10969 276646.080000
    425    426     1   0.10969 276646.080000
    425    427     1   0.10969 276646.080000
    428    429     1   0.10969 276646.080000
    428    430     1   0.10969 276646.080000
    435    436     1   0.10969 276646.080000
    435    437     1   0.10969 276646.080000
    438    439     1   0.10969 276646.080000
    438    440     1   0.10969 276646.080000
    441    442     1   0.10969 276646.080000
    441    443     1   0.10969 276646.080000
    445    446     1   0.10969 276646.080000
    445    447     1   0.10969 276646.080000
    448    449     1   0.10969 276646.080000
    448    450     1   0.10969 276646.080000
    454    455     1   0.10969 276646.080000
    454    456     1   0.10969 276646.080000
    457    458     1   0.10969 276646.080000
    457    459     1   0.10969 276646.080000
    464    465     1   0.10969 276646.080000
    464    466     1   0.10969 276646.080000
    467    468     1   0.10969 276646.080000
    467    469     1   0.10969 276646.080000
    470    471     1   0.10969 276646.080000
    470    472     1   0.10969 276646.080000
    474    475     1   0.10969 276646.080000
    474    476     1   0.10969 276646.080000
    477    478     1   0.10969 276646.080000
    477    479     1   0.10969 276646.080000
    483    484     1   0.10969 276646.080000
    483    485     1   0.10969 276646.080000
    486    487     1   0.10969 276646.080000
    486    488     1   0.10969 276646.080000
    493    494     1   0.10969 276646.080000
    493    495     1   0.10969 276646.080000
    496    497     1   0.10969 276646.080000
    496    498     1   0.10969 276646.080000
    499    500     1   0.10969 276646.080000
    499    501     1   0.10969 276646.080000
    503    504     1   0.10969 276646.080000
    503    505     1   0.10969 276646.080000
    506    507     1   0.10969 276646.080000
    506    508     1   0.10969 276646.080000
    512    513     1   0.10969 276646.080000
    512    514     1   0.10969 276646.080000
    515    516     1   0.10969 276646.080000
    515    517     1   0.10969 276646.080000
    522    523     1   0.10969 276646.080000
    522    524     1   0.10969 276646.080000
    525    526     1   0.10969 276646.080000
    525    527     1   0.10969 276646.080000
    528    529     1   0.10969 276646.080000
    528    530     1   0.10969 276646.080000
    532    533     1   0.10969 276646.080000
    532    534     1   0.10969 276646.080000
    535    536     1   0.10969 276646.080000
    535    537     1   0.10969 276646.080000
    541    542     1   0.10969 276646.080000
    541    543     1   0.10969 276646.080000
    544    545     1   0.10969 276646.080000
    544    546     1   0.10969 276646.080000
    551    552     1   0.10969 276646.080000
    551    553     1   0.10969 276646.080000
    554    555     1   0.10969 276646.080000
    554    556     1   0.10969 276646.080000
    557    558     1   0.10969 276646.080000
    557    559     1   0.10969 276646.080000
    561    562     1   0.10969 276646.080000
    561    563     1   0.10969 276646.080000
    564    565     1   0.10969 276646.080000
    564    566     1   0.10969 276646.080000
    570    571     1   0.10969 276646.080000
    570    572     1   0.10969 276646.080000
    573    574     1   0.10969 276646.080000
    573    575     1   0.10969 276646.080000
    580    581     1   0.10969 276646.080000
    580    582     1   0.10969 276646.080000
    583    584     1   0.10969 276646.080000
    583    585     1   0.10969 276646.080000
    586    587     1   0.10969 276646.080000
    586    588     1   0.10969 276646.080000
    590    591     1   0.10969 276646.080000
    590    592     1   0.10969 276646.080000
    593    594     1   0.10969 276646.080000
    593    595     1   0.10969 276646.080000
    599    600     1   0.10969 276646.080000
    599    601     1   0.10969 276646.080000
    602    603     1   0.10969 276646.080000
    602    604     1   0.10969 276646.080000
    609    610     1   0.10969 276646.080000
    609    611     1   0.10969 276646.080000
    612    613     1   0.10969 276646.080000
    612    614     1   0.10969 276646.080000
    615    616     1   0.10969 276646.080000
    615    617     1   0.10969 276646.080000
    619    620     1   0.10969 276646.080000
    619    621     1   0.10969 276646.080000
    622    623     1   0.10969 276646.080000
    622    624     1   0.10969 276646.080000
    628    629     1   0.10969 276646.080000
    628    630     1   0.10969 276646.080000
    631    632     1   0.10969 276646.080000
    631    633     1   0.10969 276646.080000
    638    639     1   0.10969 276646.080000
    638    640     1   0.10969 276646.080000
    641    642     1   0.10969 276646.080000
    641    643     1   0.10969 276646.080000
    644    645     1   0.10969 276646.080000
    644    646     1   0.10969 276646.080000
    648    649     1   0.10969 276646.080000
    648    650     1   0.10969 276646.080000
    651    652     1   0.10969 276646.080000
    651    653     1   0.10969 276646.080000
    657    658     1   0.10969 276646.080000
    657    659     1   0.10969 276646.080000
    660    661     1   0.10969 276646.080000
    660    662     1   0.10969 276646.080000
    667    668     1   0.10969 276646.080000
    667    669     1   0.10969 276646.080000
    670    671     1   0.10969 276646.080000
    670    672     1   0.10969 276646.080000
    673    674     1   0.10969 276646.080000
    673    675     1   0.10969 276646.080000
    677    678     1   0.10969 276646.080000
    677    679     1   0.10969 276646.080000
    680    681     1   0.10969 276646.080000
    680    682     1   0.10969 276646.080000
    686    687     1   0.10969 276646.080000
    686    688     1   0.10969 276646.080000
    689    690     1   0.10969 276646.080000
    689    691     1   0.10969 276646.080000
    696    697     1   0.10969 276646.080000
    696    698     1   0.10969 276646.080000
    699    700     1   0.10969 276646.080000
    699    701     1   0.10969 276646.080000
    702    703     1   0.10969 276646.080000
    702    704     1   0.10969 276646.080000
    706    707     1   0.10969 276646.080000
    706    708     1   0.10969 276646.080000
    709    710     1   0.10969 276646.080000
    709    711     1   0.10969 276646.080000
    715    716     1   0.10969 276646.080000
    715    717     1   0.10969 276646.080000
    718    719     1   0.10969 276646.080000
    718    720     1   0.10969 276646.080000
    725    726     1   0.10969 276646.080000
    725    727     1   0.10969 276646.080000
    728    729     1   0.10969 276646.080000
    728    730     1   0.10969 276646.080000
    731    732     1   0.10969 276646.080000
    731    733     1   0.10969 276646.080000
    735    736     1   0.10969 276646.080000
    735    737     1   0.10969 276646.080000
    738    739     1   0.10969 276646.080000
    738    740     1   0.10969 276646.080000
    744    745     1   0.10969 276646.080000
    744    746     1   0.10969 276646.080000
    747    748     1   0.10969 276646.080000
    747    749     1   0.10969 276646.080000
    754    755     1   0.10969 276646.080000
    754    756     1   0.10969 276646.080000
    757    758     1   0.10969 276646.080000
    757    759     1   0.10969 276646.080000
    760    761     1   0.10969 276646.080000
    760    762     1   0.10969 276646.080000
    764    765     1   0.10969 276646.080000
    764    766     1   0.10969 276646.080000
    767    768     1   0.10969 276646.080000
    767    769     1   0.10969 276646.080000
    773    774     1   0.10969 276646.080000
    773    775     1   0.10969 276646.080000
    776    777     1   0.10969 276646.080000
    776    778     1   0.10969 276646.080000
    783    784     1   0.10969 276646.080000
    783    785     1   0.10969 276646.080000
    786    787     1   0.10969 276646.080000
    786    788     1   0.10969 276646.080000
    789    790     1   0.10969 276646.080000
    789    791     1   0.10969 276646.080000
    793    794     1   0.10969 276646.080000
    793    795     1   0.10969 276646.080000
    796    797     1   0.10969 276646.080000
    796    798     1   0.10969 276646.080000
    802    803     1   0.10969 276646.080000
    802    804     1   0.10969 276646.080000
    805    806     1   0.10969 276646.080000
    805    807     1   0.10969 276646.080000
    812    813     1   0.10969 276646.080000
    812    814     1   0.10969 276646.080000
    815    816     1   0.10969 276646.080000
    815    817     1   0.10969 276646.080000
    818    819     1   0.10969 276646.080000
    818    820     1   0.10969 276646.080000
    822    823     1   0.10969 276646.080000
    822    824     1   0.10969 276646.080000
    825    826     1   0.10969 276646.080000
    825    827     1   0.10969 276646.080000
    831    832     1   0.10969 276646.080000
    831    833     1   0.10969 276646.080000
    834    835     1   0.10969 276646.080000
    834    836     1   0.10969 276646.080000
    841    842     1   0.10969 276646.080000
    841    843     1   0.10969 276646.080000
    844    845     1   0.10969 276646.080000
    844    846     1   0.10969 276646.080000
    847    848     1   0.10969 276646.080000
    847    849     1   0.10969 276646.080000
    851    852     1   0.10969 276646.080000
    851    853     1   0.10969 276646.080000
    854    855     1   0.10969 276646.080000
    854    856     1   0.10969 276646.080000
    860    861     1   0.10969 276646.080000
    860    862     1   0.10969 276646.080000
    863    864     1   0.10969 276646.080000
    863    865     1   0.10969 276646.080000

[ pairs ]
;    ai     aj funct         c0         c1         c2         c3
      1     14     1
      1     17     1
      2     11     1
      2     20     1
      5      8     1
      5     21     1
      8     28     1
      8     31     1
     11     22     1
     11     25     1
     14     40     1
     14     43     1
     17     34     1
     17     37     1
     20     49     1
     20     46     1
     21     55     1
     21     52     1
     22     37     1
     22    173     1
     25     34     1
     25    144     1
     28     43     1
     28    115     1
     31     40     1
     31     86     1
     34    164     1
     37    135     1
     40    106     1
     43     77     1
     46     68     1
     49     97     1
     52    126     1
     55    155     1
     58     83     1
     58     80     1
     58     77     1
     59     74     1
     59     68     1
     59    231     1
     62     71     1
     62     68     1
     62    202     1
     65     71     1
     65     74     1
     65     86     1
     71    222     1
     74    193     1
     80    184     1
     83    213     1
     87    112     1
     87    109     1
     87    106     1
     88    103     1
     88     97     1
     88    289     1
     91    100     1
     91     97     1
     91    260     1
     94    100     1
     94    103     1
     94    115     1
    100    280     1
    103    251     1
    109    242     1
    112    271     1
    116    141     1
    116    138     1
    116    135     1
    117    132     1
    117    126     1
    117    347     1
    120    129     1
    120    126     1
    120    318     1
    123    129     1
    123    132     1
    123    144     1
    129    338     1
    132    309     1
    138    300     1
    141    329     1
    145    170     1
    145    167     1
    145    164     1
    146    161     1
    146    155     1
    146    405     1
    149    158     1
    149    155     1
    149    376     1
    152    158     1
    152    161     1
    152    173     1
    158    396     1
    161    367     1
    167    358     1
    170    387     1
    174    199     1
    174    196     1
    174    193     1
    175    190     1
    175    184     1
    175    463     1
    178    187     1
    178    184     1
    178    434     1
    181    187     1
    181    190     1
    181    202     1
    187    435     1
    190    406     1
    196    409     1
    199    438     1
    203    228     1
    203    225     1
    203    222     1
    204    219     1
    204    213     1
    204    521     1
    207    216     1
    207    213     1
    207    492     1
    210    216     1
    210    219     1
    210    231     1
    216    493     1
    219    464     1
    225    467     1
    228    496     1
    232    257     1
    232    254     1
    232    251     1
    233    248     1
    233    242     1
    233    579     1
    236    245     1
    236    242     1
    236    550     1
    239    245     1
    239    248     1
    239    260     1
    245    551     1
    248    522     1
    254    525     1
    257    554     1
    261    286     1
    261    283     1
    261    280     1
    262    277     1
    262    271     1
    262    637     1
    265    274     1
    265    271     1
    265    608     1
    268    274     1
    268    277     1
    268    289     1
    274    609     1
    277    580     1
    283    583     1
    286    612     1
    290    315     1
    290    312     1
    290    309     1
    291    306     1
    291    300     1
    291    695     1
    294    303     1
    294    300     1
    294    666     1
    297    303     1
    297    306     1
    297    318     1
    303    667     1
    306    638     1
    312    641     1
    315    670     1
    319    344     1
    319    341     1
    319    338     1
    320    335     1
    320    329     1
    320    753     1
    323    332     1
    323    329     1
    323    724     1
    326    332     1
    326    335     1
    326    347     1
    332    725     1
    335    696     1
    341    699     1
    344    728     1
    348    373     1
    348    370     1
    348    367     1
    349    364     1
    349    358     1
    349    811     1
    352    361     1
    352    358     1
    352    782     1
    355    361     1
    355    364     1
    355    376     1
    361    783     1
    364    754     1
    370    757     1
    373    786     1
    377    402     1
    377    399     1
    377    396     1
    378    393     1
    378    387     1
    378    869     1
    381    390     1
    381    387     1
    381    840     1
    384    390     1
    384    393     1
    384    405     1
    390    841     1
    393    812     1
    399    815     1
    402    844     1
    406    415     1
    409    416     1
    409    425     1
    412    434     1
    412    419     1
    412    428     1
    415    422     1
    415    431     1
    416    428     1
    416    423     1
    416    424     1
    419    425     1
    425    432     1
    425    433     1
    435    444     1
    438    445     1
    438    454     1
    441    448     1
    441    457     1
    441    463     1
    444    451     1
    444    460     1
    445    452     1
    445    453     1
    445    457     1
    448    454     1
    454    461     1
    454    462     1
    464    473     1
    467    474     1
    467    483     1
    470    492     1
    470    477     1
    470    486     1
    473    480     1
    473    489     1
    474    486     1
    474    481     1
    474    482     1
    477    483     1
    483    490     1
    483    491     1
    493    502     1
    496    503     1
    496    512     1
    499    506     1
    499    515     1
    499    521     1
    502    509     1
    502    518     1
    503    510     1
    503    511     1
    503    515     1
    506    512     1
    512    519     1
    512    520     1
    522    531     1
    525    532     1
    525    541     1
    528    550     1
    528    535     1
    528    544     1
    531    538     1
    531    547     1
    532    544     1
    532    539     1
    532    540     1
    535    541     1
    541    548     1
    541    549     1
    551    560     1
    554    561     1
    554    570     1
    557    564     1
    557    573     1
    557    579     1
    560    567     1
    560    576     1
    561    568     1
    561    569     1
    561    573     1
    564    570     1
    570    577     1
    570    578     1
    580    589     1
    583    590     1
    583    599     1
    586    608     1
    586    593     1
    586    602     1
    589    596     1
    589    605     1
    590    602     1
    590    597     1
    590    598     1
    593    599     1
    599    606     1
    599    607     1
    609    618     1
    612    619     1
    612    628     1
    615    622     1
    615    631     1
    615    637     1
    618    625     1
    618    634     1
    619    626     1
    619    627     1
    619    631     1
    622    628     1
    628    635     1
    628    636     1
    638    647     1
    641    648     1
    641    657     1
    644    666     1
    644    651     1
    644    660     1
    647    654     1
    647    663     1
    648    660     1
    648    655     1
    648    656     1
    651    657     1
    657    664     1
    657    665     1
    667    676     1
    670    677     1
    670    686     1
    673    680     1
    673    689     1
    673    695     1
    676    683     1
    676    692     1
    677    684     1
    677    685     1
    677    689     1
    680    686     1
    686    693     1
    686    694     1
    696    705     1
    699    706     1
    699    715     1
    702    724     1
    702    709     1
    702    718     1
    705    712     1
    705    721     1
    706    718     1
    706    713     1
    706    714     1
    709    715     1
    715    722     1
    715    723     1
    725    734     1
    728    735     1
    728    744     1
    731    738     1
    731    747     1
    731    753     1
    734    741     1
    734    750     1
    735    742     1
    735    743     1
    735    747     1
    738    744     1
    744    751     1
    744    752     1
    754    763     1
    757    764     1
    757    773     1
    760    782     1
    760    767     1
    760    776     1
    763    770     1
    763    779     1
    764    776     1
    764    771     1
    764    772     1
    767    773     1
    773    780     1
    773    781     1
    783    792     1
    786    793     1
    786    802     1
    789    796     1
    789    805     1
    789    811     1
    792    799     1
    792    808     1
    793    800     1
    793    801     1
    793    805     1
    796    802     1
    802    809     1
    802    810     1
    812    821     1
    815    822     1
    815    831     1
    818    840     1
    818    825     1
    818    834     1
    821    828     1
    821    837     1
    822    834     1
    822    829     1
    822    830     1
    825    831     1
    831    838     1
    831    839     1
    841    850     1
    844    851     1
    844    860     1
    847    854     1
    847    863     1
    847    869     1
    850    857     1
    850    866     1
    851    858     1
    851    859     1
    851    863     1
    854    860     1
    860    867     1
    860    868     1
      1      9     1
      1     10     1
      1     12     1
      1     13     1
      2      6     1
      2      7     1
      2     15     1
      2     16     1
      5      3     1
      3     14     1
      3      9     1
      3     10     1
      5      4     1
      4     14     1
      4      9     1
      4     10     1
      5     18     1
      5     19     1
      6     17     1
      6     12     1
      6     13     1
      7     17     1
      7     12     1
      7     13     1
      9     20     1
      9     15     1
      9     16     1
     10     20     1
     10     15     1
     10     16     1
     12     21     1
     12     18     1
     12     19     1
     13     21     1
     13     18     1
     13     19     1
     14     29     1
     14     30     1
     14     32     1
     14     33     1
     15     28     1
     15     31     1
     16     28     1
     16     31     1
     17     23     1
     17     24     1
     17     26     1
     17     27     1
     18     22     1
     18     25     1
     19     22     1
     19     25     1
     20     41     1
     20     42     1
     20     44     1
     20     45     1
     21     35     1
     21     36     1
     21     38     1
     21     39     1
     22     26     1
     22     27     1
     22     56     1
     22     57     1
     23     25     1
     23     55     1
     23     35     1
     23     36     1
     24     25     1
     24     55     1
     24     35     1
     24     36     1
     25     53     1
     25     54     1
     26     52     1
     26     38     1
     26     39     1
     27     52     1
     27     38     1
     27     39     1
     28     32     1
     28     33     1
     28     50     1
     28     51     1
     29     31     1
     29     49     1
     29     41     1
     29     42     1
     30     31     1
     30     49     1
     30     41     1
     30     42     1
     31     47     1
     31     48     1
     32     46     1
     32     44     1
     32     45     1
     33     46     1
     33     44     1
     33     45     1
     35    173     1
     35     56     1
     35     57     1
     36    173     1
     36     56     1
     36     57     1
     38    144     1
     38     53     1
     38     54     1
     39    144     1
     39     53     1
     39     54     1
     41    115     1
     41     50     1
     41     51     1
     42    115     1
     42     50     1
     42     51     1
     44     86     1
     44     47     1
     44     48     1
     45     86     1
     45     47     1
     45     48     1
     46     78     1
     46     79     1
     47     77     1
     48     77     1
     49    107     1
     49    108     1
     50    106     1
     51    106     1
     52    136     1
     52    137     1
     53    135     1
     54    135     1
     55    165     1
     55    166     1
     56    164     1
     57    164     1
     58     72     1
     58     73     1
     58     75     1
     58     76     1
     58     69     1
     58     70     1
     59     63     1
     59     64     1
     59     66     1
     59     67     1
     59     84     1
     59     85     1
     60     62     1
     60     65     1
     60     83     1
     60     72     1
     60     73     1
     61     62     1
     61     65     1
     61     83     1
     61     72     1
     61     73     1
     62     66     1
     62     67     1
     62     81     1
     62     82     1
     63     65     1
     63     80     1
     63     75     1
     63     76     1
     64     65     1
     64     80     1
     64     75     1
     64     76     1
     65     78     1
     65     79     1
     66     77     1
     66     69     1
     66     70     1
     67     77     1
     67     69     1
     67     70     1
     69     86     1
     69     78     1
     69     79     1
     70     86     1
     70     78     1
     70     79     1
     72    231     1
     72     84     1
     72     85     1
     73    231     1
     73     84     1
     73     85     1
     75    202     1
     75     81     1
     75     82     1
     76    202     1
     76     81     1
     76     82     1
     80    194     1
     80    195     1
     81    193     1
     82    193     1
     83    223     1
     83    224     1
     84    222     1
     85    222     1
     87    101     1
     87    102     1
     87    104     1
     87    105     1
     87     98     1
     87     99     1
     88     92     1
     88     93     1
     88     95     1
     88     96     1
     88    113     1
     88    114     1
     89     91     1
     89     94     1
     89    112     1
     89    101     1
     89    102     1
     90     91     1
     90     94     1
     90    112     1
     90    101     1
     90    102     1
     91     95     1
     91     96     1
     91    110     1
     91    111     1
     92     94     1
     92    109     1
     92    104     1
     92    105     1
     93     94     1
     93    109     1
     93    104     1
     93    105     1
     94    107     1
     94    108     1
     95    106     1
     95     98     1
     95     99     1
     96    106     1
     96     98     1
     96     99     1
     98    115     1
     98    107     1
     98    108     1
     99    115     1
     99    107     1
     99    108     1
    101    289     1
    101    113     1
    101    114     1
    102    289     1
    102    113     1
    102    114     1
    104    260     1
    104    110     1
    104    111     1
    105    260     1
    105    110     1
    105    111     1
    109    252     1
    109    253     1
    110    251     1
    111    251     1
    112    281     1
    112    282     1
    113    280     1
    114    280     1
    116    130     1
    116    131     1
    116    133     1
    116    134     1
    116    127     1
    116    128     1
    117    121     1
    117    122     1
    117    124     1
    117    125     1
    117    142     1
    117    143     1
    118    120     1
    118    123     1
    118    141     1
    118    130     1
    118    131     1
    119    120     1
    119    123     1
    119    141     1
    119    130     1
    119    131     1
    120    124     1
    120    125     1
    120    139     1
    120    140     1
    121    123     1
    121    138     1
    121    133     1
    121    134     1
    122    123     1
    122    138     1
    122    133     1
    122    134     1
    123    136     1
    123    137     1
    124    135     1
    124    127     1
    124    128     1
    125    135     1
    125    127     1
    125    128     1
    127    144     1
    127    136     1
    127    137     1
    128    144     1
    128    136     1
    128    137     1
    130    347     1
    130    142     1
    130    143     1
    131    347     1
    131    142     1
    131    143     1
    133    318     1
    133    139     1
    133    140     1
    134    318     1
    134    139     1
    134    140     1
    138    310     1
    138    311     1
    139    309     1
    140    309     1
    141    339     1
    141    340     1
    142    338     1
    143    338     1
    145    159     1
    145    160     1
    145    162     1
    145    163     1
    145    156     1
    145    157     1
    146    150     1
    146    151     1
    146    153     1
    146    154     1
    146    171     1
    146    172     1
    147    149     1
    147    152     1
    147    170     1
    147    159     1
    147    160     1
    148    149     1
    148    152     1
    148    170     1
    148    159     1
    148    160     1
    149    153     1
    149    154     1
    149    168     1
    149    169     1
    150    152     1
    150    167     1
    150    162     1
    150    163     1
    151    152     1
    151    167     1
    151    162     1
    151    163     1
    152    165     1
    152    166     1
    153    164     1
    153    156     1
    153    157     1
    154    164     1
    154    156     1
    154    157     1
    156    173     1
    156    165     1
    156    166     1
    157    173     1
    157    165     1
    157    166     1
    159    405     1
    159    171     1
    159    172     1
    160    405     1
    160    171     1
    160    172     1
    162    376     1
    162    168     1
    162    169     1
    163    376     1
    163    168     1
    163    169     1
    167    368     1
    167    369     1
    168    367     1
    169    367     1
    170    397     1
    170    398     1
    171    396     1
    172    396     1
    174    188     1
    174    189     1
    174    191     1
    174    192     1
    174    185     1
    174    186     1
    175    179     1
    175    180     1
    175    182     1
    175    183     1
    175    200     1
    175    201     1
    176    178     1
    176    181     1
    176    199     1
    176    188     1
    176    189     1
    177    178     1
    177    181     1
    177    199     1
    177    188     1
    177    189     1
    178    182     1
    178    183     1
    178    197     1
    178    198     1
    179    181     1
    179    196     1
    179    191     1
    179    192     1
    180    181     1
    180    196     1
    180    191     1
    180    192     1
    181    194     1
    181    195     1
    182    193     1
    182    185     1
    182    186     1
    183    193     1
    183    185     1
    183    186     1
    185    202     1
    185    194     1
    185    195     1
    186    202     1
    186    194     1
    186    195     1
    188    463     1
    188    200     1
    188    201     1
    189    463     1
    189    200     1
    189    201     1
    191    434     1
    191    197     1
    191    198     1
    192    434     1
    192    197     1
    192    198     1
    196    407     1
    196    408     1
    197    406     1
    198    406     1
    199    436     1
    199    437     1
    200    435     1
    201    435     1
    203    217     1
    203    218     1
    203    220     1
    203    221     1
    203    214     1
    203    215     1
    204    208     1
    204    209     1
    204    211     1
    204    212     1
    204    229     1
    204    230     1
    205    207     1
    205    210     1
    205    228     1
    205    217     1
    205    218     1
    206    207     1
    206    210     1
    206    228     1
    206    217     1
    206    218     1
    207    211     1
    207    212     1
    207    226     1
    207    227     1
    208    210     1
    208    225     1
    208    220     1
    208    221     1
    209    210     1
    209    225     1
    209    220     1
    209    221     1
    210    223     1
    210    224     1
    211    222     1
    211    214     1
    211    215     1
    212    222     1
    212    214     1
    212    215     1
    214    231     1
    214    223     1
    214    224     1
    215    231     1
    215    223     1
    215    224     1
    217    521     1
    217    229     1
    217    230     1
    218    521     1
    218    229     1
    218    230     1
    220    492     1
    220    226     1
    220    227     1
    221    492     1
    221    226     1
    221    227     1
    225    465     1
    225    466     1
    226    464     1
    227    464     1
    228    494     1
    228    495     1
    229    493     1
    230    493     1
    232    246     1
    232    247     1
    232    249     1
    232    250     1
    232    243     1
    232    244     1
    233    237     1
    233    238     1
    233    240     1
    233    241     1
    233    258     1
    233    259     1
    234    236     1
    234    239     1
    234    257     1
    234    246     1
    234    247     1
    235    236     1
    235    239     1
    235    257     1
    235    246     1
    235    247     1
    236    240     1
    236    241     1
    236    255     1
    236    256     1
    237    239     1
    237    254     1
    237    249     1
    237    250     1
    238    239     1
    238    254     1
    238    249     1
    238    250     1
    239    252     1
    239    253     1
    240    251     1
    240    243     1
    240    244     1
    241    251     1
    241    243     1
    241    244     1
    243    260     1
    243    252     1
    243    253     1
    244    260     1
    244    252     1
    244    253     1
    246    579     1
    246    258     1
    246    259     1
    247    579     1
    247    258     1
    247    259     1
    249    550     1
    249    255     1
    249    256     1
    250    550     1
    250    255     1
    250    256     1
    254    523     1
    254    524     1
    255    522     1
    256    522     1
    257    552     1
    257    553     1
    258    551     1
    259    551     1
    261    275     1
    261    276     1
    261    278     1
    261    279     1
    261    272     1
    261    273     1
    262    266     1
    262    267     1
    262    269     1
    262    270     1
    262    287     1
    262    288     1
    263    265     1
    263    268     1
    263    286     1
    263    275     1
    263    276     1
    264    265     1
    264    268     1
    264    286     1
    264    275     1
    264    276     1
    265    269     1
    265    270     1
    265    284     1
    265    285     1
    266    268     1
    266    283     1
    266    278     1
    266    279     1
    267    268     1
    267    283     1
    267    278     1
    267    279     1
    268    281     1
    268    282     1
    269    280     1
    269    272     1
    269    273     1
    270    280     1
    270    272     1
    270    273     1
    272    289     1
    272    281     1
    272    282     1
    273    289     1
    273    281     1
    273    282     1
    275    637     1
    275    287     1
    275    288     1
    276    637     1
    276    287     1
    276    288     1
    278    608     1
    278    284     1
    278    285     1
    279    608     1
    279    284     1
    279    285     1
    283    581     1
    283    582     1
    284    580     1
    285    580     1
    286    610     1
    286    611     1
    287    609     1
    288    609     1
    290    304     1
    290    305     1
    290    307     1
    290    308     1
    290    301     1
    290    302     1
    291    295     1
    291    296     1
    291    298     1
    291    299     1
    291    316     1
    291    317     1
    292    294     1
    292    297     1
    292    315     1
    292    304     1
    292    305     1
    293    294     1
    293    297     1
    293    315     1
    293    304     1
    293    305     1
    294    298     1
    294    299     1
    294    313     1
    294    314     1
    295    297     1
    295    312     1
    295    307     1
    295    308     1
    296    297     1
    296    312     1
    296    307     1
    296    308     1
    297    310     1
    297    311     1
    298    309     1
    298    301     1
    298    302     1
    299    309     1
    299    301     1
    299    302     1
    301    318     1
    301    310     1
    301    311     1
    302    318     1
    302    310     1
    302    311     1
    304    695     1
    304    316     1
    304    317     1
    305    695     1
    305    316     1
    305    317     1
    307    666     1
    307    313     1
    307    314     1
    308    666     1
    308    313     1
    308    314     1
    312    639     1
    312    640     1
    313    638     1
    314    638     1
    315    668     1
    315    669     1
    316    667     1
    317    667     1
    319    333     1
    319    334     1
    319    336     1
    319    337     1
    319    330     1
    319    331     1
    320    324     1
    320    325     1
    320    327     1
    320    328     1
    320    345     1
    320    346     1
    321    323     1
    321    326     1
    321    344     1
    321    333     1
    321    334     1
    322    323     1
    322    326     1
    322    344     1
    322    333     1
    322    334     1
    323    327     1
    323    328     1
    323    342     1
    323    343     1
    324    326     1
    324    341     1
    324    336     1
    324    337     1
    325    326     1
    325    341     1
    325    336     1
    325    337     1
    326    339     1
    326    340     1
    327    338     1
    327    330     1
    327    331     1
    328    338     1
    328    330     1
    328    331     1
    330    347     1
    330    339     1
    330    340     1
    331    347     1
    331    339     1
    331    340     1
    333    753     1
    333    345     1
    333    346     1
    334    753     1
    334    345     1
    334    346     1
    336    724     1
    336    342     1
    336    343     1
    337    724     1
    337    342     1
    337    343     1
    341    697     1
    341    698     1
    342    696     1
    343    696     1
    344    726     1
    344    727     1
    345    725     1
    346    725     1
    348    362     1
    348    363     1
    348    365     1
    348    366     1
    348    359     1
    348    360     1
    349    353     1
    349    354     1
    349    356     1
    349    357     1
    349    374     1
    349    375     1
    350    352     1
    350    355     1
    350    373     1
    350    362     1
    350    363     1
    351    352     1
    351    355     1
    351    373     1
    351    362     1
    351    363     1
    352    356     1
    352    357     1
    352    371     1
    352    372     1
    353    355     1
    353    370     1
    353    365     1
    353    366     1
    354    355     1
    354    370     1
    354    365     1
    354    366     1
    355    368     1
    355    369     1
    356    367     1
    356    359     1
    356    360     1
    357    367     1
    357    359     1
    357    360     1
    359    376     1
    359    368     1
    359    369     1
    360    376     1
    360    368     1
    360    369     1
    362    811     1
    362    374     1
    362    375     1
    363    811     1
    363    374     1
    363    375     1
    365    782     1
    365    371     1
    365    372     1
    366    782     1
    366    371     1
    366    372     1
    370    755     1
    370    756     1
    371    754     1
    372    754     1
    373    784     1
    373    785     1
    374    783     1
    375    783     1
    377    391     1
    377    392     1
    377    394     1
    377    395     1
    377    388     1
    377    389     1
    378    382     1
    378    383     1
    378    385     1
    378    386     1
    378    403     1
    378    404     1
    379    381     1
    379    384     1
    379    402     1
    379    391     1
    379    392     1
    380    381     1
    380    384     1
    380    402     1
    380    391     1
    380    392     1
    381    385     1
    381    386     1
    381    400     1
    381    401     1
    382    384     1
    382    399     1
    382    394     1
    382    395     1
    383    384     1
    383    399     1
    383    394     1
    383    395     1
    384    397     1
    384    398     1
    385    396     1
    385    388     1
    385    389     1
    386    396     1
    386    388     1
    386    389     1
    388    405     1
    388    397     1
    388    398     1
    389    405     1
    389    397     1
    389    398     1
    391    869     1
    391    403     1
    391    404     1
    392    869     1
    392    403     1
    392    404     1
    394    840     1
    394    400     1
    394    401     1
    395    840     1
    395    400     1
    395    401     1
    399    813     1
    399    814     1
    400    812     1
    401    812     1
    402    842     1
    402    843     1
    403    841     1
    404    841     1
    406    413     1
    406    414     1
    407    412     1
    407    410     1
    407    411     1
    408    412     1
    408    410     1
    408    411     1
    410    434     1
    410    415     1
    410    413     1
    410    414     1
    411    434     1
    411    415     1
    411    413     1
    411    414     1
    412    417     1
    412    418     1
    412    426     1
    412    427     1
    413    416     1
    413    425     1
    414    416     1
    414    425     1
    415    420     1
    415    421     1
    415    429     1
    415    430     1
    416    426     1
    416    427     1
    417    425     1
    417    422     1
    417    420     1
    417    421     1
    418    425     1
    418    422     1
    418    420     1
    418    421     1
    420    423     1
    420    424     1
    421    423     1
    421    424     1
    426    431     1
    426    429     1
    426    430     1
    427    431     1
    427    429     1
    427    430     1
    429    432     1
    429    433     1
    430    432     1
    430    433     1
    435    442     1
    435    443     1
    436    441     1
    436    439     1
    436    440     1
    437    441     1
    437    439     1
    437    440     1
    439    444     1
    439    442     1
    439    443     1
    439    463     1
    440    444     1
    440    442     1
    440    443     1
    440    463     1
    441    446     1
    441    447     1
    441    455     1
    441    456     1
    442    445     1
    442    454     1
    443    445     1
    443    454     1
    444    449     1
    444    450     1
    444    458     1
    444    459     1
    445    455     1
    445    456     1
    446    451     1
    446    449     1
    446    450     1
    446    454     1
    447    451     1
    447    449     1
    447    450     1
    447    454     1
    449    452     1
    449    453     1
    450    452     1
    450    453     1
    455    460     1
    455    458     1
    455    459     1
    456    460     1
    456    458     1
    456    459     1
    458    461     1
    458    462     1
    459    461     1
    459    462     1
    464    471     1
    464    472     1
    465    470     1
    465    468     1
    465    469     1
    466    470     1
    466    468     1
    466    469     1
    468    492     1
    468    473     1
    468    471     1
    468    472     1
    469    492     1
    469    473     1
    469    471     1
    469    472     1
    470    475     1
    470    476     1
    470    484     1
    470    485     1
    471    474     1
    471    483     1
    472    474     1
    472    483     1
    473    478     1
    473    479     1
    473    487     1
    473    488     1
    474    484     1
    474    485     1
    475    483     1
    475    480     1
    475    478     1
    475    479     1
    476    483     1
    476    480     1
    476    478     1
    476    479     1
    478    481     1
    478    482     1
    479    481     1
    479    482     1
    484    489     1
    484    487     1
    484    488     1
    485    489     1
    485    487     1
    485    488     1
    487    490     1
    487    491     1
    488    490     1
    488    491     1
    493    500     1
    493    501     1
    494    499     1
    494    497     1
    494    498     1
    495    499     1
    495    497     1
    495    498     1
    497    502     1
    497    500     1
    497    501     1
    497    521     1
    498    502     1
    498    500     1
    498    501     1
    498    521     1
    499    504     1
    499    505     1
    499    513     1
    499    514     1
    500    503     1
    500    512     1
    501    503     1
    501    512     1
    502    507     1
    502    508     1
    502    516     1
    502    517     1
    503    513     1
    503    514     1
    504    509     1
    504    507     1
    504    508     1
    504    512     1
    505    509     1
    505    507     1
    505    508     1
    505    512     1
    507    510     1
    507    511     1
    508    510     1
    508    511     1
    513    518     1
    513    516     1
    513    517     1
    514    518     1
    514    516     1
    514    517     1
    516    519     1
    516    520     1
    517    519     1
    517    520     1
    522    529     1
    522    530     1
    523    528     1
    523    526     1
    523    527     1
    524    528     1
    524    526     1
    524    527     1
    526    550     1
    526    531     1
    526    529     1
    526    530     1
    527    550     1
    527    531     1
    527    529     1
    527    530     1
    528    533     1
    528    534     1
    528    542     1
    528    543     1
    529    532     1
    529    541     1
    530    532     1
    530    541     1
    531    536     1
    531    537     1
    531    545     1
    531    546     1
    532    542     1
    532    543     1
    533    541     1
    533    538     1
    533    536     1
    533    537     1
    534    541     1
    534    538     1
    534    536     1
    534    537     1
    536    539     1
    536    540     1
    537    539     1
    537    540     1
    542    547     1
    542    545     1
    542    546     1
    543    547     1
    543    545     1
    543    546     1
    545    548     1
    545    549     1
    546    548     1
    546    549     1
    551    558     1
    551    559     1
    552    557     1
    552    555     1
    552    556     1
    553    557     1
    553    555     1
    553    556     1
    555    560     1
    555    558     1
    555    559     1
    555    579     1
    556    560     1
    556    558     1
    556    559     1
    556    579     1
    557    562     1
    557    563     1
    557    571     1
    557    572     1
    558    561     1
    558    570     1
    559    561     1
    559    570     1
    560    565     1
    560    566     1
    560    574     1
    560    575     1
    561    571     1
    561    572     1
    562    567     1
    562    565     1
    562    566     1
    562    570     1
    563    567     1
    563    565     1
    563    566     1
    563    570     1
    565    568     1
    565    569     1
    566    568     1
    566    569     1
    571    576     1
    571    574     1
    571    575     1
    572    576     1
    572    574     1
    572    575     1
    574    577     1
    574    578     1
    575    577     1
    575    578     1
    580    587     1
    580    588     1
    581    586     1
    581    584     1
    581    585     1
    582    586     1
    582    584     1
    582    585     1
    584    608     1
    584    589     1
    584    587     1
    584    588     1
    585    608     1
    585    589     1
    585    587     1
    585    588     1
    586    591     1
    586    592     1
    586    600     1
    586    601     1
    587    590     1
    587    599     1
    588    590     1
    588    599     1
    589    594     1
    589    595     1
    589    603     1
    589    604     1
    590    600     1
    590    601     1
    591    599     1
    591    596     1
    591    594     1
    591    595     1
    592    599     1
    592    596     1
    592    594     1
    592    595     1
    594    597     1
    594    598     1
    595    597     1
    595    598     1
    600    605     1
    600    603     1
    600    604     1
    601    605     1
    601    603     1
    601    604     1
    603    606     1
    603    607     1
    604    606     1
    604    607     1
    609    616     1
    609    617     1
    610    615     1
    610    613     1
    610    614     1
    611    615     1
    611    613     1
    611    614     1
    613    618     1
    613    616     1
    613    617     1
    613    637     1
    614    618     1
    614    616     1
    614    617     1
    614    637     1
    615    620     1
    615    621     1
    615    629     1
    615    630     1
    616    619     1
    616    628     1
    617    619     1
    617    628     1
    618    623     1
    618    624     1
    618    632     1
    618    633     1
    619    629     1
    619    630     1
    620    625     1
    620    623     1
    620    624     1
    620    628     1
    621    625     1
    621    623     1
    621    624     1
    621    628     1
    623    626     1
    623    627     1
    624    626     1
    624    627     1
    629    634     1
    629    632     1
    629    633     1
    630    634     1
    630    632     1
    630    633     1
    632    635     1
    632    636     1
    633    635     1
    633    636     1
    638    645     1
    638    646     1
    639    644     1
    639    642     1
    639    643     1
    640    644     1
    640    642     1
    640    643     1
    642    666     1
    642    647     1
    642    645     1
    642    646     1
    643    666     1
    643    647     1
    643    645     1
    643    646     1
    644    649     1
    644    650     1
    644    658     1
    644    659     1
    645    648     1
    645    657     1
    646    648     1
    646    657     1
    647    652     1
    647    653     1
    647    661     1
    647    662     1
    648    658     1
    648    659     1
    649    657     1
    649    654     1
    649    652     1
    649    653     1
    650    657     1
    650    654     1
    650    652     1
    650    653     1
    652    655     1
    652    656     1
    653    655     1
    653    656     1
    658    663     1
    658    661     1
    658    662     1
    659    663     1
    659    661     1
    659    662     1
    661    664     1
    661    665     1
    662    664     1
    662    665     1
    667    674     1
    667    675     1
    668    673     1
    668    671     1
    668    672     1
    669    673     1
    669    671     1
    669    672     1
    671    676     1
    671    674     1
    671    675     1
    671    695     1
    672    676     1
    672    674     1
    672    675     1
    672    695     1
    673    678     1
    673    679     1
    673    687     1
    673    688     1
    674    677     1
    674    686     1
    675    677     1
    675    686     1
    676    681     1
    676    682     1
    676    690     1
    676    691     1
    677    687     1
    677    688     1
    678    683     1
    678    681     1
    678    682     1
    678    686     1
    679    683     1
    679    681     1
    679    682     1
    679    686     1
    681    684     1
    681    685     1
    682    684     1
    682    685     1
    687    692     1
    687    690     1
    687    691     1
    688    692     1
    688    690     1
    688    691     1
    690    693     1
    690    694     1
    691    693     1
    691    694     1
    696    703     1
    696    704     1
    697    702     1
    697    700     1
    697    701     1
    698    702     1
    698    700     1
    698    701     1
    700    724     1
    700    705     1
    700    703     1
    700    704     1
    701    724     1
    701    705     1
    701    703     1
    701    704     1
    702    707     1
    702    708     1
    702    716     1
    702    717     1
    703    706     1
    703    715     1
    704    706     1
    704    715     1
    705    710     1
    705    711     1
    705    719     1
    705    720     1
    706    716     1
    706    717     1
    707    715     1
    707    712     1
    707    710     1
    707    711     1
    708    715     1
    708    712     1
    708    710     1
    708    711     1
    710    713     1
    710    714     1
    711    713     1
    711    714     1
    716    721     1
    716    719     1
    716    720     1
    717    721     1
    717    719     1
    717    720     1
    719    722     1
    719    723     1
    720    722     1
    720    723     1
    725    732     1
    725    733     1
    726    731     1
    726    729     1
    726    730     1
    727    731     1
    727    729     1
    727    730     1
    729    734     1
    729    732     1
    729    733     1
    729    753     1
    730    734     1
    730    732     1
    730    733     1
    730    753     1
    731    736     1
    731    737     1
    731    745     1
    731    746     1
    732    735     1
    732    744     1
    733    735     1
    733    744     1
    734    739     1
    734    740     1
    734    748     1
    734    749     1
    735    745     1
    735    746     1
    736    741     1
    736    739     1
    736    740     1
    736    744     1
    737    741     1
    737    739     1
    737    740     1
    737    744     1
    739    742     1
    739    743     1
    740    742     1
    740    743     1
    745    750     1
    745    748     1
    745    749     1
    746    750     1
    746    748     1
    746    749     1
    748    751     1
    748    752     1
    749    751     1
    749    752     1
    754    761     1
    754    762     1
    755    760     1
    755    758     1
    755    759     1
    756    760     1
    756    758     1
    756    759     1
    758    782     1
    758    763     1
    758    761     1
    758    762     1
    759    782     1
    759    763     1
    759    761     1
    759    762     1
    760    765     1
    760    766     1
    760    774     1
    760    775     1
    761    764     1
    761    773     1
    762    764     1
    762    773     1
    763    768     1
    763    769     1
    763    777     1
    763    778     1
    764    774     1
    764    775     1
    765    773     1
    765    770     1
    765    768     1
    765    769     1
    766    773     1
    766    770     1
    766    768     1
    766    769     1
    768    771     1
    768    772     1
    769    771     1
    769    772     1
    774    779     1
    774    777     1
    774    778     1
    775    779     1
    775    777     1
    775    778     1
    777    780     1
    777    781     1
    778    780     1
    778    781     1
    783    790     1
    783    791     1
    784    789     1
    784    787     1
    784    788     1
    785    789     1
    785    787     1
    785    788     1
    787    792     1
    787    790     1
    787    791     1
    787    811     1
    788    792     1
    788    790     1
    788    791     1
    788    811     1
    789    794     1
    789    795     1
    789    803     1
    789    804     1
    790    793     1
    790    802     1
    791    793     1
    791    802     1
    792    797     1
    792    798     1
    792    806     1
    792    807     1
    793    803     1
    793    804     1
    794    799     1
    794    797     1
    794    798     1
    794    802     1
    795    799     1
    795    797     1
    795    798     1
    795    802     1
    797    800     1
    797    801     1
    798    800     1
    798    801     1
    803    808     1
    803    806     1
    803    807     1
    804    808     1
    804    806     1
    804    807     1
    806    809     1
    806    810     1
    807    809     1
    807    810     1
    812    819     1
    812    820     1
    813    818     1
    813    816     1
    813    817     1
    814    818     1
    814    816     1
    814    817     1
    816    840     1
    816    821     1
    816    819     1
    816    820     1
    817    840     1
    817    821     1
    817    819     1
    817    820     1
    818    823     1
    818    824     1
    818    832     1
    818    833     1
    819    822     1
    819    831     1
    820    822     1
    820    831     1
    821    826     1
    821    827     1
    821    835     1
    821    836     1
    822    832     1
    822    833     1
    823    831     1
    823    828     1
    823    826     1
    823    827     1
    824    831     1
    824    828     1
    824    826     1
    824    827     1
    826    829     1
    826    830     1
    827    829     1
    827    830     1
    832    837     1
    832    835     1
    832    836     1
    833    837     1
    833    835     1
    833    836     1
    835    838     1
    835    839     1
    836    838     1
    836    839     1
    841    848     1
    841    849     1
    842    847     1
    842    845     1
    842    846     1
    843    847     1
    843    845     1
    843    846     1
    845    850     1
    845    848     1
    845    849     1
    845    869     1
    846    850     1
    846    848     1
    846    849     1
    846    869     1
    847    852     1
    847    853     1
    847    861     1
    847    862     1
    848    851     1
    848    860     1
    849    851     1
    849    860     1
    850    855     1
    850    856     1
    850    864     1
    850    865     1
    851    861     1
    851    862     1
    852    857     1
    852    855     1
    852    856     1
    852    860     1
    853    857     1
    853    855     1
    853    856     1
    853    860     1
    855    858     1
    855    859     1
    856    858     1
    856    859     1
    861    866     1
    861    864     1
    861    865     1
    862    866     1
    862    864     1
    862    865     1
    864    867     1
    864    868     1
    865    867     1
    865    868     1

[ angles ]
;    ai     aj     ak funct         c0         c1         c2         c3
      1      2      8     1   107.9700462 569.024000
      1      5     11     1   107.9700462 569.024000
      2      1      5     1   112.4800480 524.673600
      2      8     14     1   111.5100476 526.347200
      5     11     17     1   111.5100476 526.347200
      8     14     20     1   111.0400475 552.288000
     11     17     21     1   111.0400475 552.288000
     14     20     28     1   112.3500484 533.878400
     14     20     31     1   112.3500484 533.878400
     17     21     22     1   112.3500484 533.878400
     17     21     25     1   112.3500484 533.878400
     20     28     40     1   111.0400475 552.288000
     20     31     43     1   111.0400475 552.288000
     21     22     34     1   111.0400475 552.288000
     21     25     37     1   111.0400475 552.288000
     22     21     25     1   112.3500484 533.878400
     22     34     55     1   111.5100476 526.347200
     25     37     52     1   111.5100476 526.347200
     28     20     31     1   112.3500484 533.878400
     28     40     49     1   111.5100476 526.347200
     31     43     46     1   111.5100476 526.347200
     34     55    173     1   107.9700462 569.024000
     37     52    144     1   107.9700462 569.024000
     40     49    115     1   107.9700462 569.024000
     43     46     86     1   107.9700462 569.024000
     46     86     77     1   112.4800480 524.673600
     49    115    106     1   112.4800480 524.673600
     52    144    135     1   112.4800480 524.673600
     55    173    164     1   112.4800480 524.673600
     58     59     71     1   111.0400475 552.288000
     58     62     74     1   111.0400475 552.288000
     58     65     68     1   111.0400475 552.288000
     59     58     62     1   112.3500484 533.878400
     59     58     65     1   112.3500484 533.878400
     59     71     83     1   111.5100476 526.347200
     62     58     65     1   112.3500484 533.878400
     62     74     80     1   111.5100476 526.347200
     65     68     77     1   111.5100476 526.347200
     68     77     86     1   107.9700462 569.024000
     71     83    231     1   107.9700462 569.024000
     74     80    202     1   107.9700462 569.024000
     80    202    193     1   112.4800480 524.673600
     83    231    222     1   112.4800480 524.673600
     87     88    100     1   111.0400475 552.288000
     87     91    103     1   111.0400475 552.288000
     87     94     97     1   111.0400475 552.288000
     88     87     91     1   112.3500484 533.878400
     88     87     94     1   112.3500484 533.878400
     88    100    112     1   111.5100476 526.347200
     91     87     94     1   112.3500484 533.878400
     91    103    109     1   111.5100476 526.347200
     94     97    106     1   111.5100476 526.347200
     97    106    115     1   107.9700462 569.024000
    100    112    289     1   107.9700462 569.024000
    103    109    260     1   107.9700462 569.024000
    109    260    251     1   112.4800480 524.673600
    112    289    280     1   112.4800480 524.673600
    116    117    129     1   111.0400475 552.288000
    116    120    132     1   111.0400475 552.288000
    116    123    126     1   111.0400475 552.288000
    117    116    120     1   112.3500484 533.878400
    117    116    123     1   112.3500484 533.878400
    117    129    141     1   111.5100476 526.347200
    120    116    123     1   112.3500484 533.878400
    120    132    138     1   111.5100476 526.347200
    123    126    135     1   111.5100476 526.347200
    126    135    144     1   107.9700462 569.024000
    129    141    347     1   107.9700462 569.024000
    132    138    318     1   107.9700462 569.024000
    138    318    309     1   112.4800480 524.673600
    141    347    338     1   112.4800480 524.673600
    145    146    158     1   111.0400475 552.288000
    145    149    161     1   111.0400475 552.288000
    145    152    155     1   111.0400475 552.288000
    146    145    149     1   112.3500484 533.878400
    146    145    152     1   112.3500484 533.878400
    146    158    170     1   111.5100476 526.347200
    149    145    152     1   112.3500484 533.878400
    149    161    167     1   111.5100476 526.347200
    152    155    164     1   111.5100476 526.347200
    155    164    173     1   107.9700462 569.024000
    158    170    405     1   107.9700462 569.024000
    161    167    376     1   107.9700462 569.024000
    167    376    367     1   112.4800480 524.673600
    170    405    396     1   112.4800480 524.673600
    174    175    187     1   111.0400475 552.288000
    174    178    190     1   111.0400475 552.288000
    174    181    184     1   111.0400475 552.288000
    175    174    178     1   112.3500484 533.878400
    175    174    181     1   112.3500484 533.878400
    175    187    199     1   111.5100476 526.347200
    178    174    181     1   112.3500484 533.878400
    178    190    196     1   111.5100476 526.347200
    181    184    193     1   111.5100476 526.347200
    184    193    202     1   107.9700462 569.024000
    187    199    463     1   107.9700462 569.024000
    190    196    434     1   107.9700462 569.024000
    196    434    406     1   112.4800480 524.673600
    199    463    435     1   112.4800480 524.673600
    203    204    216     1   111.0400475 552.288000
    203    207    219     1   111.0400475 552.288000
    203    210    213     1   111.0400475 552.288000
    204    203    207     1   112.3500484 533.878400
    204    203    210     1   112.3500484 533.878400
    204    216    228     1   111.5100476 526.347200
    207    203    210     1   112.3500484 533.878400
    207    219    225     1   111.5100476 526.347200
    210    213    222     1   111.5100476 526.347200
    213    222    231     1   107.9700462 569.024000
    216    228    521     1   107.9700462 569.024000
    219    225    492     1   107.9700462 569.024000
    225    492    464     1   112.4800480 524.673600
    228    521    493     1   112.4800480 524.673600
    232    233    245     1   111.0400475 552.288000
    232    236    248     1   111.0400475 552.288000
    232    239    242     1   111.0400475 552.288000
    233    232    236     1   112.3500484 533.878400
    233    232    239     1   112.3500484 533.878400
    233    245    257     1   111.5100476 526.347200
    236    232    239     1   112.3500484 533.878400
    236    248    254     1   111.5100476 526.347200
    239    242    251     1   111.5100476 526.347200
    242    251    260     1   107.9700462 569.024000
    245    257    579     1   107.9700462 569.024000
    248    254    550     1   107.9700462 569.024000
    254    550    522     1   112.4800480 524.673600
    257    579    551     1   112.4800480 524.673600
    261    262    274     1   111.0400475 552.288000
    261    265    277     1   111.0400475 552.288000
    261    268    271     1   111.0400475 552.288000
    262    261    265     1   112.3500484 533.878400
    262    261    268     1   112.3500484 533.878400
    262    274    286     1   111.5100476 526.347200
    265    261    268     1   112.3500484 533.878400
    265    277    283     1   111.5100476 526.347200
    268    271    280     1   111.5100476 526.347200
    271    280    289     1   107.9700462 569.024000
    274    286    637     1   107.9700462 569.024000
    277    283    608     1   107.9700462 569.024000
    283    608    580     1   112.4800480 524.673600
    286    637    609     1   112.4800480 524.673600
    290    291    303     1   111.0400475 552.288000
    290    294    306     1   111.0400475 552.288000
    290    297    300     1   111.0400475 552.288000
    291    290    294     1   112.3500484 533.878400
    291    290    297     1   112.3500484 533.878400
    291    303    315     1   111.5100476 526.347200
    294    290    297     1   112.3500484 533.878400
    294    306    312     1   111.5100476 526.347200
    297    300    309     1   111.5100476 526.347200
    300    309    318     1   107.9700462 569.024000
    303    315    695     1   107.9700462 569.024000
    306    312    666     1   107.9700462 569.024000
    312    666    638     1   112.4800480 524.673600
    315    695    667     1   112.4800480 524.673600
    319    320    332     1   111.0400475 552.288000
    319    323    335     1   111.0400475 552.288000
    319    326    329     1   111.0400475 552.288000
    320    319    323     1   112.3500484 533.878400
    320    319    326     1   112.3500484 533.878400
    320    332    344     1   111.5100476 526.347200
    323    319    326     1   112.3500484 533.878400
    323    335    341     1   111.5100476 526.347200
    326    329    338     1   111.5100476 526.347200
    329    338    347     1   107.9700462 569.024000
    332    344    753     1   107.9700462 569.024000
    335    341    724     1   107.9700462 569.024000
    341    724    696     1   112.4800480 524.673600
    344    753    725     1   112.4800480 524.673600
    348    349    361     1   111.0400475 552.288000
    348    352    364     1   111.0400475 552.288000
    348    355    358     1   111.0400475 552.288000
    349    348    352     1   112.3500484 533.878400
    349    348    355     1   112.3500484 533.878400
    349    361    373     1   111.5100476 526.347200
    352    348    355     1   112.3500484 533.878400
    352    364    370     1   111.5100476 526.347200
    355    358    367     1   111.5100476 526.347200
    358    367    376     1   107.9700462 569.024000
    361    373    811     1   107.9700462 569.024000
    364    370    782     1   107.9700462 569.024000
    370    782    754     1   112.4800480 524.673600
    373    811    783     1   112.4800480 524.673600
    377    378    390     1   111.0400475 552.288000
    377    381    393     1   111.0400475 552.288000
    377    384    387     1   111.0400475 552.288000
    378    377    381     1   112.3500484 533.878400
    378    377    384     1   112.3500484 533.878400
    378    390    402     1   111.5100476 526.347200
    381    377    384     1   112.3500484 533.878400
    381    393    399     1   111.5100476 526.347200
    384    387    396     1   111.5100476 526.347200
    387    396    405     1   107.9700462 569.024000
    390    402    869     1   107.9700462 569.024000
    393    399    840     1   107.9700462 569.024000
    399    840    812     1   112.4800480 524.673600
    402    869    841     1   112.4800480 524.673600
    406    409    412     1   111.5100476 526.347200
    409    406    434     1   107.9700462 569.024000
    409    412    415     1   111.0400475 552.288000
    412    415    416     1   112.3500484 533.878400
    412    415    425     1   112.3500484 533.878400
    415    416    419     1   111.0400475 552.288000
    415    425    428     1   111.0400475 552.288000
    416    415    425     1   112.3500484 533.878400
    416    419    422     1   111.0400475 529.694400
    419    422    423     1   123.2000528 564.003200
    419    422    424     1   123.2000528 564.003200
    423    422    424     1   130.2500561 651.867200
    425    428    431     1   111.0400475 529.694400
    428    431    432     1   123.2000528 564.003200
    428    431    433     1   123.2000528 564.003200
    432    431    433     1   130.2500561 651.867200
    435    438    441     1   111.5100476 526.347200
    438    441    444     1   111.0400475 552.288000
    438    435    463     1   107.9700462 569.024000
    441    444    445     1   112.3500484 533.878400
    441    444    454     1   112.3500484 533.878400
    444    445    448     1   111.0400475 552.288000
    444    454    457     1   111.0400475 552.288000
    445    448    451     1   111.0400475 529.694400
    445    444    454     1   112.3500484 533.878400
    448    451    452     1   123.2000528 564.003200
    448    451    453     1   123.2000528 564.003200
    452    451    453     1   130.2500561 651.867200
    454    457    460     1   111.0400475 529.694400
    457    460    461     1   123.2000528 564.003200
    457    460    462     1   123.2000528 564.003200
    461    460    462     1   130.2500561 651.867200
    464    467    470     1   111.5100476 526.347200
    467    464    492     1   107.9700462 569.024000
    467    470    473     1   111.0400475 552.288000
    470    473    474     1   112.3500484 533.878400
    470    473    483     1   112.3500484 533.878400
    473    474    477     1   111.0400475 552.288000
    473    483    486     1   111.0400475 552.288000
    474    473    483     1   112.3500484 533.878400
    474    477    480     1   111.0400475 529.694400
    477    480    481     1   123.2000528 564.003200
    477    480    482     1   123.2000528 564.003200
    481    480    482     1   130.2500561 651.867200
    483    486    489     1   111.0400475 529.694400
    486    489    490     1   123.2000528 564.003200
    486    489    491     1   123.2000528 564.003200
    490    489    491     1   130.2500561 651.867200
    493    496    499     1   111.5100476 526.347200
    496    499    502     1   111.0400475 552.288000
    496    493    521     1   107.9700462 569.024000
    499    502    503     1   112.3500484 533.878400
    499    502    512     1   112.3500484 533.878400
    502    503    506     1   111.0400475 552.288000
    502    512    515     1   111.0400475 552.288000
    503    506    509     1   111.0400475 529.694400
    503    502    512     1   112.3500484 533.878400
    506    509    510     1   123.2000528 564.003200
    506    509    511     1   123.2000528 564.003200
    510    509    511     1   130.2500561 651.867200
    512    515    518     1   111.0400475 529.694400
    515    518    519     1   123.2000528 564.003200
    515    518    520     1   123.2000528 564.003200
    519    518    520     1   130.2500561 651.867200
    522    525    528     1   111.5100476 526.347200
    525    522    550     1   107.9700462 569.024000
    525    528    531     1   111.0400475 552.288000
    528    531    532     1   112.3500484 533.878400
    528    531    541     1   112.3500484 533.878400
    531    532    535     1   111.0400475 552.288000
    531    541    544     1   111.0400475 552.288000
    532    531    541     1   112.3500484 533.878400
    532    535    538     1   111.0400475 529.694400
    535    538    539     1   123.2000528 564.003200
    535    538    540     1   123.2000528 564.003200
    539    538    540     1   130.2500561 651.867200
    541    544    547     1   111.0400475 529.694400
    544    547    548     1   123.2000528 564.003200
    544    547    549     1   123.2000528 564.003200
    548    547    549     1   130.2500561 651.867200
    551    554    557     1   111.5100476 526.347200
    554    557    560     1   111.0400475 552.288000
    554    551    579     1   107.9700462 569.024000
    557    560    561     1   112.3500484 533.878400
    557    560    570     1   112.3500484 533.878400
    560    561    564     1   111.0400475 552.288000
    560    570    573     1   111.0400475 552.288000
    561    564    567     1   111.0400475 529.694400
    561    560    570     1   112.3500484 533.878400
    564    567    568     1   123.2000528 564.003200
    564    567    569     1   123.2000528 564.003200
    568    567    569     1   130.2500561 651.867200
    570    573    576     1   111.0400475 529.694400
    573    576    577     1   123.2000528 564.003200
    573    576    578     1   123.2000528 564.003200
    577    576    578     1   130.2500561 651.867200
    580    583    586     1   111.5100476 526.347200
    583    580    608     1   107.9700462 569.024000
    583    586    589     1   111.0400475 552.288000
    586    589    590     1   112.3500484 533.878400
    586    589    599     1   112.3500484 533.878400
    589    590    593     1   111.0400475 552.288000
    589    599    602     1   111.0400475 552.288000
    590    589    599     1   112.3500484 533.878400
    590    593    596     1   111.0400475 529.694400
    593    596    597     1   123.2000528 564.003200
    593    596    598     1   123.2000528 564.003200
    597    596    598     1   130.2500561 651.867200
    599    602    605     1   111.0400475 529.694400
    602    605    606     1   123.2000528 564.003200
    602    605    607     1   123.2000528 564.003200
    606    605    607     1   130.2500561 651.867200
    609    612    615     1   111.5100476 526.347200
    612    615    618     1   111.0400475 552.288000
    612    609    637     1   107.9700462 569.024000
    615    618    619     1   112.3500484 533.878400
    615    618    628     1   112.3500484 533.878400
    618    619    622     1   111.0400475 552.288000
    618    628    631     1   111.0400475 552.288000
    619    622    625     1   111.0400475 529.694400
    619    618    628     1   112.3500484 533.878400
    622    625    626     1   123.2000528 564.003200
    622    625    627     1   123.2000528 564.003200
    626    625    627     1   130.2500561 651.867200
    628    631    634     1   111.0400475 529.694400
    631    634    635     1   123.2000528 564.003200
    631    634    636     1   123.2000528 564.003200
    635    634    636     1   130.2500561 651.867200
    638    641    644     1   111.5100476 526.347200
    641    638    666     1   107.9700462 569.024000
    641    644    647     1   111.0400475 552.288000
    644    647    648     1   112.3500484 533.878400
    644    647    657     1   112.3500484 533.878400
    647    648    651     1   111.0400475 552.288000
    647    657    660     1   111.0400475 552.288000
    648    647    657     1   112.3500484 533.878400
    648    651    654     1   111.0400475 529.694400
    651    654    655     1   123.2000528 564.003200
    651    654    656     1   123.2000528 564.003200
    655    654    656     1   130.2500561 651.867200
    657    660    663     1   111.0400475 529.694400
    660    663    664     1   123.2000528 564.003200
    660    663    665     1   123.2000528 564.003200
    664    663    665     1   130.2500561 651.867200
    667    670    673     1   111.5100476 526.347200
    670    673    676     1   111.0400475 552.288000
    670    667    695     1   107.9700462 569.024000
    673    676    677     1   112.3500484 533.878400
    673    676    686     1   112.3500484 533.878400
    676    677    680     1   111.0400475 552.288000
    676    686    689     1   111.0400475 552.288000
    677    680    683     1   111.0400475 529.694400
    677    676    686     1   112.3500484 533.878400
    680    683    684     1   123.2000528 564.003200
    680    683    685     1   123.2000528 564.003200
    684    683    685     1   130.2500561 651.867200
    686    689    692     1   111.0400475 529.694400
    689    692    693     1   123.2000528 564.003200
    689    692    694     1   123.2000528 564.003200
    693    692    694     1   130.2500561 651.867200
    696    699    702     1   111.5100476 526.347200
    699    696    724     1   107.9700462 569.024000
    699    702    705     1   111.0400475 552.288000
    702    705    706     1   112.3500484 533.878400
    702    705    715     1   112.3500484 533.878400
    705    706    709     1   111.0400475 552.288000
    705    715    718     1   111.0400475 552.288000
    706    705    715     1   112.3500484 533.878400
    706    709    712     1   111.0400475 529.694400
    709    712    713     1   123.2000528 564.003200
    709    712    714     1   123.2000528 564.003200
    713    712    714     1   130.2500561 651.867200
    715    718    721     1   111.0400475 529.694400
    718    721    722     1   123.2000528 564.003200
    718    721    723     1   123.2000528 564.003200
    722    721    723     1   130.2500561 651.867200
    725    728    731     1   111.5100476 526.347200
    728    731    734     1   111.0400475 552.288000
    728    725    753     1   107.9700462 569.024000
    731    734    735     1   112.3500484 533.878400
    731    734    744     1   112.3500484 533.878400
    734    735    738     1   111.0400475 552.288000
    734    744    747     1   111.0400475 552.288000
    735    738    741     1   111.0400475 529.694400
    735    734    744     1   112.3500484 533.878400
    738    741    742     1   123.2000528 564.003200
    738    741    743     1   123.2000528 564.003200
    742    741    743     1   130.2500561 651.867200
    744    747    750     1   111.0400475 529.694400
    747    750    751     1   123.2000528 564.003200
    747    750    752     1   123.2000528 564.003200
    751    750    752     1   130.2500561 651.867200
    754    757    760     1   111.5100476 526.347200
    757    754    782     1   107.9700462 569.024000
    757    760    763     1   111.0400475 552.288000
    760    763    764     1   112.3500484 533.878400
    760    763    773     1   112.3500484 533.878400
    763    764    767     1   111.0400475 552.288000
    763    773    776     1   111.0400475 552.288000
    764    763    773     1   112.3500484 533.878400
    764    767    770     1   111.0400475 529.694400
    767    770    771     1   123.2000528 564.003200
    767    770    772     1   123.2000528 564.003200
    771    770    772     1   130.2500561 651.867200
    773    776    779     1   111.0400475 529.694400
    776    779    780     1   123.2000528 564.003200
    776    779    781     1   123.2000528 564.003200
    780    779    781     1   130.2500561 651.867200
    783    786    789     1   111.5100476 526.347200
    786    789    792     1   111.0400475 552.288000
    786    783    811     1   107.9700462 569.024000
    789    792    793     1   112.3500484 533.878400
    789    792    802     1   112.3500484 533.878400
    792    793    796     1   111.0400475 552.288000
    792    802    805     1   111.0400475 552.288000
    793    796    799     1   111.0400475 529.694400
    793    792    802     1   112.3500484 533.878400
    796    799    800     1   123.2000528 564.003200
    796    799    801     1   123.2000528 564.003200
    800    799    801     1   130.2500561 651.867200
    802    805    808     1   111.0400475 529.694400
    805    808    809     1   123.2000528 564.003200
    805    808    810     1   123.2000528 564.003200
    809    808    810     1   130.2500561 651.867200
    812    815    818     1   111.5100476 526.347200
    815    812    840     1   107.9700462 569.024000
    815    818    821     1   111.0400475 552.288000
    818    821    822     1   112.3500484 533.878400
    818    821    831     1   112.3500484 533.878400
    821    822    825     1   111.0400475 552.288000
    821    831    834     1   111.0400475 552.288000
    822    821    831     1   112.3500484 533.878400
    822    825    828     1   111.0400475 529.694400
    825    828    829     1   123.2000528 564.003200
    825    828    830     1   123.2000528 564.003200
    829    828    830     1   130.2500561 651.867200
    831    834    837     1   111.0400475 529.694400
    834    837    838     1   123.2000528 564.003200
    834    837    839     1   123.2000528 564.003200
    838    837    839     1   130.2500561 651.867200
    841    844    847     1   111.5100476 526.347200
    844    847    850     1   111.0400475 552.288000
    844    841    869     1   107.9700462 569.024000
    847    850    851     1   112.3500484 533.878400
    847    850    860     1   112.3500484 533.878400
    850    851    854     1   111.0400475 552.288000
    850    860    863     1   111.0400475 552.288000
    851    854    857     1   111.0400475 529.694400
    851    850    860     1   112.3500484 533.878400
    854    857    858     1   123.2000528 564.003200
    854    857    859     1   123.2000528 564.003200
    858    857    859     1   130.2500561 651.867200
    860    863    866     1   111.0400475 529.694400
    863    866    867     1   123.2000528 564.003200
    863    866    868     1   123.2000528 564.003200
    867    866    868     1   130.2500561 651.867200
      1      2      3     1   109.7800468 425.094400
      1      2      4     1   109.7800468 425.094400
      1      5      6     1   109.7800468 425.094400
      1      5      7     1   109.7800468 425.094400
      2      8      9     1   109.8000471 387.438400
      2      8     10     1   109.8000471 387.438400
      3      2      8     1   109.5600471 388.275200
      3      2      4     1   108.4600466 328.025600
      4      2      8     1   109.5600471 388.275200
      5     11     12     1   109.8000471 387.438400
      5     11     13     1   109.8000471 387.438400
      6      5     11     1   109.5600471 388.275200
      6      5      7     1   108.4600466 328.025600
      7      5     11     1   109.5600471 388.275200
      8     14     15     1   109.5600471 388.275200
      8     14     16     1   109.5600471 388.275200
      9      8     14     1   109.8000471 387.438400
      9      8     10     1   107.5800459 329.699200
     10      8     14     1   109.8000471 387.438400
     11     17     18     1   109.5600471 388.275200
     11     17     19     1   109.5600471 388.275200
     12     11     17     1   109.8000471 387.438400
     12     11     13     1   107.5800459 329.699200
     13     11     17     1   109.8000471 387.438400
     15     14     20     1   109.8800469 414.216000
     15     14     16     1   108.4600466 328.025600
     16     14     20     1   109.8800469 414.216000
     18     17     21     1   109.8800469 414.216000
     18     17     19     1   108.4600466 328.025600
     19     17     21     1   109.8800469 414.216000
     20     28     29     1   109.8800469 414.216000
     20     28     30     1   109.8800469 414.216000
     20     31     32     1   109.8800469 414.216000
     20     31     33     1   109.8800469 414.216000
     21     22     23     1   109.8800469 414.216000
     21     22     24     1   109.8800469 414.216000
     21     25     26     1   109.8800469 414.216000
     21     25     27     1   109.8800469 414.216000
     22     34     35     1   109.8000471 387.438400
     22     34     36     1   109.8000471 387.438400
     23     22     34     1   109.5600471 388.275200
     23     22     24     1   108.4600466 328.025600
     24     22     34     1   109.5600471 388.275200
     25     37     38     1   109.8000471 387.438400
     25     37     39     1   109.8000471 387.438400
     26     25     37     1   109.5600471 388.275200
     26     25     27     1   108.4600466 328.025600
     27     25     37     1   109.5600471 388.275200
     28     40     41     1   109.8000471 387.438400
     28     40     42     1   109.8000471 387.438400
     29     28     40     1   109.5600471 388.275200
     29     28     30     1   108.4600466 328.025600
     30     28     40     1   109.5600471 388.275200
     31     43     44     1   109.8000471 387.438400
     31     43     45     1   109.8000471 387.438400
     32     31     43     1   109.5600471 388.275200
     32     31     33     1   108.4600466 328.025600
     33     31     43     1   109.5600471 388.275200
     34     55     56     1   109.5600471 388.275200
     34     55     57     1   109.5600471 388.275200
     35     34     55     1   109.8000471 387.438400
     35     34     36     1   107.5800459 329.699200
     36     34     55     1   109.8000471 387.438400
     37     52     53     1   109.5600471 388.275200
     37     52     54     1   109.5600471 388.275200
     38     37     52     1   109.8000471 387.438400
     38     37     39     1   107.5800459 329.699200
     39     37     52     1   109.8000471 387.438400
     40     49     50     1   109.5600471 388.275200
     40     49     51     1   109.5600471 388.275200
     41     40     49     1   109.8000471 387.438400
     41     40     42     1   107.5800459 329.699200
     42     40     49     1   109.8000471 387.438400
     43     46     47     1   109.5600471 388.275200
     43     46     48     1   109.5600471 388.275200
     44     43     46     1   109.8000471 387.438400
     44     43     45     1   107.5800459 329.699200
     45     43     46     1   109.8000471 387.438400
     47     46     86     1   109.7800468 425.094400
     47     46     48     1   108.4600466 328.025600
     48     46     86     1   109.7800468 425.094400
     50     49    115     1   109.7800468 425.094400
     50     49     51     1   108.4600466 328.025600
     51     49    115     1   109.7800468 425.094400
     53     52    144     1   109.7800468 425.094400
     53     52     54     1   108.4600466 328.025600
     54     52    144     1   109.7800468 425.094400
     56     55    173     1   109.7800468 425.094400
     56     55     57     1   108.4600466 328.025600
     57     55    173     1   109.7800468 425.094400
     58     59     60     1   109.8800469 414.216000
     58     59     61     1   109.8800469 414.216000
     58     62     63     1   109.8800469 414.216000
     58     62     64     1   109.8800469 414.216000
     58     65     66     1   109.8800469 414.216000
     58     65     67     1   109.8800469 414.216000
     59     71     72     1   109.8000471 387.438400
     59     71     73     1   109.8000471 387.438400
     60     59     71     1   109.5600471 388.275200
     60     59     61     1   108.4600466 328.025600
     61     59     71     1   109.5600471 388.275200
     62     74     75     1   109.8000471 387.438400
     62     74     76     1   109.8000471 387.438400
     63     62     74     1   109.5600471 388.275200
     63     62     64     1   108.4600466 328.025600
     64     62     74     1   109.5600471 388.275200
     65     68     69     1   109.8000471 387.438400
     65     68     70     1   109.8000471 387.438400
     66     65     68     1   109.5600471 388.275200
     66     65     67     1   108.4600466 328.025600
     67     65     68     1   109.5600471 388.275200
     68     77     78     1   109.5600471 388.275200
     68     77     79     1   109.5600471 388.275200
     69     68     77     1   109.8000471 387.438400
     69     68     70     1   107.5800459 329.699200
     70     68     77     1   109.8000471 387.438400
     71     83     84     1   109.5600471 388.275200
     71     83     85     1   109.5600471 388.275200
     72     71     83     1   109.8000471 387.438400
     72     71     73     1   107.5800459 329.699200
     73     71     83     1   109.8000471 387.438400
     74     80     81     1   109.5600471 388.275200
     74     80     82     1   109.5600471 388.275200
     75     74     80     1   109.8000471 387.438400
     75     74     76     1   107.5800459 329.699200
     76     74     80     1   109.8000471 387.438400
     78     77     86     1   109.7800468 425.094400
     78     77     79     1   108.4600466 328.025600
     79     77     86     1   109.7800468 425.094400
     81     80    202     1   109.7800468 425.094400
     81     80     82     1   108.4600466 328.025600
     82     80    202     1   109.7800468 425.094400
     84     83    231     1   109.7800468 425.094400
     84     83     85     1   108.4600466 328.025600
     85     83    231     1   109.7800468 425.094400
     87     88     89     1   109.8800469 414.216000
     87     88     90     1   109.8800469 414.216000
     87     91     92     1   109.8800469 414.216000
     87     91     93     1   109.8800469 414.216000
     87     94     95     1   109.8800469 414.216000
     87     94     96     1   109.8800469 414.216000
     88    100    101     1   109.8000471 387.438400
     88    100    102     1   109.8000471 387.438400
     89     88    100     1   109.5600471 388.275200
     89     88     90     1   108.4600466 328.025600
     90     88    100     1   109.5600471 388.275200
     91    103    104     1   109.8000471 387.438400
     91    103    105     1   109.8000471 387.438400
     92     91    103     1   109.5600471 388.275200
     92     91     93     1   108.4600466 328.025600
     93     91    103     1   109.5600471 388.275200
     94     97     98     1   109.8000471 387.438400
     94     97     99     1   109.8000471 387.438400
     95     94     97     1   109.5600471 388.275200
     95     94     96     1   108.4600466 328.025600
     96     94     97     1   109.5600471 388.275200
     97    106    107     1   109.5600471 388.275200
     97    106    108     1   109.5600471 388.275200
     98     97    106     1   109.8000471 387.438400
     98     97     99     1   107.5800459 329.699200
     99     97    106     1   109.8000471 387.438400
    100    112    113     1   109.5600471 388.275200
    100    112    114     1   109.5600471 388.275200
    101    100    112     1   109.8000471 387.438400
    101    100    102     1   107.5800459 329.699200
    102    100    112     1   109.8000471 387.438400
    103    109    110     1   109.5600471 388.275200
    103    109    111     1   109.5600471 388.275200
    104    103    109     1   109.8000471 387.438400
    104    103    105     1   107.5800459 329.699200
    105    103    109     1   109.8000471 387.438400
    107    106    115     1   109.7800468 425.094400
    107    106    108     1   108.4600466 328.025600
    108    106    115     1   109.7800468 425.094400
    110    109    260     1   109.7800468 425.094400
    110    109    111     1   108.4600466 328.025600
    111    109    260     1   109.7800468 425.094400
    113    112    289     1   109.7800468 425.094400
    113    112    114     1   108.4600466 328.025600
    114    112    289     1   109.7800468 425.094400
    116    117    118     1   109.8800469 414.216000
    116    117    119     1   109.8800469 414.216000
    116    120    121     1   109.8800469 414.216000
    116    120    122     1   109.8800469 414.216000
    116    123    124     1   109.8800469 414.216000
    116    123    125     1   109.8800469 414.216000
    117    129    130     1   109.8000471 387.438400
    117    129    131     1   109.8000471 387.438400
    118    117    129     1   109.5600471 388.275200
    118    117    119     1   108.4600466 328.025600
    119    117    129     1   109.5600471 388.275200
    120    132    133     1   109.8000471 387.438400
    120    132    134     1   109.8000471 387.438400
    121    120    132     1   109.5600471 388.275200
    121    120    122     1   108.4600466 328.025600
    122    120    132     1   109.5600471 388.275200
    123    126    127     1   109.8000471 387.438400
    123    126    128     1   109.8000471 387.438400
    124    123    126     1   109.5600471 388.275200
    124    123    125     1   108.4600466 328.025600
    125    123    126     1   109.5600471 388.275200
    126    135    136     1   109.5600471 388.275200
    126    135    137     1   109.5600471 388.275200
    127    126    135     1   109.8000471 387.438400
    127    126    128     1   107.5800459 329.699200
    128    126    135     1   109.8000471 387.438400
    129    141    142     1   109.5600471 388.275200
    129    141    143     1   109.5600471 388.275200
    130    129    141     1   109.8000471 387.438400
    130    129    131     1   107.5800459 329.699200
    131    129    141     1   109.8000471 387.438400
    132    138    139     1   109.5600471 388.275200
    132    138    140     1   109.5600471 388.275200
    133    132    138     1   109.8000471 387.438400
    133    132    134     1   107.5800459 329.699200
    134    132    138     1   109.8000471 387.438400
    136    135    144     1   109.7800468 425.094400
    136    135    137     1   108.4600466 328.025600
    137    135    144     1   109.7800468 425.094400
    139    138    318     1   109.7800468 425.094400
    139    138    140     1   108.4600466 328.025600
    140    138    318     1   109.7800468 425.094400
    142    141    347     1   109.7800468 425.094400
    142    141    143     1   108.4600466 328.025600
    143    141    347     1   109.7800468 425.094400
    145    146    147     1   109.8800469 414.216000
    145    146    148     1   109.8800469 414.216000
    145    149    150     1   109.8800469 414.216000
    145    149    151     1   109.8800469 414.216000
    145    152    153     1   109.8800469 414.216000
    145    152    154     1   109.8800469 414.216000
    146    158    159     1   109.8000471 387.438400
    146    158    160     1   109.8000471 387.438400
    147    146    158     1   109.5600471 388.275200
    147    146    148     1   108.4600466 328.025600
    148    146    158     1   109.5600471 388.275200
    149    161    162     1   109.8000471 387.438400
    149    161    163     1   109.8000471 387.438400
    150    149    161     1   109.5600471 388.275200
    150    149    151     1   108.4600466 328.025600
    151    149    161     1   109.5600471 388.275200
    152    155    156     1   109.8000471 387.438400
    152    155    157     1   109.8000471 387.438400
    153    152    155     1   109.5600471 388.275200
    153    152    154     1   108.4600466 328.025600
    154    152    155     1   109.5600471 388.275200
    155    164    165     1   109.5600471 388.275200
    155    164    166     1   109.5600471 388.275200
    156    155    164     1   109.8000471 387.438400
    156    155    157     1   107.5800459 329.699200
    157    155    164     1   109.8000471 387.438400
    158    170    171     1   109.5600471 388.275200
    158    170    172     1   109.5600471 388.275200
    159    158    170     1   109.8000471 387.438400
    159    158    160     1   107.5800459 329.699200
    160    158    170     1   109.8000471 387.438400
    161    167    168     1   109.5600471 388.275200
    161    167    169     1   109.5600471 388.275200
    162    161    167     1   109.8000471 387.438400
    162    161    163     1   107.5800459 329.699200
    163    161    167     1   109.8000471 387.438400
    165    164    173     1   109.7800468 425.094400
    165    164    166     1   108.4600466 328.025600
    166    164    173     1   109.7800468 425.094400
    168    167    376     1   109.7800468 425.094400
    168    167    169     1   108.4600466 328.025600
    169    167    376     1   109.7800468 425.094400
    171    170    405     1   109.7800468 425.094400
    171    170    172     1   108.4600466 328.025600
    172    170    405     1   109.7800468 425.094400
    174    175    176     1   109.8800469 414.216000
    174    175    177     1   109.8800469 414.216000
    174    178    179     1   109.8800469 414.216000
    174    178    180     1   109.8800469 414.216000
    174    181    182     1   109.8800469 414.216000
    174    181    183     1   109.8800469 414.216000
    175    187    188     1   109.8000471 387.438400
    175    187    189     1   109.8000471 387.438400
    176    175    187     1   109.5600471 388.275200
    176    175    177     1   108.4600466 328.025600
    177    175    187     1   109.5600471 388.275200
    178    190    191     1   109.8000471 387.438400
    178    190    192     1   109.8000471 387.438400
    179    178    190     1   109.5600471 388.275200
    179    178    180     1   108.4600466 328.025600
    180    178    190     1   109.5600471 388.275200
    181    184    185     1   109.8000471 387.438400
    181    184    186     1   109.8000471 387.438400
    182    181    184     1   109.5600471 388.275200
    182    181    183     1   108.4600466 328.025600
    183    181    184     1   109.5600471 388.275200
    184    193    194     1   109.5600471 388.275200
    184    193    195     1   109.5600471 388.275200
    185    184    193     1   109.8000471 387.438400
    185    184    186     1   107.5800459 329.699200
    186    184    193     1   109.8000471 387.438400
    187    199    200     1   109.5600471 388.275200
    187    199    201     1   109.5600471 388.275200
    188    187    199     1   109.8000471 387.438400
    188    187    189     1   107.5800459 329.699200
    189    187    199     1   109.8000471 387.438400
    190    196    197     1   109.5600471 388.275200
    190    196    198     1   109.5600471 388.275200
    191    190    196     1   109.8000471 387.438400
    191    190    192     1   107.5800459 329.699200
    192    190    196     1   109.8000471 387.438400
    194    193    202     1   109.7800468 425.094400
    194    193    195     1   108.4600466 328.025600
    195    193    202     1   109.7800468 425.094400
    197    196    434     1   109.7800468 425.094400
    197    196    198     1   108.4600466 328.025600
    198    196    434     1   109.7800468 425.094400
    200    199    463     1   109.7800468 425.094400
    200    199    201     1   108.4600466 328.025600
    201    199    463     1   109.7800468 425.094400
    203    204    205     1   109.8800469 414.216000
    203    204    206     1   109.8800469 414.216000
    203    207    208     1   109.8800469 414.216000
    203    207    209     1   109.8800469 414.216000
    203    210    211     1   109.8800469 414.216000
    203    210    212     1   109.8800469 414.216000
    204    216    217     1   109.8000471 387.438400
    204    216    218     1   109.8000471 387.438400
    205    204    216     1   109.5600471 388.275200
    205    204    206     1   108.4600466 328.025600
    206    204    216     1   109.5600471 388.275200
    207    219    220     1   109.8000471 387.438400
    207    219    221     1   109.8000471 387.438400
    208    207    219     1   109.5600471 388.275200
    208    207    209     1   108.4600466 328.025600
    209    207    219     1   109.5600471 388.275200
    210    213    214     1   109.8000471 387.438400
    210    213    215     1   109.8000471 387.438400
    211    210    213     1   109.5600471 388.275200
    211    210    212     1   108.4600466 328.025600
    212    210    213     1   109.5600471 388.275200
    213    222    223     1   109.5600471 388.275200
    213    222    224     1   109.5600471 388.275200
    214    213    222     1   109.8000471 387.438400
    214    213    215     1   107.5800459 329.699200
    215    213    222     1   109.8000471 387.438400
    216    228    229     1   109.5600471 388.275200
    216    228    230     1   109.5600471 388.275200
    217    216    228     1   109.8000471 387.438400
    217    216    218     1   107.5800459 329.699200
    218    216    228     1   109.8000471 387.438400
    219    225    226     1   109.5600471 388.275200
    219    225    227     1   109.5600471 388.275200
    220    219    225     1   109.8000471 387.438400
    220    219    221     1   107.5800459 329.699200
    221    219    225     1   109.8000471 387.438400
    223    222    231     1   109.7800468 425.094400
    223    222    224     1   108.4600466 328.025600
    224    222    231     1   109.7800468 425.094400
    226    225    492     1   109.7800468 425.094400
    226    225    227     1   108.4600466 328.025600
    227    225    492     1   109.7800468 425.094400
    229    228    521     1   109.7800468 425.094400
    229    228    230     1   108.4600466 328.025600
    230    228    521     1   109.7800468 425.094400
    232    233    234     1   109.8800469 414.216000
    232    233    235     1   109.8800469 414.216000
    232    236    237     1   109.8800469 414.216000
    232    236    238     1   109.8800469 414.216000
    232    239    240     1   109.8800469 414.216000
    232    239    241     1   109.8800469 414.216000
    233    245    246     1   109.8000471 387.438400
    233    245    247     1   109.8000471 387.438400
    234    233    245     1   109.5600471 388.275200
    234    233    235     1   108.4600466 328.025600
    235    233    245     1   109.5600471 388.275200
    236    248    249     1   109.8000471 387.438400
    236    248    250     1   109.8000471 387.438400
    237    236    248     1   109.5600471 388.275200
    237    236    238     1   108.4600466 328.025600
    238    236    248     1   109.5600471 388.275200
    239    242    243     1   109.8000471 387.438400
    239    242    244     1   109.8000471 387.438400
    240    239    242     1   109.5600471 388.275200
    240    239    241     1   108.4600466 328.025600
    241    239    242     1   109.5600471 388.275200
    242    251    252     1   109.5600471 388.275200
    242    251    253     1   109.5600471 388.275200
    243    242    251     1   109.8000471 387.438400
    243    242    244     1   107.5800459 329.699200
    244    242    251     1   109.8000471 387.438400
    245    257    258     1   109.5600471 388.275200
    245    257    259     1   109.5600471 388.275200
    246    245    257     1   109.8000471 387.438400
    246    245    247     1   107.5800459 329.699200
    247    245    257     1   109.8000471 387.438400
    248    254    255     1   109.5600471 388.275200
    248    254    256     1   109.5600471 388.275200
    249    248    254     1   109.8000471 387.438400
    249    248    250     1   107.5800459 329.699200
    250    248    254     1   109.8000471 387.438400
    252    251    260     1   109.7800468 425.094400
    252    251    253     1   108.4600466 328.025600
    253    251    260     1   109.7800468 425.094400
    255    254    550     1   109.7800468 425.094400
    255    254    256     1   108.4600466 328.025600
    256    254    550     1   109.7800468 425.094400
    258    257    579     1   109.7800468 425.094400
    258    257    259     1   108.4600466 328.025600
    259    257    579     1   109.7800468 425.094400
    261    262    263     1   109.8800469 414.216000
    261    262    264     1   109.8800469 414.216000
    261    265    266     1   109.8800469 414.216000
    261    265    267     1   109.8800469 414.216000
    261    268    269     1   109.8800469 414.216000
    261    268    270     1   109.8800469 414.216000
    262    274    275     1   109.8000471 387.438400
    262    274    276     1   109.8000471 387.438400
    263    262    274     1   109.5600471 388.275200
    263    262    264     1   108.4600466 328.025600
    264    262    274     1   109.5600471 388.275200
    265    277    278     1   109.8000471 387.438400
    265    277    279     1   109.8000471 387.438400
    266    265    277     1   109.5600471 388.275200
    266    265    267     1   108.4600466 328.025600
    267    265    277     1   109.5600471 388.275200
    268    271    272     1   109.8000471 387.438400
    268    271    273     1   109.8000471 387.438400
    269    268    271     1   109.5600471 388.275200
    269    268    270     1   108.4600466 328.025600
    270    268    271     1   109.5600471 388.275200
    271    280    281     1   109.5600471 388.275200
    271    280    282     1   109.5600471 388.275200
    272    271    280     1   109.8000471 387.438400
    272    271    273     1   107.5800459 329.699200
    273    271    280     1   109.8000471 387.438400
    274    286    287     1   109.5600471 388.275200
    274    286    288     1   109.5600471 388.275200
    275    274    286     1   109.8000471 387.438400
    275    274    276     1   107.5800459 329.699200
    276    274    286     1   109.8000471 387.438400
    277    283    284     1   109.5600471 388.275200
    277    283    285     1   109.5600471 388.275200
    278    277    283     1   109.8000471 387.438400
    278    277    279     1   107.5800459 329.699200
    279    277    283     1   109.8000471 387.438400
    281    280    289     1   109.7800468 425.094400
    281    280    282     1   108.4600466 328.025600
    282    280    289     1   109.7800468 425.094400
    284    283    608     1   109.7800468 425.094400
    284    283    285     1   108.4600466 328.025600
    285    283    608     1   109.7800468 425.094400
    287    286    637     1   109.7800468 425.094400
    287    286    288     1   108.4600466 328.025600
    288    286    637     1   109.7800468 425.094400
    290    291    292     1   109.8800469 414.216000
    290    291    293     1   109.8800469 414.216000
    290    294    295     1   109.8800469 414.216000
    290    294    296     1   109.8800469 414.216000
    290    297    298     1   109.8800469 414.216000
    290    297    299     1   109.8800469 414.216000
    291    303    304     1   109.8000471 387.438400
    291    303    305     1   109.8000471 387.438400
    292    291    303     1   109.5600471 388.275200
    292    291    293     1   108.4600466 328.025600
    293    291    303     1   109.5600471 388.275200
    294    306    307     1   109.8000471 387.438400
    294    306    308     1   109.8000471 387.438400
    295    294    306     1   109.5600471 388.275200
    295    294    296     1   108.4600466 328.025600
    296    294    306     1   109.5600471 388.275200
    297    300    301     1   109.8000471 387.438400
    297    300    302     1   109.8000471 387.438400
    298    297    300     1   109.5600471 388.275200
    298    297    299     1   108.4600466 328.025600
    299    297    300     1   109.5600471 388.275200
    300    309    310     1   109.5600471 388.275200
    300    309    311     1   109.5600471 388.275200
    301    300    309     1   109.8000471 387.438400
    301    300    302     1   107.5800459 329.699200
    302    300    309     1   109.8000471 387.438400
    303    315    316     1   109.5600471 388.275200
    303    315    317     1   109.5600471 388.275200
    304    303    315     1   109.8000471 387.438400
    304    303    305     1   107.5800459 329.699200
    305    303    315     1   109.8000471 387.438400
    306    312    313     1   109.5600471 388.275200
    306    312    314     1   109.5600471 388.275200
    307    306    312     1   109.8000471 387.438400
    307    306    308     1   107.5800459 329.699200
    308    306    312     1   109.8000471 387.438400
    310    309    318     1   109.7800468 425.094400
    310    309    311     1   108.4600466 328.025600
    311    309    318     1   109.7800468 425.094400
    313    312    666     1   109.7800468 425.094400
    313    312    314     1   108.4600466 328.025600
    314    312    666     1   109.7800468 425.094400
    316    315    695     1   109.7800468 425.094400
    316    315    317     1   108.4600466 328.025600
    317    315    695     1   109.7800468 425.094400
    319    320    321     1   109.8800469 414.216000
    319    320    322     1   109.8800469 414.216000
    319    323    324     1   109.8800469 414.216000
    319    323    325     1   109.8800469 414.216000
    319    326    327     1   109.8800469 414.216000
    319    326    328     1   109.8800469 414.216000
    320    332    333     1   109.8000471 387.438400
    320    332    334     1   109.8000471 387.438400
    321    320    332     1   109.5600471 388.275200
    321    320    322     1   108.4600466 328.025600
    322    320    332     1   109.5600471 388.275200
    323    335    336     1   109.8000471 387.438400
    323    335    337     1   109.8000471 387.438400
    324    323    335     1   109.5600471 388.275200
    324    323    325     1   108.4600466 328.025600
    325    323    335     1   109.5600471 388.275200
    326    329    330     1   109.8000471 387.438400
    326    329    331     1   109.8000471 387.438400
    327    326    329     1   109.5600471 388.275200
    327    326    328     1   108.4600466 328.025600
    328    326    329     1   109.5600471 388.275200
    329    338    339     1   109.5600471 388.275200
    329    338    340     1   109.5600471 388.275200
    330    329    338     1   109.8000471 387.438400
    330    329    331     1   107.5800459 329.699200
    331    329    338     1   109.8000471 387.438400
    332    344    345     1   109.5600471 388.275200
    332    344    346     1   109.5600471 388.275200
    333    332    344     1   109.8000471 387.438400
    333    332    334     1   107.5800459 329.699200
    334    332    344     1   109.8000471 387.438400
    335    341    342     1   109.5600471 388.275200
    335    341    343     1   109.5600471 388.275200
    336    335    341     1   109.8000471 387.438400
    336    335    337     1   107.5800459 329.699200
    337    335    341     1   109.8000471 387.438400
    339    338    347     1   109.7800468 425.094400
    339    338    340     1   108.4600466 328.025600
    340    338    347     1   109.7800468 425.094400
    342    341    724     1   109.7800468 425.094400
    342    341    343     1   108.4600466 328.025600
    343    341    724     1   109.7800468 425.094400
    345    344    753     1   109.7800468 425.094400
    345    344    346     1   108.4600466 328.025600
    346    344    753     1   109.7800468 425.094400
    348    349    350     1   109.8800469 414.216000
    348    349    351     1   109.8800469 414.216000
    348    352    353     1   109.8800469 414.216000
    348    352    354     1   109.8800469 414.216000
    348    355    356     1   109.8800469 414.216000
    348    355    357     1   109.8800469 414.216000
    349    361    362     1   109.8000471 387.438400
    349    361    363     1   109.8000471 387.438400
    350    349    361     1   109.5600471 388.275200
    350    349    351     1   108.4600466 328.025600
    351    349    361     1   109.5600471 388.275200
    352    364    365     1   109.8000471 387.438400
    352    364    366     1   109.8000471 387.438400
    353    352    364     1   109.5600471 388.275200
    353    352    354     1   108.4600466 328.025600
    354    352    364     1   109.5600471 388.275200
    355    358    359     1   109.8000471 387.438400
    355    358    360     1   109.8000471 387.438400
    356    355    358     1   109.5600471 388.275200
    356    355    357     1   108.4600466 328.025600
    357    355    358     1   109.5600471 388.275200
    358    367    368     1   109.5600471 388.275200
    358    367    369     1   109.5600471 388.275200
    359    358    367     1   109.8000471 387.438400
    359    358    360     1   107.5800459 329.699200
    360    358    367     1   109.8000471 387.438400
    361    373    374     1   109.5600471 388.275200
    361    373    375     1   109.5600471 388.275200
    362    361    373     1   109.8000471 387.438400
    362    361    363     1   107.5800459 329.699200
    363    361    373     1   109.8000471 387.438400
    364    370    371     1   109.5600471 388.275200
    364    370    372     1   109.5600471 388.275200
    365    364    370     1   109.8000471 387.438400
    365    364    366     1   107.5800459 329.699200
    366    364    370     1   109.8000471 387.438400
    368    367    376     1   109.7800468 425.094400
    368    367    369     1   108.4600466 328.025600
    369    367    376     1   109.7800468 425.094400
    371    370    782     1   109.7800468 425.094400
    371    370    372     1   108.4600466 328.025600
    372    370    782     1   109.7800468 425.094400
    374    373    811     1   109.7800468 425.094400
    374    373    375     1   108.4600466 328.025600
    375    373    811     1   109.7800468 425.094400
    377    378    379     1   109.8800469 414.216000
    377    378    380     1   109.8800469 414.216000
    377    381    382     1   109.8800469 414.216000
    377    381    383     1   109.8800469 414.216000
    377    384    385     1   109.8800469 414.216000
    377    384    386     1   109.8800469 414.216000
    378    390    391     1   109.8000471 387.438400
    378    390    392     1   109.8000471 387.438400
    379    378    390     1   109.5600471 388.275200
    379    378    380     1   108.4600466 328.025600
    380    378    390     1   109.5600471 388.275200
    381    393    394     1   109.8000471 387.438400
    381    393    395     1   109.8000471 387.438400
    382    381    393     1   109.5600471 388.275200
    382    381    383     1   108.4600466 328.025600
    383    381    393     1   109.5600471 388.275200
    384    387    388     1   109.8000471 387.438400
    384    387    389     1   109.8000471 387.438400
    385    384    387     1   109.5600471 388.275200
    385    384    386     1   108.4600466 328.025600
    386    384    387     1   109.5600471 388.275200
    387    396    397     1   109.5600471 388.275200
    387    396    398     1   109.5600471 388.275200
    388    387    396     1   109.8000471 387.438400
    388    387    389     1   107.5800459 329.699200
    389    387    396     1   109.8000471 387.438400
    390    402    403     1   109.5600471 388.275200
    390    402    404     1   109.5600471 388.275200
    391    390    402     1   109.8000471 387.438400
    391    390    392     1   107.5800459 329.699200
    392    390    402     1   109.8000471 387.438400
    393    399    400     1   109.5600471 388.275200
    393    399    401     1   109.5600471 388.275200
    394    393    399     1   109.8000471 387.438400
    394    393    395     1   107.5800459 329.699200
    395    393    399     1   109.8000471 387.438400
    397    396    405     1   109.7800468 425.094400
    397    396    398     1   108.4600466 328.025600
    398    396    405     1   109.7800468 425.094400
    400    399    840     1   109.7800468 425.094400
    400    399    401     1   108.4600466 328.025600
    401    399    840     1   109.7800468 425.094400
    403    402    869     1   109.7800468 425.094400
    403    402    404     1   108.4600466 328.025600
    404    402    869     1   109.7800468 425.094400
    406    409    410     1   109.8000471 387.438400
    406    409    411     1   109.8000471 387.438400
    407    406    409     1   109.5600471 388.275200
    407    406    434     1   109.7800468 425.094400
    407    406    408     1   108.4600466 328.025600
    408    406    409     1   109.5600471 388.275200
    408    406    434     1   109.7800468 425.094400
    409    412    413     1   109.5600471 388.275200
    409    412    414     1   109.5600471 388.275200
    410    409    412     1   109.8000471 387.438400
    410    409    411     1   107.5800459 329.699200
    411    409    412     1   109.8000471 387.438400
    413    412    415     1   109.8800469 414.216000
    413    412    414     1   108.4600466 328.025600
    414    412    415     1   109.8800469 414.216000
    415    416    417     1   109.8800469 414.216000
    415    416    418     1   109.8800469 414.216000
    415    425    426     1   109.8800469 414.216000
    415    425    427     1   109.8800469 414.216000
    416    419    420     1   109.8000471 387.438400
    416    419    421     1   109.8000471 387.438400
    417    416    419     1   109.5600471 388.275200
    417    416    418     1   108.4600466 328.025600
    418    416    419     1   109.5600471 388.275200
    420    419    422     1   108.7700466 392.459200
    420    419    421     1   107.5800459 329.699200
    421    419    422     1   108.7700466 392.459200
    425    428    429     1   109.8000471 387.438400
    425    428    430     1   109.8000471 387.438400
    426    425    428     1   109.5600471 388.275200
    426    425    427     1   108.4600466 328.025600
    427    425    428     1   109.5600471 388.275200
    429    428    431     1   108.7700466 392.459200
    429    428    430     1   107.5800459 329.699200
    430    428    431     1   108.7700466 392.459200
    435    438    439     1   109.8000471 387.438400
    435    438    440     1   109.8000471 387.438400
    436    435    438     1   109.5600471 388.275200
    436    435    463     1   109.7800468 425.094400
    436    435    437     1   108.4600466 328.025600
    437    435    438     1   109.5600471 388.275200
    437    435    463     1   109.7800468 425.094400
    438    441    442     1   109.5600471 388.275200
    438    441    443     1   109.5600471 388.275200
    439    438    441     1   109.8000471 387.438400
    439    438    440     1   107.5800459 329.699200
    440    438    441     1   109.8000471 387.438400
    442    441    444     1   109.8800469 414.216000
    442    441    443     1   108.4600466 328.025600
    443    441    444     1   109.8800469 414.216000
    444    445    446     1   109.8800469 414.216000
    444    445    447     1   109.8800469 414.216000
    444    454    455     1   109.8800469 414.216000
    444    454    456     1   109.8800469 414.216000
    445    448    449     1   109.8000471 387.438400
    445    448    450     1   109.8000471 387.438400
    446    445    448     1   109.5600471 388.275200
    446    445    447     1   108.4600466 328.025600
    447    445    448     1   109.5600471 388.275200
    449    448    451     1   108.7700466 392.459200
    449    448    450     1   107.5800459 329.699200
    450    448    451     1   108.7700466 392.459200
    454    457    458     1   109.8000471 387.438400
    454    457    459     1   109.8000471 387.438400
    455    454    457     1   109.5600471 388.275200
    455    454    456     1   108.4600466 328.025600
    456    454    457     1   109.5600471 388.275200
    458    457    460     1   108.7700466 392.459200
    458    457    459     1   107.5800459 329.699200
    459    457    460     1   108.7700466 392.459200
    464    467    468     1   109.8000471 387.438400
    464    467    469     1   109.8000471 387.438400
    465    464    467     1   109.5600471 388.275200
    465    464    492     1   109.7800468 425.094400
    465    464    466     1   108.4600466 328.025600
    466    464    467     1   109.5600471 388.275200
    466    464    492     1   109.7800468 425.094400
    467    470    471     1   109.5600471 388.275200
    467    470    472     1   109.5600471 388.275200
    468    467    470     1   109.8000471 387.438400
    468    467    469     1   107.5800459 329.699200
    469    467    470     1   109.8000471 387.438400
    471    470    473     1   109.8800469 414.216000
    471    470    472     1   108.4600466 328.025600
    472    470    473     1   109.8800469 414.216000
    473    474    475     1   109.8800469 414.216000
    473    474    476     1   109.8800469 414.216000
    473    483    484     1   109.8800469 414.216000
    473    483    485     1   109.8800469 414.216000
    474    477    478     1   109.8000471 387.438400
    474    477    479     1   109.8000471 387.438400
    475    474    477     1   109.5600471 388.275200
    475    474    476     1   108.4600466 328.025600
    476    474    477     1   109.5600471 388.275200
    478    477    480     1   108.7700466 392.459200
    478    477    479     1   107.5800459 329.699200
    479    477    480     1   108.7700466 392.459200
    483    486    487     1   109.8000471 387.438400
    483    486    488     1   109.8000471 387.438400
    484    483    486     1   109.5600471 388.275200
    484    483    485     1   108.4600466 328.025600
    485    483    486     1   109.5600471 388.275200
    487    486    489     1   108.7700466 392.459200
    487    486    488     1   107.5800459 329.699200
    488    486    489     1   108.7700466 392.459200
    493    496    497     1   109.8000471 387.438400
    493    496    498     1   109.8000471 387.438400
    494    493    496     1   109.5600471 388.275200
    494    493    521     1   109.7800468 425.094400
    494    493    495     1   108.4600466 328.025600
    495    493    496     1   109.5600471 388.275200
    495    493    521     1   109.7800468 425.094400
    496    499    500     1   109.5600471 388.275200
    496    499    501     1   109.5600471 388.275200
    497    496    499     1   109.8000471 387.438400
    497    496    498     1   107.5800459 329.699200
    498    496    499     1   109.8000471 387.438400
    500    499    502     1   109.8800469 414.216000
    500    499    501     1   108.4600466 328.025600
    501    499    502     1   109.8800469 414.216000
    502    503    504     1   109.8800469 414.216000
    502    503    505     1   109.8800469 414.216000
    502    512    513     1   109.8800469 414.216000
    502    512    514     1   109.8800469 414.216000
    503    506    507     1   109.8000471 387.438400
    503    506    508     1   109.8000471 387.438400
    504    503    506     1   109.5600471 388.275200
    504    503    505     1   108.4600466 328.025600
    505    503    506     1   109.5600471 388.275200
    507    506    509     1   108.7700466 392.459200
    507    506    508     1   107.5800459 329.699200
    508    506    509     1   108.7700466 392.459200
    512    515    516     1   109.8000471 387.438400
    512    515    517     1   109.8000471 387.438400
    513    512    515     1   109.5600471 388.275200
    513    512    514     1   108.4600466 328.025600
    514    512    515     1   109.5600471 388.275200
    516    515    518     1   108.7700466 392.459200
    516    515    517     1   107.5800459 329.699200
    517    515    518     1   108.7700466 392.459200
    522    525    526     1   109.8000471 387.438400
    522    525    527     1   109.8000471 387.438400
    523    522    525     1   109.5600471 388.275200
    523    522    550     1   109.7800468 425.094400
    523    522    524     1   108.4600466 328.025600
    524    522    525     1   109.5600471 388.275200
    524    522    550     1   109.7800468 425.094400
    525    528    529     1   109.5600471 388.275200
    525    528    530     1   109.5600471 388.275200
    526    525    528     1   109.8000471 387.438400
    526    525    527     1   107.5800459 329.699200
    527    525    528     1   109.8000471 387.438400
    529    528    531     1   109.8800469 414.216000
    529    528    530     1   108.4600466 328.025600
    530    528    531     1   109.8800469 414.216000
    531    532    533     1   109.8800469 414.216000
    531    532    534     1   109.8800469 414.216000
    531    541    542     1   109.8800469 414.216000
    531    541    543     1   109.8800469 414.216000
    532    535    536     1   109.8000471 387.438400
    532    535    537     1   109.8000471 387.438400
    533    532    535     1   109.5600471 388.275200
    533    532    534     1   108.4600466 328.025600
    534    532    535     1   109.5600471 388.275200
    536    535    538     1   108.7700466 392.459200
    536    535    537     1   107.5800459 329.699200
    537    535    538     1   108.7700466 392.459200
    541    544    545     1   109.8000471 387.438400
    541    544    546     1   109.8000471 387.438400
    542    541    544     1   109.5600471 388.275200
    542    541    543     1   108.4600466 328.025600
    543    541    544     1   109.5600471 388.275200
    545    544    547     1   108.7700466 392.459200
    545    544    546     1   107.5800459 329.699200
    546    544    547     1   108.7700466 392.459200
    551    554    555     1   109.8000471 387.438400
    551    554    556     1   109.8000471 387.438400
    552    551    554     1   109.5600471 388.275200
    552    551    579     1   109.7800468 425.094400
    552    551    553     1   108.4600466 328.025600
    553    551    554     1   109.5600471 388.275200
    553    551    579     1   109.7800468 425.094400
    554    557    558     1   109.5600471 388.275200
    554    557    559     1   109.5600471 388.275200
    555    554    557     1   109.8000471 387.438400
    555    554    556     1   107.5800459 329.699200
    556    554    557     1   109.8000471 387.438400
    558    557    560     1   109.8800469 414.216000
    558    557    559     1   108.4600466 328.025600
    559    557    560     1   109.8800469 414.216000
    560    561    562     1   109.8800469 414.216000
    560    561    563     1   109.8800469 414.216000
    560    570    571     1   109.8800469 414.216000
    560    570    572     1   109.8800469 414.216000
    561    564    565     1   109.8000471 387.438400
    561    564    566     1   109.8000471 387.438400
    562    561    564     1   109.5600471 388.275200
    562    561    563     1   108.4600466 328.025600
    563    561    564     1   109.5600471 388.275200
    565    564    567     1   108.7700466 392.459200
    565    564    566     1   107.5800459 329.699200
    566    564    567     1   108.7700466 392.459200
    570    573    574     1   109.8000471 387.438400
    570    573    575     1   109.8000471 387.438400
    571    570    573     1   109.5600471 388.275200
    571    570    572     1   108.4600466 328.025600
    572    570    573     1   109.5600471 388.275200
    574    573    576     1   108.7700466 392.459200
    574    573    575     1   107.5800459 329.699200
    575    573    576     1   108.7700466 392.459200
    580    583    584     1   109.8000471 387.438400
    580    583    585     1   109.8000471 387.438400
    581    580    583     1   109.5600471 388.275200
    581    580    608     1   109.7800468 425.094400
    581    580    582     1   108.4600466 328.025600
    582    580    583     1   109.5600471 388.275200
    582    580    608     1   109.7800468 425.094400
    583    586    587     1   109.5600471 388.275200
    583    586    588     1   109.5600471 388.275200
    584    583    586     1   109.8000471 387.438400
    584    583    585     1   107.5800459 329.699200
    585    583    586     1   109.8000471 387.438400
    587    586    589     1   109.8800469 414.216000
    587    586    588     1   108.4600466 328.025600
    588    586    589     1   109.8800469 414.216000
    589    590    591     1   109.8800469 414.216000
    589    590    592     1   109.8800469 414.216000
    589    599    600     1   109.8800469 414.216000
    589    599    601     1   109.8800469 414.216000
    590    593    594     1   109.8000471 387.438400
    590    593    595     1   109.8000471 387.438400
    591    590    593     1   109.5600471 388.275200
    591    590    592     1   108.4600466 328.025600
    592    590    593     1   109.5600471 388.275200
    594    593    596     1   108.7700466 392.459200
    594    593    595     1   107.5800459 329.699200
    595    593    596     1   108.7700466 392.459200
    599    602    603     1   109.8000471 387.438400
    599    602    604     1   109.8000471 387.438400
    600    599    602     1   109.5600471 388.275200
    600    599    601     1   108.4600466 328.025600
    601    599    602     1   109.5600471 388.275200
    603    602    605     1   108.7700466 392.459200
    603    602    604     1   107.5800459 329.699200
    604    602    605     1   108.7700466 392.459200
    609    612    613     1   109.8000471 387.438400
    609    612    614     1   109.8000471 387.438400
    610    609    612     1   109.5600471 388.275200
    610    609    637     1   109.7800468 425.094400
    610    609    611     1   108.4600466 328.025600
    611    609    612     1   109.5600471 388.275200
    611    609    637     1   109.7800468 425.094400
    612    615    616     1   109.5600471 388.275200
    612    615    617     1   109.5600471 388.275200
    613    612    615     1   109.8000471 387.438400
    613    612    614     1   107.5800459 329.699200
    614    612    615     1   109.8000471 387.438400
    616    615    618     1   109.8800469 414.216000
    616    615    617     1   108.4600466 328.025600
    617    615    618     1   109.8800469 414.216000
    618    619    620     1   109.8800469 414.216000
    618    619    621     1   109.8800469 414.216000
    618    628    629     1   109.8800469 414.216000
    618    628    630     1   109.8800469 414.216000
    619    622    623     1   109.8000471 387.438400
    619    622    624     1   109.8000471 387.438400
    620    619    622     1   109.5600471 388.275200
    620    619    621     1   108.4600466 328.025600
    621    619    622     1   109.5600471 388.275200
    623    622    625     1   108.7700466 392.459200
    623    622    624     1   107.5800459 329.699200
    624    622    625     1   108.7700466 392.459200
    628    631    632     1   109.8000471 387.438400
    628    631    633     1   109.8000471 387.438400
    629    628    631     1   109.5600471 388.275200
    629    628    630     1   108.4600466 328.025600
    630    628    631     1   109.5600471 388.275200
    632    631    634     1   108.7700466 392.459200
    632    631    633     1   107.5800459 329.699200
    633    631    634     1   108.7700466 392.459200
    638    641    642     1   109.8000471 387.438400
    638    641    643     1   109.8000471 387.438400
    639    638    641     1   109.5600471 388.275200
    639    638    666     1   109.7800468 425.094400
    639    638    640     1   108.4600466 328.025600
    640    638    641     1   109.5600471 388.275200
    640    638    666     1   109.7800468 425.094400
    641    644    645     1   109.5600471 388.275200
    641    644    646     1   109.5600471 388.275200
    642    641    644     1   109.8000471 387.438400
    642    641    643     1   107.5800459 329.699200
    643    641    644     1   109.8000471 387.438400
    645    644    647     1   109.8800469 414.216000
    645    644    646     1   108.4600466 328.025600
    646    644    647     1   109.8800469 414.216000
    647    648    649     1   109.8800469 414.216000
    647    648    650     1   109.8800469 414.216000
    647    657    658     1   109.8800469 414.216000
    647    657    659     1   109.8800469 414.216000
    648    651    652     1   109.8000471 387.438400
    648    651    653     1   109.8000471 387.438400
    649    648    651     1   109.5600471 388.275200
    649    648    650     1   108.4600466 328.025600
    650    648    651     1   109.5600471 388.275200
    652    651    654     1   108.7700466 392.459200
    652    651    653     1   107.5800459 329.699200
    653    651    654     1   108.7700466 392.459200
    657    660    661     1   109.8000471 387.438400
    657    660    662     1   109.8000471 387.438400
    658    657    660     1   109.5600471 388.275200
    658    657    659     1   108.4600466 328.025600
    659    657    660     1   109.5600471 388.275200
    661    660    663     1   108.7700466 392.459200
    661    660    662     1   107.5800459 329.699200
    662    660    663     1   108.7700466 392.459200
    667    670    671     1   109.8000471 387.438400
    667    670    672     1   109.8000471 387.438400
    668    667    670     1   109.5600471 388.275200
    668    667    695     1   109.7800468 425.094400
    668    667    669     1   108.4600466 328.025600
    669    667    670     1   109.5600471 388.275200
    669    667    695     1   109.7800468 425.094400
    670    673    674     1   109.5600471 388.275200
    670    673    675     1   109.5600471 388.275200
    671    670    673     1   109.8000471 387.438400
    671    670    672     1   107.5800459 329.699200
    672    670    673     1   109.8000471 387.438400
    674    673    676     1   109.8800469 414.216000
    674    673    675     1   108.4600466 328.025600
    675    673    676     1   109.8800469 414.216000
    676    677    678     1   109.8800469 414.216000
    676    677    679     1   109.8800469 414.216000
    676    686    687     1   109.8800469 414.216000
    676    686    688     1   109.8800469 414.216000
    677    680    681     1   109.8000471 387.438400
    677    680    682     1   109.8000471 387.438400
    678    677    680     1   109.5600471 388.275200
    678    677    679     1   108.4600466 328.025600
    679    677    680     1   109.5600471 388.275200
    681    680    683     1   108.7700466 392.459200
    681    680    682     1   107.5800459 329.699200
    682    680    683     1   108.7700466 392.459200
    686    689    690     1   109.8000471 387.438400
    686    689    691     1   109.8000471 387.438400
    687    686    689     1   109.5600471 388.275200
    687    686    688     1   108.4600466 328.025600
    688    686    689     1   109.5600471 388.275200
    690    689    692     1   108.7700466 392.459200
    690    689    691     1   107.5800459 329.699200
    691    689    692     1   108.7700466 392.459200
    696    699    700     1   109.8000471 387.438400
    696    699    701     1   109.8000471 387.438400
    697    696    699     1   109.5600471 388.275200
    697    696    724     1   109.7800468 425.094400
    697    696    698     1   108.4600466 328.025600
    698    696    699     1   109.5600471 388.275200
    698    696    724     1   109.7800468 425.094400
    699    702    703     1   109.5600471 388.275200
    699    702    704     1   109.5600471 388.275200
    700    699    702     1   109.8000471 387.438400
    700    699    701     1   107.5800459 329.699200
    701    699    702     1   109.8000471 387.438400
    703    702    705     1   109.8800469 414.216000
    703    702    704     1   108.4600466 328.025600
    704    702    705     1   109.8800469 414.216000
    705    706    707     1   109.8800469 414.216000
    705    706    708     1   109.8800469 414.216000
    705    715    716     1   109.8800469 414.216000
    705    715    717     1   109.8800469 414.216000
    706    709    710     1   109.8000471 387.438400
    706    709    711     1   109.8000471 387.438400
    707    706    709     1   109.5600471 388.275200
    707    706    708     1   108.4600466 328.025600
    708    706    709     1   109.5600471 388.275200
    710    709    712     1   108.7700466 392.459200
    710    709    711     1   107.5800459 329.699200
    711    709    712     1   108.7700466 392.459200
    715    718    719     1   109.8000471 387.438400
    715    718    720     1   109.8000471 387.438400
    716    715    718     1   109.5600471 388.275200
    716    715    717     1   108.4600466 328.025600
    717    715    718     1   109.5600471 388.275200
    719    718    721     1   108.7700466 392.459200
    719    718    720     1   107.5800459 329.699200
    720    718    721     1   108.7700466 392.459200
    725    728    729     1   109.8000471 387.438400
    725    728    730     1   109.8000471 387.438400
    726    725    728     1   109.5600471 388.275200
    726    725    753     1   109.7800468 425.094400
    726    725    727     1   108.4600466 328.025600
    727    725    728     1   109.5600471 388.275200
    727    725    753     1   109.7800468 425.094400
    728    731    732     1   109.5600471 388.275200
    728    731    733     1   109.5600471 388.275200
    729    728    731     1   109.8000471 387.438400
    729    728    730     1   107.5800459 329.699200
    730    728    731     1   109.8000471 387.438400
    732    731    734     1   109.8800469 414.216000
    732    731    733     1   108.4600466 328.025600
    733    731    734     1   109.8800469 414.216000
    734    735    736     1   109.8800469 414.216000
    734    735    737     1   109.8800469 414.216000
    734    744    745     1   109.8800469 414.216000
    734    744    746     1   109.8800469 414.216000
    735    738    739     1   109.8000471 387.438400
    735    738    740     1   109.8000471 387.438400
    736    735    738     1   109.5600471 388.275200
    736    735    737     1   108.4600466 328.025600
    737    735    738     1   109.5600471 388.275200
    739    738    741     1   108.7700466 392.459200
    739    738    740     1   107.5800459 329.699200
    740    738    741     1   108.7700466 392.459200
    744    747    748     1   109.8000471 387.438400
    744    747    749     1   109.8000471 387.438400
    745    744    747     1   109.5600471 388.275200
    745    744    746     1   108.4600466 328.025600
    746    744    747     1   109.5600471 388.275200
    748    747    750     1   108.7700466 392.459200
    748    747    749     1   107.5800459 329.699200
    749    747    750     1   108.7700466 392.459200
    754    757    758     1   109.8000471 387.438400
    754    757    759     1   109.8000471 387.438400
    755    754    757     1   109.5600471 388.275200
    755    754    782     1   109.7800468 425.094400
    755    754    756     1   108.4600466 328.025600
    756    754    757     1   109.5600471 388.275200
    756    754    782     1   109.7800468 425.094400
    757    760    761     1   109.5600471 388.275200
    757    760    762     1   109.5600471 388.275200
    758    757    760     1   109.8000471 387.438400
    758    757    759     1   107.5800459 329.699200
    759    757    760     1   109.8000471 387.438400
    761    760    763     1   109.8800469 414.216000
    761    760    762     1   108.4600466 328.025600
    762    760    763     1   109.8800469 414.216000
    763    764    765     1   109.8800469 414.216000
    763    764    766     1   109.8800469 414.216000
    763    773    774     1   109.8800469 414.216000
    763    773    775     1   109.8800469 414.216000
    764    767    768     1   109.8000471 387.438400
    764    767    769     1   109.8000471 387.438400
    765    764    767     1   109.5600471 388.275200
    765    764    766     1   108.4600466 328.025600
    766    764    767     1   109.5600471 388.275200
    768    767    770     1   108.7700466 392.459200
    768    767    769     1   107.5800459 329.699200
    769    767    770     1   108.7700466 392.459200
    773    776    777     1   109.8000471 387.438400
    773    776    778     1   109.8000471 387.438400
    774    773    776     1   109.5600471 388.275200
    774    773    775     1   108.4600466 328.025600
    775    773    776     1   109.5600471 388.275200
    777    776    779     1   108.7700466 392.459200
    777    776    778     1   107.5800459 329.699200
    778    776    779     1   108.7700466 392.459200
    783    786    787     1   109.8000471 387.438400
    783    786    788     1   109.8000471 387.438400
    784    783    786     1   109.5600471 388.275200
    784    783    811     1   109.7800468 425.094400
    784    783    785     1   108.4600466 328.025600
    785    783    786     1   109.5600471 388.275200
    785    783    811     1   109.7800468 425.094400
    786    789    790     1   109.5600471 388.275200
    786    789    791     1   109.5600471 388.275200
    787    786    789     1   109.8000471 387.438400
    787    786    788     1   107.5800459 329.699200
    788    786    789     1   109.8000471 387.438400
    790    789    792     1   109.8800469 414.216000
    790    789    791     1   108.4600466 328.025600
    791    789    792     1   109.8800469 414.216000
    792    793    794     1   109.8800469 414.216000
    792    793    795     1   109.8800469 414.216000
    792    802    803     1   109.8800469 414.216000
    792    802    804     1   109.8800469 414.216000
    793    796    797     1   109.8000471 387.438400
    793    796    798     1   109.8000471 387.438400
    794    793    796     1   109.5600471 388.275200
    794    793    795     1   108.4600466 328.025600
    795    793    796     1   109.5600471 388.275200
    797    796    799     1   108.7700466 392.459200
    797    796    798     1   107.5800459 329.699200
    798    796    799     1   108.7700466 392.459200
    802    805    806     1   109.8000471 387.438400
    802    805    807     1   109.8000471 387.438400
    803    802    805     1   109.5600471 388.275200
    803    802    804     1   108.4600466 328.025600
    804    802    805     1   109.5600471 388.275200
    806    805    808     1   108.7700466 392.459200
    806    805    807     1   107.5800459 329.699200
    807    805    808     1   108.7700466 392.459200
    812    815    816     1   109.8000471 387.438400
    812    815    817     1   109.8000471 387.438400
    813    812    815     1   109.5600471 388.275200
    813    812    840     1   109.7800468 425.094400
    813    812    814     1   108.4600466 328.025600
    814    812    815     1   109.5600471 388.275200
    814    812    840     1   109.7800468 425.094400
    815    818    819     1   109.5600471 388.275200
    815    818    820     1   109.5600471 388.275200
    816    815    818     1   109.8000471 387.438400
    816    815    817     1   107.5800459 329.699200
    817    815    818     1   109.8000471 387.438400
    819    818    821     1   109.8800469 414.216000
    819    818    820     1   108.4600466 328.025600
    820    818    821     1   109.8800469 414.216000
    821    822    823     1   109.8800469 414.216000
    821    822    824     1   109.8800469 414.216000
    821    831    832     1   109.8800469 414.216000
    821    831    833     1   109.8800469 414.216000
    822    825    826     1   109.8000471 387.438400
    822    825    827     1   109.8000471 387.438400
    823    822    825     1   109.5600471 388.275200
    823    822    824     1   108.4600466 328.025600
    824    822    825     1   109.5600471 388.275200
    826    825    828     1   108.7700466 392.459200
    826    825    827     1   107.5800459 329.699200
    827    825    828     1   108.7700466 392.459200
    831    834    835     1   109.8000471 387.438400
    831    834    836     1   109.8000471 387.438400
    832    831    834     1   109.5600471 388.275200
    832    831    833     1   108.4600466 328.025600
    833    831    834     1   109.5600471 388.275200
    835    834    837     1   108.7700466 392.459200
    835    834    836     1   107.5800459 329.699200
    836    834    837     1   108.7700466 392.459200
    841    844    845     1   109.8000471 387.438400
    841    844    846     1   109.8000471 387.438400
    842    841    844     1   109.5600471 388.275200
    842    841    869     1   109.7800468 425.094400
    842    841    843     1   108.4600466 328.025600
    843    841    844     1   109.5600471 388.275200
    843    841    869     1   109.7800468 425.094400
    844    847    848     1   109.5600471 388.275200
    844    847    849     1   109.5600471 388.275200
    845    844    847     1   109.8000471 387.438400
    845    844    846     1   107.5800459 329.699200
    846    844    847     1   109.8000471 387.438400
    848    847    850     1   109.8800469 414.216000
    848    847    849     1   108.4600466 328.025600
    849    847    850     1   109.8800469 414.216000
    850    851    852     1   109.8800469 414.216000
    850    851    853     1   109.8800469 414.216000
    850    860    861     1   109.8800469 414.216000
    850    860    862     1   109.8800469 414.216000
    851    854    855     1   109.8000471 387.438400
    851    854    856     1   109.8000471 387.438400
    852    851    854     1   109.5600471 388.275200
    852    851    853     1   108.4600466 328.025600
    853    851    854     1   109.5600471 388.275200
    855    854    857     1   108.7700466 392.459200
    855    854    856     1   107.5800459 329.699200
    856    854    857     1   108.7700466 392.459200
    860    863    864     1   109.8000471 387.438400
    860    863    865     1   109.8000471 387.438400
    861    860    863     1   109.5600471 388.275200
    861    860    862     1   108.4600466 328.025600
    862    860    863     1   109.5600471 388.275200
    864    863    866     1   108.7700466 392.459200
    864    863    865     1   107.5800459 329.699200
    865    863    866     1   108.7700466 392.459200

[ dihedrals ]
;    ai     aj     ak     al funct         c0         c1         c2         c3         c4         c5
      1      2      8     14     1  0.0000000  0.6508444  3
      1      5     11     17     1  0.0000000  0.6508444  3
      2      1      5     11     1  180.0000771  0.4184000  2
      2      1      5     11     1  0.0000000  1.6024720  3
      2      8     14     20     1  0.0000000  0.6508444  3
      5      1      2      8     1  180.0000771  0.4184000  2
      5      1      2      8     1  0.0000000  1.6024720  3
      5     11     17     21     1  0.0000000  0.6508444  3
      8     14     20     28     1  180.0000771  2.0083200  2
      8     14     20     28     1  0.0000000  1.2552000  3
      8     14     20     31     1  180.0000771  2.0083200  2
      8     14     20     31     1  0.0000000  1.2552000  3
     11     17     21     22     1  180.0000771  2.0083200  2
     11     17     21     22     1  0.0000000  1.2552000  3
     11     17     21     25     1  180.0000771  2.0083200  2
     11     17     21     25     1  0.0000000  1.2552000  3
     14     20     28     40     1  180.0000771  2.0083200  2
     14     20     28     40     1  0.0000000  1.2552000  3
     14     20     31     43     1  180.0000771  2.0083200  2
     14     20     31     43     1  0.0000000  1.2552000  3
     17     21     22     34     1  180.0000771  2.0083200  2
     17     21     22     34     1  0.0000000  1.2552000  3
     17     21     25     37     1  180.0000771  2.0083200  2
     17     21     25     37     1  0.0000000  1.2552000  3
     20     28     40     49     1  0.0000000  0.6508444  3
     20     31     43     46     1  0.0000000  0.6508444  3
     21     22     34     55     1  0.0000000  0.6508444  3
     21     25     37     52     1  0.0000000  0.6508444  3
     22     21     25     37     1  180.0000771  2.0083200  2
     22     21     25     37     1  0.0000000  1.2552000  3
     22     34     55    173     1  0.0000000  0.6508444  3
     25     21     22     34     1  180.0000771  2.0083200  2
     25     21     22     34     1  0.0000000  1.2552000  3
     25     37     52    144     1  0.0000000  0.6508444  3
     28     20     31     43     1  180.0000771  2.0083200  2
     28     20     31     43     1  0.0000000  1.2552000  3
     28     40     49    115     1  0.0000000  0.6508444  3
     31     20     28     40     1  180.0000771  2.0083200  2
     31     20     28     40     1  0.0000000  1.2552000  3
     31     43     46     86     1  0.0000000  0.6508444  3
     34     55    173    164     1  180.0000771  0.4184000  2
     34     55    173    164     1  0.0000000  1.6024720  3
     37     52    144    135     1  180.0000771  0.4184000  2
     37     52    144    135     1  0.0000000  1.6024720  3
     40     49    115    106     1  180.0000771  0.4184000  2
     40     49    115    106     1  0.0000000  1.6024720  3
     43     46     86     77     1  180.0000771  0.4184000  2
     43     46     86     77     1  0.0000000  1.6024720  3
     46     86     77     68     1  180.0000771  0.4184000  2
     46     86     77     68     1  0.0000000  1.6024720  3
     49    115    106     97     1  180.0000771  0.4184000  2
     49    115    106     97     1  0.0000000  1.6024720  3
     52    144    135    126     1  180.0000771  0.4184000  2
     52    144    135    126     1  0.0000000  1.6024720  3
     55    173    164    155     1  180.0000771  0.4184000  2
     55    173    164    155     1  0.0000000  1.6024720  3
     58     59     71     83     1  0.0000000  0.6508444  3
     58     62     74     80     1  0.0000000  0.6508444  3
     58     65     68     77     1  0.0000000  0.6508444  3
     59     58     62     74     1  180.0000771  2.0083200  2
     59     58     62     74     1  0.0000000  1.2552000  3
     59     58     65     68     1  180.0000771  2.0083200  2
     59     58     65     68     1  0.0000000  1.2552000  3
     59     71     83    231     1  0.0000000  0.6508444  3
     62     58     59     71     1  180.0000771  2.0083200  2
     62     58     59     71     1  0.0000000  1.2552000  3
     62     58     65     68     1  180.0000771  2.0083200  2
     62     58     65     68     1  0.0000000  1.2552000  3
     62     74     80    202     1  0.0000000  0.6508444  3
     65     58     59     71     1  180.0000771  2.0083200  2
     65     58     59     71     1  0.0000000  1.2552000  3
     65     58     62     74     1  180.0000771  2.0083200  2
     65     58     62     74     1  0.0000000  1.2552000  3
     65     68     77     86     1  0.0000000  0.6508444  3
     71     83    231    222     1  180.0000771  0.4184000  2
     71     83    231    222     1  0.0000000  1.6024720  3
     74     80    202    193     1  180.0000771  0.4184000  2
     74     80    202    193     1  0.0000000  1.6024720  3
     80    202    193    184     1  180.0000771  0.4184000  2
     80    202    193    184     1  0.0000000  1.6024720  3
     83    231    222    213     1  180.0000771  0.4184000  2
     83    231    222    213     1  0.0000000  1.6024720  3
     87     88    100    112     1  0.0000000  0.6508444  3
     87     91    103    109     1  0.0000000  0.6508444  3
     87     94     97    106     1  0.0000000  0.6508444  3
     88     87     91    103     1  180.0000771  2.0083200  2
     88     87     91    103     1  0.0000000  1.2552000  3
     88     87     94     97     1  180.0000771  2.0083200  2
     88     87     94     97     1  0.0000000  1.2552000  3
     88    100    112    289     1  0.0000000  0.6508444  3
     91     87     88    100     1  180.0000771  2.0083200  2
     91     87     88    100     1  0.0000000  1.2552000  3
     91     87     94     97     1  180.0000771  2.0083200  2
     91     87     94     97     1  0.0000000  1.2552000  3
     91    103    109    260     1  0.0000000  0.6508444  3
     94     87     88    100     1  180.0000771  2.0083200  2
     94     87     88    100     1  0.0000000  1.2552000  3
     94     87     91    103     1  180.0000771  2.0083200  2
     94     87     91    103     1  0.0000000  1.2552000  3
     94     97    106    115     1  0.0000000  0.6508444  3
    100    112    289    280     1  180.0000771  0.4184000  2
    100    112    289    280     1  0.0000000  1.6024720  3
    103    109    260    251     1  180.0000771  0.4184000  2
    103    109    260    251     1  0.0000000  1.6024720  3
    109    260    251    242     1  180.0000771  0.4184000  2
    109    260    251    242     1  0.0000000  1.6024720  3
    112    289    280    271     1  180.0000771  0.4184000  2
    112    289    280    271     1  0.0000000  1.6024720  3
    116    117    129    141     1  0.0000000  0.6508444  3
    116    120    132    138     1  0.0000000  0.6508444  3
    116    123    126    135     1  0.0000000  0.6508444  3
    117    116    120    132     1  180.0000771  2.0083200  2
    117    116    120    132     1  0.0000000  1.2552000  3
    117    116    123    126     1  180.0000771  2.0083200  2
    117    116    123    126     1  0.0000000  1.2552000  3
    117    129    141    347     1  0.0000000  0.6508444  3
    120    116    117    129     1  180.0000771  2.0083200  2
    120    116    117    129     1  0.0000000  1.2552000  3
    120    116    123    126     1  180.0000771  2.0083200  2
    120    116    123    126     1  0.0000000  1.2552000  3
    120    132    138    318     1  0.0000000  0.6508444  3
    123    116    117    129     1  180.0000771  2.0083200  2
    123    116    117    129     1  0.0000000  1.2552000  3
    123    116    120    132     1  180.0000771  2.0083200  2
    123    116    120    132     1  0.0000000  1.2552000  3
    123    126    135    144     1  0.0000000  0.6508444  3
    129    141    347    338     1  180.0000771  0.4184000  2
    129    141    347    338     1  0.0000000  1.6024720  3
    132    138    318    309     1  180.0000771  0.4184000  2
    132    138    318    309     1  0.0000000  1.6024720  3
    138    318    309    300     1  180.0000771  0.4184000  2
    138    318    309    300     1  0.0000000  1.6024720  3
    141    347    338    329     1  180.0000771  0.4184000  2
    141    347    338    329     1  0.0000000  1.6024720  3
    145    146    158    170     1  0.0000000  0.6508444  3
    145    149    161    167     1  0.0000000  0.6508444  3
    145    152    155    164     1  0.0000000  0.6508444  3
    146    145    149    161     1  180.0000771  2.0083200  2
    146    145    149    161     1  0.0000000  1.2552000  3
    146    145    152    155     1  180.0000771  2.0083200  2
    146    145    152    155     1  0.0000000  1.2552000  3
    146    158    170    405     1  0.0000000  0.6508444  3
    149    145    146    158     1  180.0000771  2.0083200  2
    149    145    146    158     1  0.0000000  1.2552000  3
    149    145    152    155     1  180.0000771  2.0083200  2
    149    145    152    155     1  0.0000000  1.2552000  3
    149    161    167    376     1  0.0000000  0.6508444  3
    152    145    146    158     1  180.0000771  2.0083200  2
    152    145    146    158     1  0.0000000  1.2552000  3
    152    145    149    161     1  180.0000771  2.0083200  2
    152    145    149    161     1  0.0000000  1.2552000  3
    152    155    164    173     1  0.0000000  0.6508444  3
    158    170    405    396     1  180.0000771  0.4184000  2
    158    170    405    396     1  0.0000000  1.6024720  3
    161    167    376    367     1  180.0000771  0.4184000  2
    161    167    376    367     1  0.0000000  1.6024720  3
    167    376    367    358     1  180.0000771  0.4184000  2
    167    376    367    358     1  0.0000000  1.6024720  3
    170    405    396    387     1  180.0000771  0.4184000  2
    170    405    396    387     1  0.0000000  1.6024720  3
    174    175    187    199     1  0.0000000  0.6508444  3
    174    178    190    196     1  0.0000000  0.6508444  3
    174    181    184    193     1  0.0000000  0.6508444  3
    175    174    178    190     1  180.0000771  2.0083200  2
    175    174    178    190     1  0.0000000  1.2552000  3
    175    174    181    184     1  180.0000771  2.0083200  2
    175    174    181    184     1  0.0000000  1.2552000  3
    175    187    199    463     1  0.0000000  0.6508444  3
    178    174    175    187     1  180.0000771  2.0083200  2
    178    174    175    187     1  0.0000000  1.2552000  3
    178    174    181    184     1  180.0000771  2.0083200  2
    178    174    181    184     1  0.0000000  1.2552000  3
    178    190    196    434     1  0.0000000  0.6508444  3
    181    174    175    187     1  180.0000771  2.0083200  2
    181    174    175    187     1  0.0000000  1.2552000  3
    181    174    178    190     1  180.0000771  2.0083200  2
    181    174    178    190     1  0.0000000  1.2552000  3
    181    184    193    202     1  0.0000000  0.6508444  3
    187    199    463    435     1  180.0000771  0.4184000  2
    187    199    463    435     1  0.0000000  1.6024720  3
    190    196    434    406     1  180.0000771  0.4184000  2
    190    196    434    406     1  0.0000000  1.6024720  3
    196    434    406    409     1  180.0000771  0.4184000  2
    196    434    406    409     1  0.0000000  1.6024720  3
    199    463    435    438     1  180.0000771  0.4184000  2
    199    463    435    438     1  0.0000000  1.6024720  3
    203    204    216    228     1  0.0000000  0.6508444  3
    203    207    219    225     1  0.0000000  0.6508444  3
    203    210    213    222     1  0.0000000  0.6508444  3
    204    203    207    219     1  180.0000771  2.0083200  2
    204    203    207    219     1  0.0000000  1.2552000  3
    204    203    210    213     1  180.0000771  2.0083200  2
    204    203    210    213     1  0.0000000  1.2552000  3
    204    216    228    521     1  0.0000000  0.6508444  3
    207    203    204    216     1  180.0000771  2.0083200  2
    207    203    204    216     1  0.0000000  1.2552000  3
    207    203    210    213     1  180.0000771  2.0083200  2
    207    203    210    213     1  0.0000000  1.2552000  3
    207    219    225    492     1  0.0000000  0.6508444  3
    210    203    204    216     1  180.0000771  2.0083200  2
    210    203    204    216     1  0.0000000  1.2552000  3
    210    203    207    219     1  180.0000771  2.0083200  2
    210    203    207    219     1  0.0000000  1.2552000  3
    210    213    222    231     1  0.0000000  0.6508444  3
    216    228    521    493     1  180.0000771  0.4184000  2
    216    228    521    493     1  0.0000000  1.6024720  3
    219    225    492    464     1  180.0000771  0.4184000  2
    219    225    492    464     1  0.0000000  1.6024720  3
    225    492    464    467     1  180.0000771  0.4184000  2
    225    492    464    467     1  0.0000000  1.6024720  3
    228    521    493    496     1  180.0000771  0.4184000  2
    228    521    493    496     1  0.0000000  1.6024720  3
    232    233    245    257     1  0.0000000  0.6508444  3
    232    236    248    254     1  0.0000000  0.6508444  3
    232    239    242    251     1  0.0000000  0.6508444  3
    233    232    236    248     1  180.0000771  2.0083200  2
    233    232    236    248     1  0.0000000  1.2552000  3
    233    232    239    242     1  180.0000771  2.0083200  2
    233    232    239    242     1  0.0000000  1.2552000  3
    233    245    257    579     1  0.0000000  0.6508444  3
    236    232    233    245     1  180.0000771  2.0083200  2
    236    232    233    245     1  0.0000000  1.2552000  3
    236    232    239    242     1  180.0000771  2.0083200  2
    236    232    239    242     1  0.0000000  1.2552000  3
    236    248    254    550     1  0.0000000  0.6508444  3
    239    232    233    245     1  180.0000771  2.0083200  2
    239    232    233    245     1  0.0000000  1.2552000  3
    239    232    236    248     1  180.0000771  2.0083200  2
    239    232    236    248     1  0.0000000  1.2552000  3
    239    242    251    260     1  0.0000000  0.6508444  3
    245    257    579    551     1  180.0000771  0.4184000  2
    245    257    579    551     1  0.0000000  1.6024720  3
    248    254    550    522     1  180.0000771  0.4184000  2
    248    254    550    522     1  0.0000000  1.6024720  3
    254    550    522    525     1  180.0000771  0.4184000  2
    254    550    522    525     1  0.0000000  1.6024720  3
    257    579    551    554     1  180.0000771  0.4184000  2
    257    579    551    554     1  0.0000000  1.6024720  3
    261    262    274    286     1  0.0000000  0.6508444  3
    261    265    277    283     1  0.0000000  0.6508444  3
    261    268    271    280     1  0.0000000  0.6508444  3
    262    261    265    277     1  180.0000771  2.0083200  2
    262    261    265    277     1  0.0000000  1.2552000  3
    262    261    268    271     1  180.0000771  2.0083200  2
    262    261    268    271     1  0.0000000  1.2552000  3
    262    274    286    637     1  0.0000000  0.6508444  3
    265    261    262    274     1  180.0000771  2.0083200  2
    265    261    262    274     1  0.0000000  1.2552000  3
    265    261    268    271     1  180.0000771  2.0083200  2
    265    261    268    271     1  0.0000000  1.2552000  3
    265    277    283    608     1  0.0000000  0.6508444  3
    268    261    262    274     1  180.0000771  2.0083200  2
    268    261    262    274     1  0.0000000  1.2552000  3
    268    261    265    277     1  180.0000771  2.0083200  2
    268    261    265    277     1  0.0000000  1.2552000  3
    268    271    280    289     1  0.0000000  0.6508444  3
    274    286    637    609     1  180.0000771  0.4184000  2
    274    286    637    609     1  0.0000000  1.6024720  3
    277    283    608    580     1  180.0000771  0.4184000  2
    277    283    608    580     1  0.0000000  1.6024720  3
    283    608    580    583     1  180.0000771  0.4184000  2
    283    608    580    583     1  0.0000000  1.6024720  3
    286    637    609    612     1  180.0000771  0.4184000  2
    286    637    609    612     1  0.0000000  1.6024720  3
    290    291    303    315     1  0.0000000  0.6508444  3
    290    294    306    312     1  0.0000000  0.6508444  3
    290    297    300    309     1  0.0000000  0.6508444  3
    291    290    294    306     1  180.0000771  2.0083200  2
    291    290    294    306     1  0.0000000  1.2552000  3
    291    290    297    300     1  180.0000771  2.0083200  2
    291    290    297    300     1  0.0000000  1.2552000  3
    291    303    315    695     1  0.0000000  0.6508444  3
    294    290    291    303     1  180.0000771  2.0083200  2
    294    290    291    303     1  0.0000000  1.2552000  3
    294    290    297    300     1  180.0000771  2.0083200  2
    294    290    297    300     1  0.0000000  1.2552000  3
    294    306    312    666     1  0.0000000  0.6508444  3
    297    290    291    303     1  180.0000771  2.0083200  2
    297    290    291    303     1  0.0000000  1.2552000  3
    297    290    294    306     1  180.0000771  2.0083200  2
    297    290    294    306     1  0.0000000  1.2552000  3
    297    300    309    318     1  0.0000000  0.6508444  3
    303    315    695    667     1  180.0000771  0.4184000  2
    303    315    695    667     1  0.0000000  1.6024720  3
    306    312    666    638     1  180.0000771  0.4184000  2
    306    312    666    638     1  0.0000000  1.6024720  3
    312    666    638    641     1  180.0000771  0.4184000  2
    312    666    638    641     1  0.0000000  1.6024720  3
    315    695    667    670     1  180.0000771  0.4184000  2
    315    695    667    670     1  0.0000000  1.6024720  3
    319    320    332    344     1  0.0000000  0.6508444  3
    319    323    335    341     1  0.0000000  0.6508444  3
    319    326    329    338     1  0.0000000  0.6508444  3
    320    319    323    335     1  180.0000771  2.0083200  2
    320    319    323    335     1  0.0000000  1.2552000  3
    320    319    326    329     1  180.0000771  2.0083200  2
    320    319    326    329     1  0.0000000  1.2552000  3
    320    332    344    753     1  0.0000000  0.6508444  3
    323    319    320    332     1  180.0000771  2.0083200  2
    323    319    320    332     1  0.0000000  1.2552000  3
    323    319    326    329     1  180.0000771  2.0083200  2
    323    319    326    329     1  0.0000000  1.2552000  3
    323    335    341    724     1  0.0000000  0.6508444  3
    326    319    320    332     1  180.0000771  2.0083200  2
    326    319    320    332     1  0.0000000  1.2552000  3
    326    319    323    335     1  180.0000771  2.0083200  2
    326    319    323    335     1  0.0000000  1.2552000  3
    326    329    338    347     1  0.0000000  0.6508444  3
    332    344    753    725     1  180.0000771  0.4184000  2
    332    344    753    725     1  0.0000000  1.6024720  3
    335    341    724    696     1  180.0000771  0.4184000  2
    335    341    724    696     1  0.0000000  1.6024720  3
    341    724    696    699     1  180.0000771  0.4184000  2
    341    724    696    699     1  0.0000000  1.6024720  3
    344    753    725    728     1  180.0000771  0.4184000  2
    344    753    725    728     1  0.0000000  1.6024720  3
    348    349    361    373     1  0.0000000  0.6508444  3
    348    352    364    370     1  0.0000000  0.6508444  3
    348    355    358    367     1  0.0000000  0.6508444  3
    349    348    352    364     1  180.0000771  2.0083200  2
    349    348    352    364     1  0.0000000  1.2552000  3
    349    348    355    358     1  180.0000771  2.0083200  2
    349    348    355    358     1  0.0000000  1.2552000  3
    349    361    373    811     1  0.0000000  0.6508444  3
    352    348    349    361     1  180.0000771  2.0083200  2
    352    348    349    361     1  0.0000000  1.2552000  3
    352    348    355    358     1  180.0000771  2.0083200  2
    352    348    355    358     1  0.0000000  1.2552000  3
    352    364    370    782     1  0.0000000  0.6508444  3
    355    348    349    361     1  180.0000771  2.0083200  2
    355    348    349    361     1  0.0000000  1.2552000  3
    355    348    352    364     1  180.0000771  2.0083200  2
    355    348    352    364     1  0.0000000  1.2552000  3
    355    358    367    376     1  0.0000000  0.6508444  3
    361    373    811    783     1  180.0000771  0.4184000  2
    361    373    811    783     1  0.0000000  1.6024720  3
    364    370    782    754     1  180.0000771  0.4184000  2
    364    370    782    754     1  0.0000000  1.6024720  3
    370    782    754    757     1  180.0000771  0.4184000  2
    370    782    754    757     1  0.0000000  1.6024720  3
    373    811    783    786     1  180.0000771  0.4184000  2
    373    811    783    786     1  0.0000000  1.6024720  3
    377    378    390    402     1  0.0000000  0.6508444  3
    377    381    393    399     1  0.0000000  0.6508444  3
    377    384    387    396     1  0.0000000  0.6508444  3
    378    377    381    393     1  180.0000771  2.0083200  2
    378    377    381    393     1  0.0000000  1.2552000  3
    378    377    384    387     1  180.0000771  2.0083200  2
    378    377    384    387     1  0.0000000  1.2552000  3
    378    390    402    869     1  0.0000000  0.6508444  3
    381    377    378    390     1  180.0000771  2.0083200  2
    381    377    378    390     1  0.0000000  1.2552000  3
    381    377    384    387     1  180.0000771  2.0083200  2
    381    377    384    387     1  0.0000000  1.2552000  3
    381    393    399    840     1  0.0000000  0.6508444  3
    384    377    378    390     1  180.0000771  2.0083200  2
    384    377    378    390     1  0.0000000  1.2552000  3
    384    377    381    393     1  180.0000771  2.0083200  2
    384    377    381    393     1  0.0000000  1.2552000  3
    384    387    396    405     1  0.0000000  0.6508444  3
    390    402    869    841     1  180.0000771  0.4184000  2
    390    402    869    841     1  0.0000000  1.6024720  3
    393    399    840    812     1  180.0000771  0.4184000  2
    393    399    840    812     1  0.0000000  1.6024720  3
    399    840    812    815     1  180.0000771  0.4184000  2
    399    840    812    815     1  0.0000000  1.6024720  3
    402    869    841    844     1  180.0000771  0.4184000  2
    402    869    841    844     1  0.0000000  1.6024720  3
    406    409    412    415     1  0.0000000  0.6508444  3
    409    412    415    416     1  180.0000771  2.0083200  2
    409    412    415    416     1  0.0000000  1.2552000  3
    409    412    415    425     1  180.0000771  2.0083200  2
    409    412    415    425     1  0.0000000  1.2552000  3
    412    409    406    434     1  0.0000000  0.6508444  3
    412    415    416    419     1  180.0000771  2.0083200  2
    412    415    416    419     1  0.0000000  1.2552000  3
    412    415    425    428     1  180.0000771  2.0083200  2
    412    415    425    428     1  0.0000000  1.2552000  3
    415    416    419    422     1  0.0000000  0.6508444  3
    415    425    428    431     1  0.0000000  0.6508444  3
    416    415    425    428     1  180.0000771  2.0083200  2
    416    415    425    428     1  0.0000000  1.2552000  3
    416    419    422    423     1  180.0000771  0.0000000  2
    416    419    422    424     1  180.0000771  0.0000000  2
    419    416    415    425     1  180.0000771  2.0083200  2
    419    416    415    425     1  0.0000000  1.2552000  3
    425    428    431    432     1  180.0000771  0.0000000  2
    425    428    431    433     1  180.0000771  0.0000000  2
    435    438    441    444     1  0.0000000  0.6508444  3
    438    441    444    445     1  180.0000771  2.0083200  2
    438    441    444    445     1  0.0000000  1.2552000  3
    438    441    444    454     1  180.0000771  2.0083200  2
    438    441    444    454     1  0.0000000  1.2552000  3
    441    444    445    448     1  180.0000771  2.0083200  2
    441    444    445    448     1  0.0000000  1.2552000  3
    441    444    454    457     1  180.0000771  2.0083200  2
    441    444    454    457     1  0.0000000  1.2552000  3
    441    438    435    463     1  0.0000000  0.6508444  3
    444    445    448    451     1  0.0000000  0.6508444  3
    444    454    457    460     1  0.0000000  0.6508444  3
    445    448    451    452     1  180.0000771  0.0000000  2
    445    448    451    453     1  180.0000771  0.0000000  2
    445    444    454    457     1  180.0000771  2.0083200  2
    445    444    454    457     1  0.0000000  1.2552000  3
    448    445    444    454     1  180.0000771  2.0083200  2
    448    445    444    454     1  0.0000000  1.2552000  3
    454    457    460    461     1  180.0000771  0.0000000  2
    454    457    460    462     1  180.0000771  0.0000000  2
    464    467    470    473     1  0.0000000  0.6508444  3
    467    470    473    474     1  180.0000771  2.0083200  2
    467    470    473    474     1  0.0000000  1.2552000  3
    467    470    473    483     1  180.0000771  2.0083200  2
    467    470    473    483     1  0.0000000  1.2552000  3
    470    467    464    492     1  0.0000000  0.6508444  3
    470    473    474    477     1  180.0000771  2.0083200  2
    470    473    474    477     1  0.0000000  1.2552000  3
    470    473    483    486     1  180.0000771  2.0083200  2
    470    473    483    486     1  0.0000000  1.2552000  3
    473    474    477    480     1  0.0000000  0.6508444  3
    473    483    486    489     1  0.0000000  0.6508444  3
    474    473    483    486     1  180.0000771  2.0083200  2
    474    473    483    486     1  0.0000000  1.2552000  3
    474    477    480    481     1  180.0000771  0.0000000  2
    474    477    480    482     1  180.0000771  0.0000000  2
    477    474    473    483     1  180.0000771  2.0083200  2
    477    474    473    483     1  0.0000000  1.2552000  3
    483    486    489    490     1  180.0000771  0.0000000  2
    483    486    489    491     1  180.0000771  0.0000000  2
    493    496    499    502     1  0.0000000  0.6508444  3
    496    499    502    503     1  180.0000771  2.0083200  2
    496    499    502    503     1  0.0000000  1.2552000  3
    496    499    502    512     1  180.0000771  2.0083200  2
    496    499    502    512     1  0.0000000  1.2552000  3
    499    502    503    506     1  180.0000771  2.0083200  2
    499    502    503    506     1  0.0000000  1.2552000  3
    499    502    512    515     1  180.0000771  2.0083200  2
    499    502    512    515     1  0.0000000  1.2552000  3
    499    496    493    521     1  0.0000000  0.6508444  3
    502    503    506    509     1  0.0000000  0.6508444  3
    502    512    515    518     1  0.0000000  0.6508444  3
    503    506    509    510     1  180.0000771  0.0000000  2
    503    506    509    511     1  180.0000771  0.0000000  2
    503    502    512    515     1  180.0000771  2.0083200  2
    503    502    512    515     1  0.0000000  1.2552000  3
    506    503    502    512     1  180.0000771  2.0083200  2
    506    503    502    512     1  0.0000000  1.2552000  3
    512    515    518    519     1  180.0000771  0.0000000  2
    512    515    518    520     1  180.0000771  0.0000000  2
    522    525    528    531     1  0.0000000  0.6508444  3
    525    528    531    532     1  180.0000771  2.0083200  2
    525    528    531    532     1  0.0000000  1.2552000  3
    525    528    531    541     1  180.0000771  2.0083200  2
    525    528    531    541     1  0.0000000  1.2552000  3
    528    525    522    550     1  0.0000000  0.6508444  3
    528    531    532    535     1  180.0000771  2.0083200  2
    528    531    532    535     1  0.0000000  1.2552000  3
    528    531    541    544     1  180.0000771  2.0083200  2
    528    531    541    544     1  0.0000000  1.2552000  3
    531    532    535    538     1  0.0000000  0.6508444  3
    531    541    544    547     1  0.0000000  0.6508444  3
    532    531    541    544     1  180.0000771  2.0083200  2
    532    531    541    544     1  0.0000000  1.2552000  3
    532    535    538    539     1  180.0000771  0.0000000  2
    532    535    538    540     1  180.0000771  0.0000000  2
    535    532    531    541     1  180.0000771  2.0083200  2
    535    532    531    541     1  0.0000000  1.2552000  3
    541    544    547    548     1  180.0000771  0.0000000  2
    541    544    547    549     1  180.0000771  0.0000000  2
    551    554    557    560     1  0.0000000  0.6508444  3
    554    557    560    561     1  180.0000771  2.0083200  2
    554    557    560    561     1  0.0000000  1.2552000  3
    554    557    560    570     1  180.0000771  2.0083200  2
    554    557    560    570     1  0.0000000  1.2552000  3
    557    560    561    564     1  180.0000771  2.0083200  2
    557    560    561    564     1  0.0000000  1.2552000  3
    557    560    570    573     1  180.0000771  2.0083200  2
    557    560    570    573     1  0.0000000  1.2552000  3
    557    554    551    579     1  0.0000000  0.6508444  3
    560    561    564    567     1  0.0000000  0.6508444  3
    560    570    573    576     1  0.0000000  0.6508444  3
    561    564    567    568     1  180.0000771  0.0000000  2
    561    564    567    569     1  180.0000771  0.0000000  2
    561    560    570    573     1  180.0000771  2.0083200  2
    561    560    570    573     1  0.0000000  1.2552000  3
    564    561    560    570     1  180.0000771  2.0083200  2
    564    561    560    570     1  0.0000000  1.2552000  3
    570    573    576    577     1  180.0000771  0.0000000  2
    570    573    576    578     1  180.0000771  0.0000000  2
    580    583    586    589     1  0.0000000  0.6508444  3
    583    586    589    590     1  180.0000771  2.0083200  2
    583    586    589    590     1  0.0000000  1.2552000  3
    583    586    589    599     1  180.0000771  2.0083200  2
    583    586    589    599     1  0.0000000  1.2552000  3
    586    583    580    608     1  0.0000000  0.6508444  3
    586    589    590    593     1  180.0000771  2.0083200  2
    586    589    590    593     1  0.0000000  1.2552000  3
    586    589    599    602     1  180.0000771  2.0083200  2
    586    589    599    602     1  0.0000000  1.2552000  3
    589    590    593    596     1  0.0000000  0.6508444  3
    589    599    602    605     1  0.0000000  0.6508444  3
    590    589    599    602     1  180.0000771  2.0083200  2
    590    589    599    602     1  0.0000000  1.2552000  3
    590    593    596    597     1  180.0000771  0.0000000  2
    590    593    596    598     1  180.0000771  0.0000000  2
    593    590    589    599     1  180.0000771  2.0083200  2
    593    590    589    599     1  0.0000000  1.2552000  3
    599    602    605    606     1  180.0000771  0.0000000  2
    599    602    605    607     1  180.0000771  0.0000000  2
    609    612    615    618     1  0.0000000  0.6508444  3
    612    615    618    619     1  180.0000771  2.0083200  2
    612    615    618    619     1  0.0000000  1.2552000  3
    612    615    618    628     1  180.0000771  2.0083200  2
    612    615    618    628     1  0.0000000  1.2552000  3
    615    618    619    622     1  180.0000771  2.0083200  2
    615    618    619    622     1  0.0000000  1.2552000  3
    615    618    628    631     1  180.0000771  2.0083200  2
    615    618    628    631     1  0.0000000  1.2552000  3
    615    612    609    637     1  0.0000000  0.6508444  3
    618    619    622    625     1  0.0000000  0.6508444  3
    618    628    631    634     1  0.0000000  0.6508444  3
    619    622    625    626     1  180.0000771  0.0000000  2
    619    622    625    627     1  180.0000771  0.0000000  2
    619    618    628    631     1  180.0000771  2.0083200  2
    619    618    628    631     1  0.0000000  1.2552000  3
    622    619    618    628     1  180.0000771  2.0083200  2
    622    619    618    628     1  0.0000000  1.2552000  3
    628    631    634    635     1  180.0000771  0.0000000  2
    628    631    634    636     1  180.0000771  0.0000000  2
    638    641    644    647     1  0.0000000  0.6508444  3
    641    644    647    648     1  180.0000771  2.0083200  2
    641    644    647    648     1  0.0000000  1.2552000  3
    641    644    647    657     1  180.0000771  2.0083200  2
    641    644    647    657     1  0.0000000  1.2552000  3
    644    641    638    666     1  0.0000000  0.6508444  3
    644    647    648    651     1  180.0000771  2.0083200  2
    644    647    648    651     1  0.0000000  1.2552000  3
    644    647    657    660     1  180.0000771  2.0083200  2
    644    647    657    660     1  0.0000000  1.2552000  3
    647    648    651    654     1  0.0000000  0.6508444  3
    647    657    660    663     1  0.0000000  0.6508444  3
    648    647    657    660     1  180.0000771  2.0083200  2
    648    647    657    660     1  0.0000000  1.2552000  3
    648    651    654    655     1  180.0000771  0.0000000  2
    648    651    654    656     1  180.0000771  0.0000000  2
    651    648    647    657     1  180.0000771  2.0083200  2
    651    648    647    657     1  0.0000000  1.2552000  3
    657    660    663    664     1  180.0000771  0.0000000  2
    657    660    663    665     1  180.0000771  0.0000000  2
    667    670    673    676     1  0.0000000  0.6508444  3
    670    673    676    677     1  180.0000771  2.0083200  2
    670    673    676    677     1  0.0000000  1.2552000  3
    670    673    676    686     1  180.0000771  2.0083200  2
    670    673    676    686     1  0.0000000  1.2552000  3
    673    676    677    680     1  180.0000771  2.0083200  2
    673    676    677    680     1  0.0000000  1.2552000  3
    673    676    686    689     1  180.0000771  2.0083200  2
    673    676    686    689     1  0.0000000  1.2552000  3
    673    670    667    695     1  0.0000000  0.6508444  3
    676    677    680    683     1  0.0000000  0.6508444  3
    676    686    689    692     1  0.0000000  0.6508444  3
    677    680    683    684     1  180.0000771  0.0000000  2
    677    680    683    685     1  180.0000771  0.0000000  2
    677    676    686    689     1  180.0000771  2.0083200  2
    677    676    686    689     1  0.0000000  1.2552000  3
    680    677    676    686     1  180.0000771  2.0083200  2
    680    677    676    686     1  0.0000000  1.2552000  3
    686    689    692    693     1  180.0000771  0.0000000  2
    686    689    692    694     1  180.0000771  0.0000000  2
    696    699    702    705     1  0.0000000  0.6508444  3
    699    702    705    706     1  180.0000771  2.0083200  2
    699    702    705    706     1  0.0000000  1.2552000  3
    699    702    705    715     1  180.0000771  2.0083200  2
    699    702    705    715     1  0.0000000  1.2552000  3
    702    699    696    724     1  0.0000000  0.6508444  3
    702    705    706    709     1  180.0000771  2.0083200  2
    702    705    706    709     1  0.0000000  1.2552000  3
    702    705    715    718     1  180.0000771  2.0083200  2
    702    705    715    718     1  0.0000000  1.2552000  3
    705    706    709    712     1  0.0000000  0.6508444  3
    705    715    718    721     1  0.0000000  0.6508444  3
    706    705    715    718     1  180.0000771  2.0083200  2
    706    705    715    718     1  0.0000000  1.2552000  3
    706    709    712    713     1  180.0000771  0.0000000  2
    706    709    712    714     1  180.0000771  0.0000000  2
    709    706    705    715     1  180.0000771  2.0083200  2
    709    706    705    715     1  0.0000000  1.2552000  3
    715    718    721    722     1  180.0000771  0.0000000  2
    715    718    721    723     1  180.0000771  0.0000000  2
    725    728    731    734     1  0.0000000  0.6508444  3
    728    731    734    735     1  180.0000771  2.0083200  2
    728    731    734    735     1  0.0000000  1.2552000  3
    728    731    734    744     1  180.0000771  2.0083200  2
    728    731    734    744     1  0.0000000  1.2552000  3
    731    734    735    738     1  180.0000771  2.0083200  2
    731    734    735    738     1  0.0000000  1.2552000  3
    731    734    744    747     1  180.0000771  2.0083200  2
    731    734    744    747     1  0.0000000  1.2552000  3
    731    728    725    753     1  0.0000000  0.6508444  3
    734    735    738    741     1  0.0000000  0.6508444  3
    734    744    747    750     1  0.0000000  0.6508444  3
    735    738    741    742     1  180.0000771  0.0000000  2
    735    738    741    743     1  180.0000771  0.0000000  2
    735    734    744    747     1  180.0000771  2.0083200  2
    735    734    744    747     1  0.0000000  1.2552000  3
    738    735    734    744     1  180.0000771  2.0083200  2
    738    735    734    744     1  0.0000000  1.2552000  3
    744    747    750    751     1  180.0000771  0.0000000  2
    744    747    750    752     1  180.0000771  0.0000000  2
    754    757    760    763     1  0.0000000  0.6508444  3
    757    760    763    764     1  180.0000771  2.0083200  2
    757    760    763    764     1  0.0000000  1.2552000  3
    757    760    763    773     1  180.0000771  2.0083200  2
    757    760    763    773     1  0.0000000  1.2552000  3
    760    757    754    782     1  0.0000000  0.6508444  3
    760    763    764    767     1  180.0000771  2.0083200  2
    760    763    764    767     1  0.0000000  1.2552000  3
    760    763    773    776     1  180.0000771  2.0083200  2
    760    763    773    776     1  0.0000000  1.2552000  3
    763    764    767    770     1  0.0000000  0.6508444  3
    763    773    776    779     1  0.0000000  0.6508444  3
    764    763    773    776     1  180.0000771  2.0083200  2
    764    763    773    776     1  0.0000000  1.2552000  3
    764    767    770    771     1  180.0000771  0.0000000  2
    764    767    770    772     1  180.0000771  0.0000000  2
    767    764    763    773     1  180.0000771  2.0083200  2
    767    764    763    773     1  0.0000000  1.2552000  3
    773    776    779    780     1  180.0000771  0.0000000  2
    773    776    779    781     1  180.0000771  0.0000000  2
    783    786    789    792     1  0.0000000  0.6508444  3
    786    789    792    793     1  180.0000771  2.0083200  2
    786    789    792    793     1  0.0000000  1.2552000  3
    786    789    792    802     1  180.0000771  2.0083200  2
    786    789    792    802     1  0.0000000  1.2552000  3
    789    792    793    796     1  180.0000771  2.0083200  2
    789    792    793    796     1  0.0000000  1.2552000  3
    789    792    802    805     1  180.0000771  2.0083200  2
    789    792    802    805     1  0.0000000  1.2552000  3
    789    786    783    811     1  0.0000000  0.6508444  3
    792    793    796    799     1  0.0000000  0.6508444  3
    792    802    805    808     1  0.0000000  0.6508444  3
    793    796    799    800     1  180.0000771  0.0000000  2
    793    796    799    801     1  180.0000771  0.0000000  2
    793    792    802    805     1  180.0000771  2.0083200  2
    793    792    802    805     1  0.0000000  1.2552000  3
    796    793    792    802     1  180.0000771  2.0083200  2
    796    793    792    802     1  0.0000000  1.2552000  3
    802    805    808    809     1  180.0000771  0.0000000  2
    802    805    808    810     1  180.0000771  0.0000000  2
    812    815    818    821     1  0.0000000  0.6508444  3
    815    818    821    822     1  180.0000771  2.0083200  2
    815    818    821    822     1  0.0000000  1.2552000  3
    815    818    821    831     1  180.0000771  2.0083200  2
    815    818    821    831     1  0.0000000  1.2552000  3
    818    815    812    840     1  0.0000000  0.6508444  3
    818    821    822    825     1  180.0000771  2.0083200  2
    818    821    822    825     1  0.0000000  1.2552000  3
    818    821    831    834     1  180.0000771  2.0083200  2
    818    821    831    834     1  0.0000000  1.2552000  3
    821    822    825    828     1  0.0000000  0.6508444  3
    821    831    834    837     1  0.0000000  0.6508444  3
    822    821    831    834     1  180.0000771  2.0083200  2
    822    821    831    834     1  0.0000000  1.2552000  3
    822    825    828    829     1  180.0000771  0.0000000  2
    822    825    828    830     1  180.0000771  0.0000000  2
    825    822    821    831     1  180.0000771  2.0083200  2
    825    822    821    831     1  0.0000000  1.2552000  3
    831    834    837    838     1  180.0000771  0.0000000  2
    831    834    837    839     1  180.0000771  0.0000000  2
    841    844    847    850     1  0.0000000  0.6508444  3
    844    847    850    851     1  180.0000771  2.0083200  2
    844    847    850    851     1  0.0000000  1.2552000  3
    844    847    850    860     1  180.0000771  2.0083200  2
    844    847    850    860     1  0.0000000  1.2552000  3
    847    850    851    854     1  180.0000771  2.0083200  2
    847    850    851    854     1  0.0000000  1.2552000  3
    847    850    860    863     1  180.0000771  2.0083200  2
    847    850    860    863     1  0.0000000  1.2552000  3
    847    844    841    869     1  0.0000000  0.6508444  3
    850    851    854    857     1  0.0000000  0.6508444  3
    850    860    863    866     1  0.0000000  0.6508444  3
    851    854    857    858     1  180.0000771  0.0000000  2
    851    854    857    859     1  180.0000771  0.0000000  2
    851    850    860    863     1  180.0000771  2.0083200  2
    851    850    860    863     1  0.0000000  1.2552000  3
    854    851    850    860     1  180.0000771  2.0083200  2
    854    851    850    860     1  0.0000000  1.2552000  3
    860    863    866    867     1  180.0000771  0.0000000  2
    860    863    866    868     1  180.0000771  0.0000000  2
    419    423    422    424     4  180.0000771  4.6024000  2
    428    432    431    433     4  180.0000771  4.6024000  2
    448    452    451    453     4  180.0000771  4.6024000  2
    457    461    460    462     4  180.0000771  4.6024000  2
    477    481    480    482     4  180.0000771  4.6024000  2
    486    490    489    491     4  180.0000771  4.6024000  2
    506    510    509    511     4  180.0000771  4.6024000  2
    515    519    518    520     4  180.0000771  4.6024000  2
    535    539    538    540     4  180.0000771  4.6024000  2
    544    548    547    549     4  180.0000771  4.6024000  2
    564    568    567    569     4  180.0000771  4.6024000  2
    573    577    576    578     4  180.0000771  4.6024000  2
    593    597    596    598     4  180.0000771  4.6024000  2
    602    606    605    607     4  180.0000771  4.6024000  2
    622    626    625    627     4  180.0000771  4.6024000  2
    631    635    634    636     4  180.0000771  4.6024000  2
    651    655    654    656     4  180.0000771  4.6024000  2
    660    664    663    665     4  180.0000771  4.6024000  2
    680    684    683    685     4  180.0000771  4.6024000  2
    689    693    692    694     4  180.0000771  4.6024000  2
    709    713    712    714     4  180.0000771  4.6024000  2
    718    722    721    723     4  180.0000771  4.6024000  2
    738    742    741    743     4  180.0000771  4.6024000  2
    747    751    750    752     4  180.0000771  4.6024000  2
    767    771    770    772     4  180.0000771  4.6024000  2
    776    780    779    781     4  180.0000771  4.6024000  2
    796    800    799    801     4  180.0000771  4.6024000  2
    805    809    808    810     4  180.0000771  4.6024000  2
    825    829    828    830     4  180.0000771  4.6024000  2
    834    838    837    839     4  180.0000771  4.6024000  2
    854    858    857    859     4  180.0000771  4.6024000  2
    863    867    866    868     4  180.0000771  4.6024000  2
      1      2      8      9     1  0.0000000  1.0460000  1
      1      2      8      9     1  0.0000000  0.0000000  3
      1      2      8     10     1  0.0000000  1.0460000  1
      1      2      8     10     1  0.0000000  0.0000000  3
      1      5     11     12     1  0.0000000  1.0460000  1
      1      5     11     12     1  0.0000000  0.0000000  3
      1      5     11     13     1  0.0000000  1.0460000  1
      1      5     11     13     1  0.0000000  0.0000000  3
      2      1      5      6     1  0.0000000  1.6038667  3
      2      1      5      7     1  0.0000000  1.6038667  3
      2      8     14     15     1  0.0000000  0.6508444  3
      2      8     14     16     1  0.0000000  0.6508444  3
      5      1      2      3     1  0.0000000  1.6038667  3
      3      2      8     14     1  0.0000000  0.6508444  3
      3      2      8      9     1  0.0000000  0.6508444  3
      3      2      8     10     1  0.0000000  0.6508444  3
      5      1      2      4     1  0.0000000  1.6038667  3
      4      2      8     14     1  0.0000000  0.6508444  3
      4      2      8      9     1  0.0000000  0.6508444  3
      4      2      8     10     1  0.0000000  0.6508444  3
      5     11     17     18     1  0.0000000  0.6508444  3
      5     11     17     19     1  0.0000000  0.6508444  3
      6      5     11     17     1  0.0000000  0.6508444  3
      6      5     11     12     1  0.0000000  0.6508444  3
      6      5     11     13     1  0.0000000  0.6508444  3
      7      5     11     17     1  0.0000000  0.6508444  3
      7      5     11     12     1  0.0000000  0.6508444  3
      7      5     11     13     1  0.0000000  0.6508444  3
      9      8     14     20     1  0.0000000  0.6508444  3
      9      8     14     15     1  0.0000000  0.6508444  3
      9      8     14     16     1  0.0000000  0.6508444  3
     10      8     14     20     1  0.0000000  0.6508444  3
     10      8     14     15     1  0.0000000  0.6508444  3
     10      8     14     16     1  0.0000000  0.6508444  3
     12     11     17     21     1  0.0000000  0.6508444  3
     12     11     17     18     1  0.0000000  0.6508444  3
     12     11     17     19     1  0.0000000  0.6508444  3
     13     11     17     21     1  0.0000000  0.6508444  3
     13     11     17     18     1  0.0000000  0.6508444  3
     13     11     17     19     1  0.0000000  0.6508444  3
     14     20     28     29     1  0.0000000  1.2552000  3
     14     20     28     30     1  0.0000000  1.2552000  3
     14     20     31     32     1  0.0000000  1.2552000  3
     14     20     31     33     1  0.0000000  1.2552000  3
     15     14     20     28     1  0.0000000  1.2552000  3
     15     14     20     31     1  0.0000000  1.2552000  3
     16     14     20     28     1  0.0000000  1.2552000  3
     16     14     20     31     1  0.0000000  1.2552000  3
     17     21     22     23     1  0.0000000  1.2552000  3
     17     21     22     24     1  0.0000000  1.2552000  3
     17     21     25     26     1  0.0000000  1.2552000  3
     17     21     25     27     1  0.0000000  1.2552000  3
     18     17     21     22     1  0.0000000  1.2552000  3
     18     17     21     25     1  0.0000000  1.2552000  3
     19     17     21     22     1  0.0000000  1.2552000  3
     19     17     21     25     1  0.0000000  1.2552000  3
     20     28     40     41     1  0.0000000  0.6508444  3
     20     28     40     42     1  0.0000000  0.6508444  3
     20     31     43     44     1  0.0000000  0.6508444  3
     20     31     43     45     1  0.0000000  0.6508444  3
     21     22     34     35     1  0.0000000  0.6508444  3
     21     22     34     36     1  0.0000000  0.6508444  3
     21     25     37     38     1  0.0000000  0.6508444  3
     21     25     37     39     1  0.0000000  0.6508444  3
     22     21     25     26     1  0.0000000  1.2552000  3
     22     21     25     27     1  0.0000000  1.2552000  3
     22     34     55     56     1  0.0000000  0.6508444  3
     22     34     55     57     1  0.0000000  0.6508444  3
     23     22     21     25     1  0.0000000  1.2552000  3
     23     22     34     55     1  0.0000000  0.6508444  3
     23     22     34     35     1  0.0000000  0.6508444  3
     23     22     34     36     1  0.0000000  0.6508444  3
     24     22     21     25     1  0.0000000  1.2552000  3
     24     22     34     55     1  0.0000000  0.6508444  3
     24     22     34     35     1  0.0000000  0.6508444  3
     24     22     34     36     1  0.0000000  0.6508444  3
     25     37     52     53     1  0.0000000  0.6508444  3
     25     37     52     54     1  0.0000000  0.6508444  3
     26     25     37     52     1  0.0000000  0.6508444  3
     26     25     37     38     1  0.0000000  0.6508444  3
     26     25     37     39     1  0.0000000  0.6508444  3
     27     25     37     52     1  0.0000000  0.6508444  3
     27     25     37     38     1  0.0000000  0.6508444  3
     27     25     37     39     1  0.0000000  0.6508444  3
     28     20     31     32     1  0.0000000  1.2552000  3
     28     20     31     33     1  0.0000000  1.2552000  3
     28     40     49     50     1  0.0000000  0.6508444  3
     28     40     49     51     1  0.0000000  0.6508444  3
     29     28     20     31     1  0.0000000  1.2552000  3
     29     28     40     49     1  0.0000000  0.6508444  3
     29     28     40     41     1  0.0000000  0.6508444  3
     29     28     40     42     1  0.0000000  0.6508444  3
     30     28     20     31     1  0.0000000  1.2552000  3
     30     28     40     49     1  0.0000000  0.6508444  3
     30     28     40     41     1  0.0000000  0.6508444  3
     30     28     40     42     1  0.0000000  0.6508444  3
     31     43     46     47     1  0.0000000  0.6508444  3
     31     43     46     48     1  0.0000000  0.6508444  3
     32     31     43     46     1  0.0000000  0.6508444  3
     32     31     43     44     1  0.0000000  0.6508444  3
     32     31     43     45     1  0.0000000  0.6508444  3
     33     31     43     46     1  0.0000000  0.6508444  3
     33     31     43     44     1  0.0000000  0.6508444  3
     33     31     43     45     1  0.0000000  0.6508444  3
     35     34     55    173     1  0.0000000  1.0460000  1
     35     34     55    173     1  0.0000000  0.0000000  3
     35     34     55     56     1  0.0000000  0.6508444  3
     35     34     55     57     1  0.0000000  0.6508444  3
     36     34     55    173     1  0.0000000  1.0460000  1
     36     34     55    173     1  0.0000000  0.0000000  3
     36     34     55     56     1  0.0000000  0.6508444  3
     36     34     55     57     1  0.0000000  0.6508444  3
     38     37     52    144     1  0.0000000  1.0460000  1
     38     37     52    144     1  0.0000000  0.0000000  3
     38     37     52     53     1  0.0000000  0.6508444  3
     38     37     52     54     1  0.0000000  0.6508444  3
     39     37     52    144     1  0.0000000  1.0460000  1
     39     37     52    144     1  0.0000000  0.0000000  3
     39     37     52     53     1  0.0000000  0.6508444  3
     39     37     52     54     1  0.0000000  0.6508444  3
     41     40     49    115     1  0.0000000  1.0460000  1
     41     40     49    115     1  0.0000000  0.0000000  3
     41     40     49     50     1  0.0000000  0.6508444  3
     41     40     49     51     1  0.0000000  0.6508444  3
     42     40     49    115     1  0.0000000  1.0460000  1
     42     40     49    115     1  0.0000000  0.0000000  3
     42     40     49     50     1  0.0000000  0.6508444  3
     42     40     49     51     1  0.0000000  0.6508444  3
     44     43     46     86     1  0.0000000  1.0460000  1
     44     43     46     86     1  0.0000000  0.0000000  3
     44     43     46     47     1  0.0000000  0.6508444  3
     44     43     46     48     1  0.0000000  0.6508444  3
     45     43     46     86     1  0.0000000  1.0460000  1
     45     43     46     86     1  0.0000000  0.0000000  3
     45     43     46     47     1  0.0000000  0.6508444  3
     45     43     46     48     1  0.0000000  0.6508444  3
     46     86     77     78     1  0.0000000  1.6038667  3
     46     86     77     79     1  0.0000000  1.6038667  3
     47     46     86     77     1  0.0000000  1.6038667  3
     48     46     86     77     1  0.0000000  1.6038667  3
     49    115    106    107     1  0.0000000  1.6038667  3
     49    115    106    108     1  0.0000000  1.6038667  3
     50     49    115    106     1  0.0000000  1.6038667  3
     51     49    115    106     1  0.0000000  1.6038667  3
     52    144    135    136     1  0.0000000  1.6038667  3
     52    144    135    137     1  0.0000000  1.6038667  3
     53     52    144    135     1  0.0000000  1.6038667  3
     54     52    144    135     1  0.0000000  1.6038667  3
     55    173    164    165     1  0.0000000  1.6038667  3
     55    173    164    166     1  0.0000000  1.6038667  3
     56     55    173    164     1  0.0000000  1.6038667  3
     57     55    173    164     1  0.0000000  1.6038667  3
     58     59     71     72     1  0.0000000  0.6508444  3
     58     59     71     73     1  0.0000000  0.6508444  3
     58     62     74     75     1  0.0000000  0.6508444  3
     58     62     74     76     1  0.0000000  0.6508444  3
     58     65     68     69     1  0.0000000  0.6508444  3
     58     65     68     70     1  0.0000000  0.6508444  3
     59     58     62     63     1  0.0000000  1.2552000  3
     59     58     62     64     1  0.0000000  1.2552000  3
     59     58     65     66     1  0.0000000  1.2552000  3
     59     58     65     67     1  0.0000000  1.2552000  3
     59     71     83     84     1  0.0000000  0.6508444  3
     59     71     83     85     1  0.0000000  0.6508444  3
     60     59     58     62     1  0.0000000  1.2552000  3
     60     59     58     65     1  0.0000000  1.2552000  3
     60     59     71     83     1  0.0000000  0.6508444  3
     60     59     71     72     1  0.0000000  0.6508444  3
     60     59     71     73     1  0.0000000  0.6508444  3
     61     59     58     62     1  0.0000000  1.2552000  3
     61     59     58     65     1  0.0000000  1.2552000  3
     61     59     71     83     1  0.0000000  0.6508444  3
     61     59     71     72     1  0.0000000  0.6508444  3
     61     59     71     73     1  0.0000000  0.6508444  3
     62     58     65     66     1  0.0000000  1.2552000  3
     62     58     65     67     1  0.0000000  1.2552000  3
     62     74     80     81     1  0.0000000  0.6508444  3
     62     74     80     82     1  0.0000000  0.6508444  3
     63     62     58     65     1  0.0000000  1.2552000  3
     63     62     74     80     1  0.0000000  0.6508444  3
     63     62     74     75     1  0.0000000  0.6508444  3
     63     62     74     76     1  0.0000000  0.6508444  3
     64     62     58     65     1  0.0000000  1.2552000  3
     64     62     74     80     1  0.0000000  0.6508444  3
     64     62     74     75     1  0.0000000  0.6508444  3
     64     62     74     76     1  0.0000000  0.6508444  3
     65     68     77     78     1  0.0000000  0.6508444  3
     65     68     77     79     1  0.0000000  0.6508444  3
     66     65     68     77     1  0.0000000  0.6508444  3
     66     65     68     69     1  0.0000000  0.6508444  3
     66     65     68     70     1  0.0000000  0.6508444  3
     67     65     68     77     1  0.0000000  0.6508444  3
     67     65     68     69     1  0.0000000  0.6508444  3
     67     65     68     70     1  0.0000000  0.6508444  3
     69     68     77     86     1  0.0000000  1.0460000  1
     69     68     77     86     1  0.0000000  0.0000000  3
     69     68     77     78     1  0.0000000  0.6508444  3
     69     68     77     79     1  0.0000000  0.6508444  3
     70     68     77     86     1  0.0000000  1.0460000  1
     70     68     77     86     1  0.0000000  0.0000000  3
     70     68     77     78     1  0.0000000  0.6508444  3
     70     68     77     79     1  0.0000000  0.6508444  3
     72     71     83    231     1  0.0000000  1.0460000  1
     72     71     83    231     1  0.0000000  0.0000000  3
     72     71     83     84     1  0.0000000  0.6508444  3
     72     71     83     85     1  0.0000000  0.6508444  3
     73     71     83    231     1  0.0000000  1.0460000  1
     73     71     83    231     1  0.0000000  0.0000000  3
     73     71     83     84     1  0.0000000  0.6508444  3
     73     71     83     85     1  0.0000000  0.6508444  3
     75     74     80    202     1  0.0000000  1.0460000  1
     75     74     80    202     1  0.0000000  0.0000000  3
     75     74     80     81     1  0.0000000  0.6508444  3
     75     74     80     82     1  0.0000000  0.6508444  3
     76     74     80    202     1  0.0000000  1.0460000  1
     76     74     80    202     1  0.0000000  0.0000000  3
     76     74     80     81     1  0.0000000  0.6508444  3
     76     74     80     82     1  0.0000000  0.6508444  3
     80    202    193    194     1  0.0000000  1.6038667  3
     80    202    193    195     1  0.0000000  1.6038667  3
     81     80    202    193     1  0.0000000  1.6038667  3
     82     80    202    193     1  0.0000000  1.6038667  3
     83    231    222    223     1  0.0000000  1.6038667  3
     83    231    222    224     1  0.0000000  1.6038667  3
     84     83    231    222     1  0.0000000  1.6038667  3
     85     83    231    222     1  0.0000000  1.6038667  3
     87     88    100    101     1  0.0000000  0.6508444  3
     87     88    100    102     1  0.0000000  0.6508444  3
     87     91    103    104     1  0.0000000  0.6508444  3
     87     91    103    105     1  0.0000000  0.6508444  3
     87     94     97     98     1  0.0000000  0.6508444  3
     87     94     97     99     1  0.0000000  0.6508444  3
     88     87     91     92     1  0.0000000  1.2552000  3
     88     87     91     93     1  0.0000000  1.2552000  3
     88     87     94     95     1  0.0000000  1.2552000  3
     88     87     94     96     1  0.0000000  1.2552000  3
     88    100    112    113     1  0.0000000  0.6508444  3
     88    100    112    114     1  0.0000000  0.6508444  3
     89     88     87     91     1  0.0000000  1.2552000  3
     89     88     87     94     1  0.0000000  1.2552000  3
     89     88    100    112     1  0.0000000  0.6508444  3
     89     88    100    101     1  0.0000000  0.6508444  3
     89     88    100    102     1  0.0000000  0.6508444  3
     90     88     87     91     1  0.0000000  1.2552000  3
     90     88     87     94     1  0.0000000  1.2552000  3
     90     88    100    112     1  0.0000000  0.6508444  3
     90     88    100    101     1  0.0000000  0.6508444  3
     90     88    100    102     1  0.0000000  0.6508444  3
     91     87     94     95     1  0.0000000  1.2552000  3
     91     87     94     96     1  0.0000000  1.2552000  3
     91    103    109    110     1  0.0000000  0.6508444  3
     91    103    109    111     1  0.0000000  0.6508444  3
     92     91     87     94     1  0.0000000  1.2552000  3
     92     91    103    109     1  0.0000000  0.6508444  3
     92     91    103    104     1  0.0000000  0.6508444  3
     92     91    103    105     1  0.0000000  0.6508444  3
     93     91     87     94     1  0.0000000  1.2552000  3
     93     91    103    109     1  0.0000000  0.6508444  3
     93     91    103    104     1  0.0000000  0.6508444  3
     93     91    103    105     1  0.0000000  0.6508444  3
     94     97    106    107     1  0.0000000  0.6508444  3
     94     97    106    108     1  0.0000000  0.6508444  3
     95     94     97    106     1  0.0000000  0.6508444  3
     95     94     97     98     1  0.0000000  0.6508444  3
     95     94     97     99     1  0.0000000  0.6508444  3
     96     94     97    106     1  0.0000000  0.6508444  3
     96     94     97     98     1  0.0000000  0.6508444  3
     96     94     97     99     1  0.0000000  0.6508444  3
     98     97    106    115     1  0.0000000  1.0460000  1
     98     97    106    115     1  0.0000000  0.0000000  3
     98     97    106    107     1  0.0000000  0.6508444  3
     98     97    106    108     1  0.0000000  0.6508444  3
     99     97    106    115     1  0.0000000  1.0460000  1
     99     97    106    115     1  0.0000000  0.0000000  3
     99     97    106    107     1  0.0000000  0.6508444  3
     99     97    106    108     1  0.0000000  0.6508444  3
    101    100    112    289     1  0.0000000  1.0460000  1
    101    100    112    289     1  0.0000000  0.0000000  3
    101    100    112    113     1  0.0000000  0.6508444  3
    101    100    112    114     1  0.0000000  0.6508444  3
    102    100    112    289     1  0.0000000  1.0460000  1
    102    100    112    289     1  0.0000000  0.0000000  3
    102    100    112    113     1  0.0000000  0.6508444  3
    102    100    112    114     1  0.0000000  0.6508444  3
    104    103    109    260     1  0.0000000  1.0460000  1
    104    103    109    260     1  0.0000000  0.0000000  3
    104    103    109    110     1  0.0000000  0.6508444  3
    104    103    109    111     1  0.0000000  0.6508444  3
    105    103    109    260     1  0.0000000  1.0460000  1
    105    103    109    260     1  0.0000000  0.0000000  3
    105    103    109    110     1  0.0000000  0.6508444  3
    105    103    109    111     1  0.0000000  0.6508444  3
    109    260    251    252     1  0.0000000  1.6038667  3
    109    260    251    253     1  0.0000000  1.6038667  3
    110    109    260    251     1  0.0000000  1.6038667  3
    111    109    260    251     1  0.0000000  1.6038667  3
    112    289    280    281     1  0.0000000  1.6038667  3
    112    289    280    282     1  0.0000000  1.6038667  3
    113    112    289    280     1  0.0000000  1.6038667  3
    114    112    289    280     1  0.0000000  1.6038667  3
    116    117    129    130     1  0.0000000  0.6508444  3
    116    117    129    131     1  0.0000000  0.6508444  3
    116    120    132    133     1  0.0000000  0.6508444  3
    116    120    132    134     1  0.0000000  0.6508444  3
    116    123    126    127     1  0.0000000  0.6508444  3
    116    123    126    128     1  0.0000000  0.6508444  3
    117    116    120    121     1  0.0000000  1.2552000  3
    117    116    120    122     1  0.0000000  1.2552000  3
    117    116    123    124     1  0.0000000  1.2552000  3
    117    116    123    125     1  0.0000000  1.2552000  3
    117    129    141    142     1  0.0000000  0.6508444  3
    117    129    141    143     1  0.0000000  0.6508444  3
    118    117    116    120     1  0.0000000  1.2552000  3
    118    117    116    123     1  0.0000000  1.2552000  3
    118    117    129    141     1  0.0000000  0.6508444  3
    118    117    129    130     1  0.0000000  0.6508444  3
    118    117    129    131     1  0.0000000  0.6508444  3
    119    117    116    120     1  0.0000000  1.2552000  3
    119    117    116    123     1  0.0000000  1.2552000  3
    119    117    129    141     1  0.0000000  0.6508444  3
    119    117    129    130     1  0.0000000  0.6508444  3
    119    117    129    131     1  0.0000000  0.6508444  3
    120    116    123    124     1  0.0000000  1.2552000  3
    120    116    123    125     1  0.0000000  1.2552000  3
    120    132    138    139     1  0.0000000  0.6508444  3
    120    132    138    140     1  0.0000000  0.6508444  3
    121    120    116    123     1  0.0000000  1.2552000  3
    121    120    132    138     1  0.0000000  0.6508444  3
    121    120    132    133     1  0.0000000  0.6508444  3
    121    120    132    134     1  0.0000000  0.6508444  3
    122    120    116    123     1  0.0000000  1.2552000  3
    122    120    132    138     1  0.0000000  0.6508444  3
    122    120    132    133     1  0.0000000  0.6508444  3
    122    120    132    134     1  0.0000000  0.6508444  3
    123    126    135    136     1  0.0000000  0.6508444  3
    123    126    135    137     1  0.0000000  0.6508444  3
    124    123    126    135     1  0.0000000  0.6508444  3
    124    123    126    127     1  0.0000000  0.6508444  3
    124    123    126    128     1  0.0000000  0.6508444  3
    125    123    126    135     1  0.0000000  0.6508444  3
    125    123    126    127     1  0.0000000  0.6508444  3
    125    123    126    128     1  0.0000000  0.6508444  3
    127    126    135    144     1  0.0000000  1.0460000  1
    127    126    135    144     1  0.0000000  0.0000000  3
    127    126    135    136     1  0.0000000  0.6508444  3
    127    126    135    137     1  0.0000000  0.6508444  3
    128    126    135    144     1  0.0000000  1.0460000  1
    128    126    135    144     1  0.0000000  0.0000000  3
    128    126    135    136     1  0.0000000  0.6508444  3
    128    126    135    137     1  0.0000000  0.6508444  3
    130    129    141    347     1  0.0000000  1.0460000  1
    130    129    141    347     1  0.0000000  0.0000000  3
    130    129    141    142     1  0.0000000  0.6508444  3
    130    129    141    143     1  0.0000000  0.6508444  3
    131    129    141    347     1  0.0000000  1.0460000  1
    131    129    141    347     1  0.0000000  0.0000000  3
    131    129    141    142     1  0.0000000  0.6508444  3
    131    129    141    143     1  0.0000000  0.6508444  3
    133    132    138    318     1  0.0000000  1.0460000  1
    133    132    138    318     1  0.0000000  0.0000000  3
    133    132    138    139     1  0.0000000  0.6508444  3
    133    132    138    140     1  0.0000000  0.6508444  3
    134    132    138    318     1  0.0000000  1.0460000  1
    134    132    138    318     1  0.0000000  0.0000000  3
    134    132    138    139     1  0.0000000  0.6508444  3
    134    132    138    140     1  0.0000000  0.6508444  3
    138    318    309    310     1  0.0000000  1.6038667  3
    138    318    309    311     1  0.0000000  1.6038667  3
    139    138    318    309     1  0.0000000  1.6038667  3
    140    138    318    309     1  0.0000000  1.6038667  3
    141    347    338    339     1  0.0000000  1.6038667  3
    141    347    338    340     1  0.0000000  1.6038667  3
    142    141    347    338     1  0.0000000  1.6038667  3
    143    141    347    338     1  0.0000000  1.6038667  3
    145    146    158    159     1  0.0000000  0.6508444  3
    145    146    158    160     1  0.0000000  0.6508444  3
    145    149    161    162     1  0.0000000  0.6508444  3
    145    149    161    163     1  0.0000000  0.6508444  3
    145    152    155    156     1  0.0000000  0.6508444  3
    145    152    155    157     1  0.0000000  0.6508444  3
    146    145    149    150     1  0.0000000  1.2552000  3
    146    145    149    151     1  0.0000000  1.2552000  3
    146    145    152    153     1  0.0000000  1.2552000  3
    146    145    152    154     1  0.0000000  1.2552000  3
    146    158    170    171     1  0.0000000  0.6508444  3
    146    158    170    172     1  0.0000000  0.6508444  3
    147    146    145    149     1  0.0000000  1.2552000  3
    147    146    145    152     1  0.0000000  1.2552000  3
    147    146    158    170     1  0.0000000  0.6508444  3
    147    146    158    159     1  0.0000000  0.6508444  3
    147    146    158    160     1  0.0000000  0.6508444  3
    148    146    145    149     1  0.0000000  1.2552000  3
    148    146    145    152     1  0.0000000  1.2552000  3
    148    146    158    170     1  0.0000000  0.6508444  3
    148    146    158    159     1  0.0000000  0.6508444  3
    148    146    158    160     1  0.0000000  0.6508444  3
    149    145    152    153     1  0.0000000  1.2552000  3
    149    145    152    154     1  0.0000000  1.2552000  3
    149    161    167    168     1  0.0000000  0.6508444  3
    149    161    167    169     1  0.0000000  0.6508444  3
    150    149    145    152     1  0.0000000  1.2552000  3
    150    149    161    167     1  0.0000000  0.6508444  3
    150    149    161    162     1  0.0000000  0.6508444  3
    150    149    161    163     1  0.0000000  0.6508444  3
    151    149    145    152     1  0.0000000  1.2552000  3
    151    149    161    167     1  0.0000000  0.6508444  3
    151    149    161    162     1  0.0000000  0.6508444  3
    151    149    161    163     1  0.0000000  0.6508444  3
    152    155    164    165     1  0.0000000  0.6508444  3
    152    155    164    166     1  0.0000000  0.6508444  3
    153    152    155    164     1  0.0000000  0.6508444  3
    153    152    155    156     1  0.0000000  0.6508444  3
    153    152    155    157     1  0.0000000  0.6508444  3
    154    152    155    164     1  0.0000000  0.6508444  3
    154    152    155    156     1  0.0000000  0.6508444  3
    154    152    155    157     1  0.0000000  0.6508444  3
    156    155    164    173     1  0.0000000  1.0460000  1
    156    155    164    173     1  0.0000000  0.0000000  3
    156    155    164    165     1  0.0000000  0.6508444  3
    156    155    164    166     1  0.0000000  0.6508444  3
    157    155    164    173     1  0.0000000  1.0460000  1
    157    155    164    173     1  0.0000000  0.0000000  3
    157    155    164    165     1  0.0000000  0.6508444  3
    157    155    164    166     1  0.0000000  0.6508444  3
    159    158    170    405     1  0.0000000  1.0460000  1
    159    158    170    405     1  0.0000000  0.0000000  3
    159    158    170    171     1  0.0000000  0.6508444  3
    159    158    170    172     1  0.0000000  0.6508444  3
    160    158    170    405     1  0.0000000  1.0460000  1
    160    158    170    405     1  0.0000000  0.0000000  3
    160    158    170    171     1  0.0000000  0.6508444  3
    160    158    170    172     1  0.0000000  0.6508444  3
    162    161    167    376     1  0.0000000  1.0460000  1
    162    161    167    376     1  0.0000000  0.0000000  3
    162    161    167    168     1  0.0000000  0.6508444  3
    162    161    167    169     1  0.0000000  0.6508444  3
    163    161    167    376     1  0.0000000  1.0460000  1
    163    161    167    376     1  0.0000000  0.0000000  3
    163    161    167    168     1  0.0000000  0.6508444  3
    163    161    167    169     1  0.0000000  0.6508444  3
    167    376    367    368     1  0.0000000  1.6038667  3
    167    376    367    369     1  0.0000000  1.6038667  3
    168    167    376    367     1  0.0000000  1.6038667  3
    169    167    376    367     1  0.0000000  1.6038667  3
    170    405    396    397     1  0.0000000  1.6038667  3
    170    405    396    398     1  0.0000000  1.6038667  3
    171    170    405    396     1  0.0000000  1.6038667  3
    172    170    405    396     1  0.0000000  1.6038667  3
    174    175    187    188     1  0.0000000  0.6508444  3
    174    175    187    189     1  0.0000000  0.6508444  3
    174    178    190    191     1  0.0000000  0.6508444  3
    174    178    190    192     1  0.0000000  0.6508444  3
    174    181    184    185     1  0.0000000  0.6508444  3
    174    181    184    186     1  0.0000000  0.6508444  3
    175    174    178    179     1  0.0000000  1.2552000  3
    175    174    178    180     1  0.0000000  1.2552000  3
    175    174    181    182     1  0.0000000  1.2552000  3
    175    174    181    183     1  0.0000000  1.2552000  3
    175    187    199    200     1  0.0000000  0.6508444  3
    175    187    199    201     1  0.0000000  0.6508444  3
    176    175    174    178     1  0.0000000  1.2552000  3
    176    175    174    181     1  0.0000000  1.2552000  3
    176    175    187    199     1  0.0000000  0.6508444  3
    176    175    187    188     1  0.0000000  0.6508444  3
    176    175    187    189     1  0.0000000  0.6508444  3
    177    175    174    178     1  0.0000000  1.2552000  3
    177    175    174    181     1  0.0000000  1.2552000  3
    177    175    187    199     1  0.0000000  0.6508444  3
    177    175    187    188     1  0.0000000  0.6508444  3
    177    175    187    189     1  0.0000000  0.6508444  3
    178    174    181    182     1  0.0000000  1.2552000  3
    178    174    181    183     1  0.0000000  1.2552000  3
    178    190    196    197     1  0.0000000  0.6508444  3
    178    190    196    198     1  0.0000000  0.6508444  3
    179    178    174    181     1  0.0000000  1.2552000  3
    179    178    190    196     1  0.0000000  0.6508444  3
    179    178    190    191     1  0.0000000  0.6508444  3
    179    178    190    192     1  0.0000000  0.6508444  3
    180    178    174    181     1  0.0000000  1.2552000  3
    180    178    190    196     1  0.0000000  0.6508444  3
    180    178    190    191     1  0.0000000  0.6508444  3
    180    178    190    192     1  0.0000000  0.6508444  3
    181    184    193    194     1  0.0000000  0.6508444  3
    181    184    193    195     1  0.0000000  0.6508444  3
    182    181    184    193     1  0.0000000  0.6508444  3
    182    181    184    185     1  0.0000000  0.6508444  3
    182    181    184    186     1  0.0000000  0.6508444  3
    183    181    184    193     1  0.0000000  0.6508444  3
    183    181    184    185     1  0.0000000  0.6508444  3
    183    181    184    186     1  0.0000000  0.6508444  3
    185    184    193    202     1  0.0000000  1.0460000  1
    185    184    193    202     1  0.0000000  0.0000000  3
    185    184    193    194     1  0.0000000  0.6508444  3
    185    184    193    195     1  0.0000000  0.6508444  3
    186    184    193    202     1  0.0000000  1.0460000  1
    186    184    193    202     1  0.0000000  0.0000000  3
    186    184    193    194     1  0.0000000  0.6508444  3
    186    184    193    195     1  0.0000000  0.6508444  3
    188    187    199    463     1  0.0000000  1.0460000  1
    188    187    199    463     1  0.0000000  0.0000000  3
    188    187    199    200     1  0.0000000  0.6508444  3
    188    187    199    201     1  0.0000000  0.6508444  3
    189    187    199    463     1  0.0000000  1.0460000  1
    189    187    199    463     1  0.0000000  0.0000000  3
    189    187    199    200     1  0.0000000  0.6508444  3
    189    187    199    201     1  0.0000000  0.6508444  3
    191    190    196    434     1  0.0000000  1.0460000  1
    191    190    196    434     1  0.0000000  0.0000000  3
    191    190    196    197     1  0.0000000  0.6508444  3
    191    190    196    198     1  0.0000000  0.6508444  3
    192    190    196    434     1  0.0000000  1.0460000  1
    192    190    196    434     1  0.0000000  0.0000000  3
    192    190    196    197     1  0.0000000  0.6508444  3
    192    190    196    198     1  0.0000000  0.6508444  3
    196    434    406    407     1  0.0000000  1.6038667  3
    196    434    406    408     1  0.0000000  1.6038667  3
    197    196    434    406     1  0.0000000  1.6038667  3
    198    196    434    406     1  0.0000000  1.6038667  3
    199    463    435    436     1  0.0000000  1.6038667  3
    199    463    435    437     1  0.0000000  1.6038667  3
    200    199    463    435     1  0.0000000  1.6038667  3
    201    199    463    435     1  0.0000000  1.6038667  3
    203    204    216    217     1  0.0000000  0.6508444  3
    203    204    216    218     1  0.0000000  0.6508444  3
    203    207    219    220     1  0.0000000  0.6508444  3
    203    207    219    221     1  0.0000000  0.6508444  3
    203    210    213    214     1  0.0000000  0.6508444  3
    203    210    213    215     1  0.0000000  0.6508444  3
    204    203    207    208     1  0.0000000  1.2552000  3
    204    203    207    209     1  0.0000000  1.2552000  3
    204    203    210    211     1  0.0000000  1.2552000  3
    204    203    210    212     1  0.0000000  1.2552000  3
    204    216    228    229     1  0.0000000  0.6508444  3
    204    216    228    230     1  0.0000000  0.6508444  3
    205    204    203    207     1  0.0000000  1.2552000  3
    205    204    203    210     1  0.0000000  1.2552000  3
    205    204    216    228     1  0.0000000  0.6508444  3
    205    204    216    217     1  0.0000000  0.6508444  3
    205    204    216    218     1  0.0000000  0.6508444  3
    206    204    203    207     1  0.0000000  1.2552000  3
    206    204    203    210     1  0.0000000  1.2552000  3
    206    204    216    228     1  0.0000000  0.6508444  3
    206    204    216    217     1  0.0000000  0.6508444  3
    206    204    216    218     1  0.0000000  0.6508444  3
    207    203    210    211     1  0.0000000  1.2552000  3
    207    203    210    212     1  0.0000000  1.2552000  3
    207    219    225    226     1  0.0000000  0.6508444  3
    207    219    225    227     1  0.0000000  0.6508444  3
    208    207    203    210     1  0.0000000  1.2552000  3
    208    207    219    225     1  0.0000000  0.6508444  3
    208    207    219    220     1  0.0000000  0.6508444  3
    208    207    219    221     1  0.0000000  0.6508444  3
    209    207    203    210     1  0.0000000  1.2552000  3
    209    207    219    225     1  0.0000000  0.6508444  3
    209    207    219    220     1  0.0000000  0.6508444  3
    209    207    219    221     1  0.0000000  0.6508444  3
    210    213    222    223     1  0.0000000  0.6508444  3
    210    213    222    224     1  0.0000000  0.6508444  3
    211    210    213    222     1  0.0000000  0.6508444  3
    211    210    213    214     1  0.0000000  0.6508444  3
    211    210    213    215     1  0.0000000  0.6508444  3
    212    210    213    222     1  0.0000000  0.6508444  3
    212    210    213    214     1  0.0000000  0.6508444  3
    212    210    213    215     1  0.0000000  0.6508444  3
    214    213    222    231     1  0.0000000  1.0460000  1
    214    213    222    231     1  0.0000000  0.0000000  3
    214    213    222    223     1  0.0000000  0.6508444  3
    214    213    222    224     1  0.0000000  0.6508444  3
    215    213    222    231     1  0.0000000  1.0460000  1
    215    213    222    231     1  0.0000000  0.0000000  3
    215    213    222    223     1  0.0000000  0.6508444  3
    215    213    222    224     1  0.0000000  0.6508444  3
    217    216    228    521     1  0.0000000  1.0460000  1
    217    216    228    521     1  0.0000000  0.0000000  3
    217    216    228    229     1  0.0000000  0.6508444  3
    217    216    228    230     1  0.0000000  0.6508444  3
    218    216    228    521     1  0.0000000  1.0460000  1
    218    216    228    521     1  0.0000000  0.0000000  3
    218    216    228    229     1  0.0000000  0.6508444  3
    218    216    228    230     1  0.0000000  0.6508444  3
    220    219    225    492     1  0.0000000  1.0460000  1
    220    219    225    492     1  0.0000000  0.0000000  3
    220    219    225    226     1  0.0000000  0.6508444  3
    220    219    225    227     1  0.0000000  0.6508444  3
    221    219    225    492     1  0.0000000  1.0460000  1
    221    219    225    492     1  0.0000000  0.0000000  3
    221    219    225    226     1  0.0000000  0.6508444  3
    221    219    225    227     1  0.0000000  0.6508444  3
    225    492    464    465     1  0.0000000  1.6038667  3
    225    492    464    466     1  0.0000000  1.6038667  3
    226    225    492    464     1  0.0000000  1.6038667  3
    227    225    492    464     1  0.0000000  1.6038667  3
    228    521    493    494     1  0.0000000  1.6038667  3
    228    521    493    495     1  0.0000000  1.6038667  3
    229    228    521    493     1  0.0000000  1.6038667  3
    230    228    521    493     1  0.0000000  1.6038667  3
    232    233    245    246     1  0.0000000  0.6508444  3
    232    233    245    247     1  0.0000000  0.6508444  3
    232    236    248    249     1  0.0000000  0.6508444  3
    232    236    248    250     1  0.0000000  0.6508444  3
    232    239    242    243     1  0.0000000  0.6508444  3
    232    239    242    244     1  0.0000000  0.6508444  3
    233    232    236    237     1  0.0000000  1.2552000  3
    233    232    236    238     1  0.0000000  1.2552000  3
    233    232    239    240     1  0.0000000  1.2552000  3
    233    232    239    241     1  0.0000000  1.2552000  3
    233    245    257    258     1  0.0000000  0.6508444  3
    233    245    257    259     1  0.0000000  0.6508444  3
    234    233    232    236     1  0.0000000  1.2552000  3
    234    233    232    239     1  0.0000000  1.2552000  3
    234    233    245    257     1  0.0000000  0.6508444  3
    234    233    245    246     1  0.0000000  0.6508444  3
    234    233    245    247     1  0.0000000  0.6508444  3
    235    233    232    236     1  0.0000000  1.2552000  3
    235    233    232    239     1  0.0000000  1.2552000  3
    235    233    245    257     1  0.0000000  0.6508444  3
    235    233    245    246     1  0.0000000  0.6508444  3
    235    233    245    247     1  0.0000000  0.6508444  3
    236    232    239    240     1  0.0000000  1.2552000  3
    236    232    239    241     1  0.0000000  1.2552000  3
    236    248    254    255     1  0.0000000  0.6508444  3
    236    248    254    256     1  0.0000000  0.6508444  3
    237    236    232    239     1  0.0000000  1.2552000  3
    237    236    248    254     1  0.0000000  0.6508444  3
    237    236    248    249     1  0.0000000  0.6508444  3
    237    236    248    250     1  0.0000000  0.6508444  3
    238    236    232    239     1  0.0000000  1.2552000  3
    238    236    248    254     1  0.0000000  0.6508444  3
    238    236    248    249     1  0.0000000  0.6508444  3
    238    236    248    250     1  0.0000000  0.6508444  3
    239    242    251    252     1  0.0000000  0.6508444  3
    239    242    251    253     1  0.0000000  0.6508444  3
    240    239    242    251     1  0.0000000  0.6508444  3
    240    239    242    243     1  0.0000000  0.6508444  3
    240    239    242    244     1  0.0000000  0.6508444  3
    241    239    242    251     1  0.0000000  0.6508444  3
    241    239    242    243     1  0.0000000  0.6508444  3
    241    239    242    244     1  0.0000000  0.6508444  3
    243    242    251    260     1  0.0000000  1.0460000  1
    243    242    251    260     1  0.0000000  0.0000000  3
    243    242    251    252     1  0.0000000  0.6508444  3
    243    242    251    253     1  0.0000000  0.6508444  3
    244    242    251    260     1  0.0000000  1.0460000  1
    244    242    251    260     1  0.0000000  0.0000000  3
    244    242    251    252     1  0.0000000  0.6508444  3
    244    242    251    253     1  0.0000000  0.6508444  3
    246    245    257    579     1  0.0000000  1.0460000  1
    246    245    257    579     1  0.0000000  0.0000000  3
    246    245    257    258     1  0.0000000  0.6508444  3
    246    245    257    259     1  0.0000000  0.6508444  3
    247    245    257    579     1  0.0000000  1.0460000  1
    247    245    257    579     1  0.0000000  0.0000000  3
    247    245    257    258     1  0.0000000  0.6508444  3
    247    245    257    259     1  0.0000000  0.6508444  3
    249    248    254    550     1  0.0000000  1.0460000  1
    249    248    254    550     1  0.0000000  0.0000000  3
    249    248    254    255     1  0.0000000  0.6508444  3
    249    248    254    256     1  0.0000000  0.6508444  3
    250    248    254    550     1  0.0000000  1.0460000  1
    250    248    254    550     1  0.0000000  0.0000000  3
    250    248    254    255     1  0.0000000  0.6508444  3
    250    248    254    256     1  0.0000000  0.6508444  3
    254    550    522    523     1  0.0000000  1.6038667  3
    254    550    522    524     1  0.0000000  1.6038667  3
    255    254    550    522     1  0.0000000  1.6038667  3
    256    254    550    522     1  0.0000000  1.6038667  3
    257    579    551    552     1  0.0000000  1.6038667  3
    257    579    551    553     1  0.0000000  1.6038667  3
    258    257    579    551     1  0.0000000  1.6038667  3
    259    257    579    551     1  0.0000000  1.6038667  3
    261    262    274    275     1  0.0000000  0.6508444  3
    261    262    274    276     1  0.0000000  0.6508444  3
    261    265    277    278     1  0.0000000  0.6508444  3
    261    265    277    279     1  0.0000000  0.6508444  3
    261    268    271    272     1  0.0000000  0.6508444  3
    261    268    271    273     1  0.0000000  0.6508444  3
    262    261    265    266     1  0.0000000  1.2552000  3
    262    261    265    267     1  0.0000000  1.2552000  3
    262    261    268    269     1  0.0000000  1.2552000  3
    262    261    268    270     1  0.0000000  1.2552000  3
    262    274    286    287     1  0.0000000  0.6508444  3
    262    274    286    288     1  0.0000000  0.6508444  3
    263    262    261    265     1  0.0000000  1.2552000  3
    263    262    261    268     1  0.0000000  1.2552000  3
    263    262    274    286     1  0.0000000  0.6508444  3
    263    262    274    275     1  0.0000000  0.6508444  3
    263    262    274    276     1  0.0000000  0.6508444  3
    264    262    261    265     1  0.0000000  1.2552000  3
    264    262    261    268     1  0.0000000  1.2552000  3
    264    262    274    286     1  0.0000000  0.6508444  3
    264    262    274    275     1  0.0000000  0.6508444  3
    264    262    274    276     1  0.0000000  0.6508444  3
    265    261    268    269     1  0.0000000  1.2552000  3
    265    261    268    270     1  0.0000000  1.2552000  3
    265    277    283    284     1  0.0000000  0.6508444  3
    265    277    283    285     1  0.0000000  0.6508444  3
    266    265    261    268     1  0.0000000  1.2552000  3
    266    265    277    283     1  0.0000000  0.6508444  3
    266    265    277    278     1  0.0000000  0.6508444  3
    266    265    277    279     1  0.0000000  0.6508444  3
    267    265    261    268     1  0.0000000  1.2552000  3
    267    265    277    283     1  0.0000000  0.6508444  3
    267    265    277    278     1  0.0000000  0.6508444  3
    267    265    277    279     1  0.0000000  0.6508444  3
    268    271    280    281     1  0.0000000  0.6508444  3
    268    271    280    282     1  0.0000000  0.6508444  3
    269    268    271    280     1  0.0000000  0.6508444  3
    269    268    271    272     1  0.0000000  0.6508444  3
    269    268    271    273     1  0.0000000  0.6508444  3
    270    268    271    280     1  0.0000000  0.6508444  3
    270    268    271    272     1  0.0000000  0.6508444  3
    270    268    271    273     1  0.0000000  0.6508444  3
    272    271    280    289     1  0.0000000  1.0460000  1
    272    271    280    289     1  0.0000000  0.0000000  3
    272    271    280    281     1  0.0000000  0.6508444  3
    272    271    280    282     1  0.0000000  0.6508444  3
    273    271    280    289     1  0.0000000  1.0460000  1
    273    271    280    289     1  0.0000000  0.0000000  3
    273    271    280    281     1  0.0000000  0.6508444  3
    273    271    280    282     1  0.0000000  0.6508444  3
    275    274    286    637     1  0.0000000  1.0460000  1
    275    274    286    637     1  0.0000000  0.0000000  3
    275    274    286    287     1  0.0000000  0.6508444  3
    275    274    286    288     1  0.0000000  0.6508444  3
    276    274    286    637     1  0.0000000  1.0460000  1
    276    274    286    637     1  0.0000000  0.0000000  3
    276    274    286    287     1  0.0000000  0.6508444  3
    276    274    286    288     1  0.0000000  0.6508444  3
    278    277    283    608     1  0.0000000  1.0460000  1
    278    277    283    608     1  0.0000000  0.0000000  3
    278    277    283    284     1  0.0000000  0.6508444  3
    278    277    283    285     1  0.0000000  0.6508444  3
    279    277    283    608     1  0.0000000  1.0460000  1
    279    277    283    608     1  0.0000000  0.0000000  3
    279    277    283    284     1  0.0000000  0.6508444  3
    279    277    283    285     1  0.0000000  0.6508444  3
    283    608    580    581     1  0.0000000  1.6038667  3
    283    608    580    582     1  0.0000000  1.6038667  3
    284    283    608    580     1  0.0000000  1.6038667  3
    285    283    608    580     1  0.0000000  1.6038667  3
    286    637    609    610     1  0.0000000  1.6038667  3
    286    637    609    611     1  0.0000000  1.6038667  3
    287    286    637    609     1  0.0000000  1.6038667  3
    288    286    637    609     1  0.0000000  1.6038667  3
    290    291    303    304     1  0.0000000  0.6508444  3
    290    291    303    305     1  0.0000000  0.6508444  3
    290    294    306    307     1  0.0000000  0.6508444  3
    290    294    306    308     1  0.0000000  0.6508444  3
    290    297    300    301     1  0.0000000  0.6508444  3
    290    297    300    302     1  0.0000000  0.6508444  3
    291    290    294    295     1  0.0000000  1.2552000  3
    291    290    294    296     1  0.0000000  1.2552000  3
    291    290    297    298     1  0.0000000  1.2552000  3
    291    290    297    299     1  0.0000000  1.2552000  3
    291    303    315    316     1  0.0000000  0.6508444  3
    291    303    315    317     1  0.0000000  0.6508444  3
    292    291    290    294     1  0.0000000  1.2552000  3
    292    291    290    297     1  0.0000000  1.2552000  3
    292    291    303    315     1  0.0000000  0.6508444  3
    292    291    303    304     1  0.0000000  0.6508444  3
    292    291    303    305     1  0.0000000  0.6508444  3
    293    291    290    294     1  0.0000000  1.2552000  3
    293    291    290    297     1  0.0000000  1.2552000  3
    293    291    303    315     1  0.0000000  0.6508444  3
    293    291    303    304     1  0.0000000  0.6508444  3
    293    291    303    305     1  0.0000000  0.6508444  3
    294    290    297    298     1  0.0000000  1.2552000  3
    294    290    297    299     1  0.0000000  1.2552000  3
    294    306    312    313     1  0.0000000  0.6508444  3
    294    306    312    314     1  0.0000000  0.6508444  3
    295    294    290    297     1  0.0000000  1.2552000  3
    295    294    306    312     1  0.0000000  0.6508444  3
    295    294    306    307     1  0.0000000  0.6508444  3
    295    294    306    308     1  0.0000000  0.6508444  3
    296    294    290    297     1  0.0000000  1.2552000  3
    296    294    306    312     1  0.0000000  0.6508444  3
    296    294    306    307     1  0.0000000  0.6508444  3
    296    294    306    308     1  0.0000000  0.6508444  3
    297    300    309    310     1  0.0000000  0.6508444  3
    297    300    309    311     1  0.0000000  0.6508444  3
    298    297    300    309     1  0.0000000  0.6508444  3
    298    297    300    301     1  0.0000000  0.6508444  3
    298    297    300    302     1  0.0000000  0.6508444  3
    299    297    300    309     1  0.0000000  0.6508444  3
    299    297    300    301     1  0.0000000  0.6508444  3
    299    297    300    302     1  0.0000000  0.6508444  3
    301    300    309    318     1  0.0000000  1.0460000  1
    301    300    309    318     1  0.0000000  0.0000000  3
    301    300    309    310     1  0.0000000  0.6508444  3
    301    300    309    311     1  0.0000000  0.6508444  3
    302    300    309    318     1  0.0000000  1.0460000  1
    302    300    309    318     1  0.0000000  0.0000000  3
    302    300    309    310     1  0.0000000  0.6508444  3
    302    300    309    311     1  0.0000000  0.6508444  3
    304    303    315    695     1  0.0000000  1.0460000  1
    304    303    315    695     1  0.0000000  0.0000000  3
    304    303    315    316     1  0.0000000  0.6508444  3
    304    303    315    317     1  0.0000000  0.6508444  3
    305    303    315    695     1  0.0000000  1.0460000  1
    305    303    315    695     1  0.0000000  0.0000000  3
    305    303    315    316     1  0.0000000  0.6508444  3
    305    303    315    317     1  0.0000000  0.6508444  3
    307    306    312    666     1  0.0000000  1.0460000  1
    307    306    312    666     1  0.0000000  0.0000000  3
    307    306    312    313     1  0.0000000  0.6508444  3
    307    306    312    314     1  0.0000000  0.6508444  3
    308    306    312    666     1  0.0000000  1.0460000  1
    308    306    312    666     1  0.0000000  0.0000000  3
    308    306    312    313     1  0.0000000  0.6508444  3
    308    306    312    314     1  0.0000000  0.6508444  3
    312    666    638    639     1  0.0000000  1.6038667  3
    312    666    638    640     1  0.0000000  1.6038667  3
    313    312    666    638     1  0.0000000  1.6038667  3
    314    312    666    638     1  0.0000000  1.6038667  3
    315    695    667    668     1  0.0000000  1.6038667  3
    315    695    667    669     1  0.0000000  1.6038667  3
    316    315    695    667     1  0.0000000  1.6038667  3
    317    315    695    667     1  0.0000000  1.6038667  3
    319    320    332    333     1  0.0000000  0.6508444  3
    319    320    332    334     1  0.0000000  0.6508444  3
    319    323    335    336     1  0.0000000  0.6508444  3
    319    323    335    337     1  0.0000000  0.6508444  3
    319    326    329    330     1  0.0000000  0.6508444  3
    319    326    329    331     1  0.0000000  0.6508444  3
    320    319    323    324     1  0.0000000  1.2552000  3
    320    319    323    325     1  0.0000000  1.2552000  3
    320    319    326    327     1  0.0000000  1.2552000  3
    320    319    326    328     1  0.0000000  1.2552000  3
    320    332    344    345     1  0.0000000  0.6508444  3
    320    332    344    346     1  0.0000000  0.6508444  3
    321    320    319    323     1  0.0000000  1.2552000  3
    321    320    319    326     1  0.0000000  1.2552000  3
    321    320    332    344     1  0.0000000  0.6508444  3
    321    320    332    333     1  0.0000000  0.6508444  3
    321    320    332    334     1  0.0000000  0.6508444  3
    322    320    319    323     1  0.0000000  1.2552000  3
    322    320    319    326     1  0.0000000  1.2552000  3
    322    320    332    344     1  0.0000000  0.6508444  3
    322    320    332    333     1  0.0000000  0.6508444  3
    322    320    332    334     1  0.0000000  0.6508444  3
    323    319    326    327     1  0.0000000  1.2552000  3
    323    319    326    328     1  0.0000000  1.2552000  3
    323    335    341    342     1  0.0000000  0.6508444  3
    323    335    341    343     1  0.0000000  0.6508444  3
    324    323    319    326     1  0.0000000  1.2552000  3
    324    323    335    341     1  0.0000000  0.6508444  3
    324    323    335    336     1  0.0000000  0.6508444  3
    324    323    335    337     1  0.0000000  0.6508444  3
    325    323    319    326     1  0.0000000  1.2552000  3
    325    323    335    341     1  0.0000000  0.6508444  3
    325    323    335    336     1  0.0000000  0.6508444  3
    325    323    335    337     1  0.0000000  0.6508444  3
    326    329    338    339     1  0.0000000  0.6508444  3
    326    329    338    340     1  0.0000000  0.6508444  3
    327    326    329    338     1  0.0000000  0.6508444  3
    327    326    329    330     1  0.0000000  0.6508444  3
    327    326    329    331     1  0.0000000  0.6508444  3
    328    326    329    338     1  0.0000000  0.6508444  3
    328    326    329    330     1  0.0000000  0.6508444  3
    328    326    329    331     1  0.0000000  0.6508444  3
    330    329    338    347     1  0.0000000  1.0460000  1
    330    329    338    347     1  0.0000000  0.0000000  3
    330    329    338    339     1  0.0000000  0.6508444  3
    330    329    338    340     1  0.0000000  0.6508444  3
    331    329    338    347     1  0.0000000  1.0460000  1
    331    329    338    347     1  0.0000000  0.0000000  3
    331    329    338    339     1  0.0000000  0.6508444  3
    331    329    338    340     1  0.0000000  0.6508444  3
    333    332    344    753     1  0.0000000  1.0460000  1
    333    332    344    753     1  0.0000000  0.0000000  3
    333    332    344    345     1  0.0000000  0.6508444  3
    333    332    344    346     1  0.0000000  0.6508444  3
    334    332    344    753     1  0.0000000  1.0460000  1
    334    332    344    753     1  0.0000000  0.0000000  3
    334    332    344    345     1  0.0000000  0.6508444  3
    334    332    344    346     1  0.0000000  0.6508444  3
    336    335    341    724     1  0.0000000  1.0460000  1
    336    335    341    724     1  0.0000000  0.0000000  3
    336    335    341    342     1  0.0000000  0.6508444  3
    336    335    341    343     1  0.0000000  0.6508444  3
    337    335    341    724     1  0.0000000  1.0460000  1
    337    335    341    724     1  0.0000000  0.0000000  3
    337    335    341    342     1  0.0000000  0.6508444  3
    337    335    341    343     1  0.0000000  0.6508444  3
    341    724    696    697     1  0.0000000  1.6038667  3
    341    724    696    698     1  0.0000000  1.6038667  3
    342    341    724    696     1  0.0000000  1.6038667  3
    343    341    724    696     1  0.0000000  1.6038667  3
    344    753    725    726     1  0.0000000  1.6038667  3
    344    753    725    727     1  0.0000000  1.6038667  3
    345    344    753    725     1  0.0000000  1.6038667  3
    346    344    753    725     1  0.0000000  1.6038667  3
    348    349    361    362     1  0.0000000  0.6508444  3
    348    349    361    363     1  0.0000000  0.6508444  3
    348    352    364    365     1  0.0000000  0.6508444  3
    348    352    364    366     1  0.0000000  0.6508444  3
    348    355    358    359     1  0.0000000  0.6508444  3
    348    355    358    360     1  0.0000000  0.6508444  3
    349    348    352    353     1  0.0000000  1.2552000  3
    349    348    352    354     1  0.0000000  1.2552000  3
    349    348    355    356     1  0.0000000  1.2552000  3
    349    348    355    357     1  0.0000000  1.2552000  3
    349    361    373    374     1  0.0000000  0.6508444  3
    349    361    373    375     1  0.0000000  0.6508444  3
    350    349    348    352     1  0.0000000  1.2552000  3
    350    349    348    355     1  0.0000000  1.2552000  3
    350    349    361    373     1  0.0000000  0.6508444  3
    350    349    361    362     1  0.0000000  0.6508444  3
    350    349    361    363     1  0.0000000  0.6508444  3
    351    349    348    352     1  0.0000000  1.2552000  3
    351    349    348    355     1  0.0000000  1.2552000  3
    351    349    361    373     1  0.0000000  0.6508444  3
    351    349    361    362     1  0.0000000  0.6508444  3
    351    349    361    363     1  0.0000000  0.6508444  3
    352    348    355    356     1  0.0000000  1.2552000  3
    352    348    355    357     1  0.0000000  1.2552000  3
    352    364    370    371     1  0.0000000  0.6508444  3
    352    364    370    372     1  0.0000000  0.6508444  3
    353    352    348    355     1  0.0000000  1.2552000  3
    353    352    364    370     1  0.0000000  0.6508444  3
    353    352    364    365     1  0.0000000  0.6508444  3
    353    352    364    366     1  0.0000000  0.6508444  3
    354    352    348    355     1  0.0000000  1.2552000  3
    354    352    364    370     1  0.0000000  0.6508444  3
    354    352    364    365     1  0.0000000  0.6508444  3
    354    352    364    366     1  0.0000000  0.6508444  3
    355    358    367    368     1  0.0000000  0.6508444  3
    355    358    367    369     1  0.0000000  0.6508444  3
    356    355    358    367     1  0.0000000  0.6508444  3
    356    355    358    359     1  0.0000000  0.6508444  3
    356    355    358    360     1  0.0000000  0.6508444  3
    357    355    358    367     1  0.0000000  0.6508444  3
    357    355    358    359     1  0.0000000  0.6508444  3
    357    355    358    360     1  0.0000000  0.6508444  3
    359    358    367    376     1  0.0000000  1.0460000  1
    359    358    367    376     1  0.0000000  0.0000000  3
    359    358    367    368     1  0.0000000  0.6508444  3
    359    358    367    369     1  0.0000000  0.6508444  3
    360    358    367    376     1  0.0000000  1.0460000  1
    360    358    367    376     1  0.0000000  0.0000000  3
    360    358    367    368     1  0.0000000  0.6508444  3
    360    358    367    369     1  0.0000000  0.6508444  3
    362    361    373    811     1  0.0000000  1.0460000  1
    362    361    373    811     1  0.0000000  0.0000000  3
    362    361    373    374     1  0.0000000  0.6508444  3
    362    361    373    375     1  0.0000000  0.6508444  3
    363    361    373    811     1  0.0000000  1.0460000  1
    363    361    373    811     1  0.0000000  0.0000000  3
    363    361    373    374     1  0.0000000  0.6508444  3
    363    361    373    375     1  0.0000000  0.6508444  3
    365    364    370    782     1  0.0000000  1.0460000  1
    365    364    370    782     1  0.0000000  0.0000000  3
    365    364    370    371     1  0.0000000  0.6508444  3
    365    364    370    372     1  0.0000000  0.6508444  3
    366    364    370    782     1  0.0000000  1.0460000  1
    366    364    370    782     1  0.0000000  0.0000000  3
    366    364    370    371     1  0.0000000  0.6508444  3
    366    364    370    372     1  0.0000000  0.6508444  3
    370    782    754    755     1  0.0000000  1.6038667  3
    370    782    754    756     1  0.0000000  1.6038667  3
    371    370    782    754     1  0.0000000  1.6038667  3
    372    370    782    754     1  0.0000000  1.6038667  3
    373    811    783    784     1  0.0000000  1.6038667  3
    373    811    783    785     1  0.0000000  1.6038667  3
    374    373    811    783     1  0.0000000  1.6038667  3
    375    373    811    783     1  0.0000000  1.6038667  3
    377    378    390    391     1  0.0000000  0.6508444  3
    377    378    390    392     1  0.0000000  0.6508444  3
    377    381    393    394     1  0.0000000  0.6508444  3
    377    381    393    395     1  0.0000000  0.6508444  3
    377    384    387    388     1  0.0000000  0.6508444  3
    377    384    387    389     1  0.0000000  0.6508444  3
    378    377    381    382     1  0.0000000  1.2552000  3
    378    377    381    383     1  0.0000000  1.2552000  3
    378    377    384    385     1  0.0000000  1.2552000  3
    378    377    384    386     1  0.0000000  1.2552000  3
    378    390    402    403     1  0.0000000  0.6508444  3
    378    390    402    404     1  0.0000000  0.6508444  3
    379    378    377    381     1  0.0000000  1.2552000  3
    379    378    377    384     1  0.0000000  1.2552000  3
    379    378    390    402     1  0.0000000  0.6508444  3
    379    378    390    391     1  0.0000000  0.6508444  3
    379    378    390    392     1  0.0000000  0.6508444  3
    380    378    377    381     1  0.0000000  1.2552000  3
    380    378    377    384     1  0.0000000  1.2552000  3
    380    378    390    402     1  0.0000000  0.6508444  3
    380    378    390    391     1  0.0000000  0.6508444  3
    380    378    390    392     1  0.0000000  0.6508444  3
    381    377    384    385     1  0.0000000  1.2552000  3
    381    377    384    386     1  0.0000000  1.2552000  3
    381    393    399    400     1  0.0000000  0.6508444  3
    381    393    399    401     1  0.0000000  0.6508444  3
    382    381    377    384     1  0.0000000  1.2552000  3
    382    381    393    399     1  0.0000000  0.6508444  3
    382    381    393    394     1  0.0000000  0.6508444  3
    382    381    393    395     1  0.0000000  0.6508444  3
    383    381    377    384     1  0.0000000  1.2552000  3
    383    381    393    399     1  0.0000000  0.6508444  3
    383    381    393    394     1  0.0000000  0.6508444  3
    383    381    393    395     1  0.0000000  0.6508444  3
    384    387    396    397     1  0.0000000  0.6508444  3
    384    387    396    398     1  0.0000000  0.6508444  3
    385    384    387    396     1  0.0000000  0.6508444  3
    385    384    387    388     1  0.0000000  0.6508444  3
    385    384    387    389     1  0.0000000  0.6508444  3
    386    384    387    396     1  0.0000000  0.6508444  3
    386    384    387    388     1  0.0000000  0.6508444  3
    386    384    387    389     1  0.0000000  0.6508444  3
    388    387    396    405     1  0.0000000  1.0460000  1
    388    387    396    405     1  0.0000000  0.0000000  3
    388    387    396    397     1  0.0000000  0.6508444  3
    388    387    396    398     1  0.0000000  0.6508444  3
    389    387    396    405     1  0.0000000  1.0460000  1
    389    387    396    405     1  0.0000000  0.0000000  3
    389    387    396    397     1  0.0000000  0.6508444  3
    389    387    396    398     1  0.0000000  0.6508444  3
    391    390    402    869     1  0.0000000  1.0460000  1
    391    390    402    869     1  0.0000000  0.0000000  3
    391    390    402    403     1  0.0000000  0.6508444  3
    391    390    402    404     1  0.0000000  0.6508444  3
    392    390    402    869     1  0.0000000  1.0460000  1
    392    390    402    869     1  0.0000000  0.0000000  3
    392    390    402    403     1  0.0000000  0.6508444  3
    392    390    402    404     1  0.0000000  0.6508444  3
    394    393    399    840     1  0.0000000  1.0460000  1
    394    393    399    840     1  0.0000000  0.0000000  3
    394    393    399    400     1  0.0000000  0.6508444  3
    394    393    399    401     1  0.0000000  0.6508444  3
    395    393    399    840     1  0.0000000  1.0460000  1
    395    393    399    840     1  0.0000000  0.0000000  3
    395    393    399    400     1  0.0000000  0.6508444  3
    395    393    399    401     1  0.0000000  0.6508444  3
    399    840    812    813     1  0.0000000  1.6038667  3
    399    840    812    814     1  0.0000000  1.6038667  3
    400    399    840    812     1  0.0000000  1.6038667  3
    401    399    840    812     1  0.0000000  1.6038667  3
    402    869    841    842     1  0.0000000  1.6038667  3
    402    869    841    843     1  0.0000000  1.6038667  3
    403    402    869    841     1  0.0000000  1.6038667  3
    404    402    869    841     1  0.0000000  1.6038667  3
    406    409    412    413     1  0.0000000  0.6508444  3
    406    409    412    414     1  0.0000000  0.6508444  3
    407    406    409    412     1  0.0000000  0.6508444  3
    407    406    409    410     1  0.0000000  0.6508444  3
    407    406    409    411     1  0.0000000  0.6508444  3
    408    406    409    412     1  0.0000000  0.6508444  3
    408    406    409    410     1  0.0000000  0.6508444  3
    408    406    409    411     1  0.0000000  0.6508444  3
    410    409    406    434     1  0.0000000  1.0460000  1
    410    409    406    434     1  0.0000000  0.0000000  3
    410    409    412    415     1  0.0000000  0.6508444  3
    410    409    412    413     1  0.0000000  0.6508444  3
    410    409    412    414     1  0.0000000  0.6508444  3
    411    409    406    434     1  0.0000000  1.0460000  1
    411    409    406    434     1  0.0000000  0.0000000  3
    411    409    412    415     1  0.0000000  0.6508444  3
    411    409    412    413     1  0.0000000  0.6508444  3
    411    409    412    414     1  0.0000000  0.6508444  3
    412    415    416    417     1  0.0000000  1.2552000  3
    412    415    416    418     1  0.0000000  1.2552000  3
    412    415    425    426     1  0.0000000  1.2552000  3
    412    415    425    427     1  0.0000000  1.2552000  3
    413    412    415    416     1  0.0000000  1.2552000  3
    413    412    415    425     1  0.0000000  1.2552000  3
    414    412    415    416     1  0.0000000  1.2552000  3
    414    412    415    425     1  0.0000000  1.2552000  3
    415    416    419    420     1  0.0000000  0.6508444  3
    415    416    419    421     1  0.0000000  0.6508444  3
    415    425    428    429     1  0.0000000  0.6508444  3
    415    425    428    430     1  0.0000000  0.6508444  3
    416    415    425    426     1  0.0000000  1.2552000  3
    416    415    425    427     1  0.0000000  1.2552000  3
    417    416    415    425     1  0.0000000  1.2552000  3
    417    416    419    422     1  0.0000000  0.6508444  3
    417    416    419    420     1  0.0000000  0.6508444  3
    417    416    419    421     1  0.0000000  0.6508444  3
    418    416    415    425     1  0.0000000  1.2552000  3
    418    416    419    422     1  0.0000000  0.6508444  3
    418    416    419    420     1  0.0000000  0.6508444  3
    418    416    419    421     1  0.0000000  0.6508444  3
    420    419    422    423     1  0.0000000  3.3472000  1
    420    419    422    423     1  0.0000000  0.0000000  2
    420    419    422    423     1  180.0000771  0.3347200  3
    420    419    422    424     1  0.0000000  3.3472000  1
    420    419    422    424     1  0.0000000  0.0000000  2
    420    419    422    424     1  180.0000771  0.3347200  3
    421    419    422    423     1  0.0000000  3.3472000  1
    421    419    422    423     1  0.0000000  0.0000000  2
    421    419    422    423     1  180.0000771  0.3347200  3
    421    419    422    424     1  0.0000000  3.3472000  1
    421    419    422    424     1  0.0000000  0.0000000  2
    421    419    422    424     1  180.0000771  0.3347200  3
    426    425    428    431     1  0.0000000  0.6508444  3
    426    425    428    429     1  0.0000000  0.6508444  3
    426    425    428    430     1  0.0000000  0.6508444  3
    427    425    428    431     1  0.0000000  0.6508444  3
    427    425    428    429     1  0.0000000  0.6508444  3
    427    425    428    430     1  0.0000000  0.6508444  3
    429    428    431    432     1  0.0000000  3.3472000  1
    429    428    431    432     1  0.0000000  0.0000000  2
    429    428    431    432     1  180.0000771  0.3347200  3
    429    428    431    433     1  0.0000000  3.3472000  1
    429    428    431    433     1  0.0000000  0.0000000  2
    429    428    431    433     1  180.0000771  0.3347200  3
    430    428    431    432     1  0.0000000  3.3472000  1
    430    428    431    432     1  0.0000000  0.0000000  2
    430    428    431    432     1  180.0000771  0.3347200  3
    430    428    431    433     1  0.0000000  3.3472000  1
    430    428    431    433     1  0.0000000  0.0000000  2
    430    428    431    433     1  180.0000771  0.3347200  3
    435    438    441    442     1  0.0000000  0.6508444  3
    435    438    441    443     1  0.0000000  0.6508444  3
    436    435    438    441     1  0.0000000  0.6508444  3
    436    435    438    439     1  0.0000000  0.6508444  3
    436    435    438    440     1  0.0000000  0.6508444  3
    437    435    438    441     1  0.0000000  0.6508444  3
    437    435    438    439     1  0.0000000  0.6508444  3
    437    435    438    440     1  0.0000000  0.6508444  3
    439    438    441    444     1  0.0000000  0.6508444  3
    439    438    441    442     1  0.0000000  0.6508444  3
    439    438    441    443     1  0.0000000  0.6508444  3
    439    438    435    463     1  0.0000000  1.0460000  1
    439    438    435    463     1  0.0000000  0.0000000  3
    440    438    441    444     1  0.0000000  0.6508444  3
    440    438    441    442     1  0.0000000  0.6508444  3
    440    438    441    443     1  0.0000000  0.6508444  3
    440    438    435    463     1  0.0000000  1.0460000  1
    440    438    435    463     1  0.0000000  0.0000000  3
    441    444    445    446     1  0.0000000  1.2552000  3
    441    444    445    447     1  0.0000000  1.2552000  3
    441    444    454    455     1  0.0000000  1.2552000  3
    441    444    454    456     1  0.0000000  1.2552000  3
    442    441    444    445     1  0.0000000  1.2552000  3
    442    441    444    454     1  0.0000000  1.2552000  3
    443    441    444    445     1  0.0000000  1.2552000  3
    443    441    444    454     1  0.0000000  1.2552000  3
    444    445    448    449     1  0.0000000  0.6508444  3
    444    445    448    450     1  0.0000000  0.6508444  3
    444    454    457    458     1  0.0000000  0.6508444  3
    444    454    457    459     1  0.0000000  0.6508444  3
    445    444    454    455     1  0.0000000  1.2552000  3
    445    444    454    456     1  0.0000000  1.2552000  3
    446    445    448    451     1  0.0000000  0.6508444  3
    446    445    448    449     1  0.0000000  0.6508444  3
    446    445    448    450     1  0.0000000  0.6508444  3
    446    445    444    454     1  0.0000000  1.2552000  3
    447    445    448    451     1  0.0000000  0.6508444  3
    447    445    448    449     1  0.0000000  0.6508444  3
    447    445    448    450     1  0.0000000  0.6508444  3
    447    445    444    454     1  0.0000000  1.2552000  3
    449    448    451    452     1  0.0000000  3.3472000  1
    449    448    451    452     1  0.0000000  0.0000000  2
    449    448    451    452     1  180.0000771  0.3347200  3
    449    448    451    453     1  0.0000000  3.3472000  1
    449    448    451    453     1  0.0000000  0.0000000  2
    449    448    451    453     1  180.0000771  0.3347200  3
    450    448    451    452     1  0.0000000  3.3472000  1
    450    448    451    452     1  0.0000000  0.0000000  2
    450    448    451    452     1  180.0000771  0.3347200  3
    450    448    451    453     1  0.0000000  3.3472000  1
    450    448    451    453     1  0.0000000  0.0000000  2
    450    448    451    453     1  180.0000771  0.3347200  3
    455    454    457    460     1  0.0000000  0.6508444  3
    455    454    457    458     1  0.0000000  0.6508444  3
    455    454    457    459     1  0.0000000  0.6508444  3
    456    454    457    460     1  0.0000000  0.6508444  3
    456    454    457    458     1  0.0000000  0.6508444  3
    456    454    457    459     1  0.0000000  0.6508444  3
    458    457    460    461     1  0.0000000  3.3472000  1
    458    457    460    461     1  0.0000000  0.0000000  2
    458    457    460    461     1  180.0000771  0.3347200  3
    458    457    460    462     1  0.0000000  3.3472000  1
    458    457    460    462     1  0.0000000  0.0000000  2
    458    457    460    462     1  180.0000771  0.3347200  3
    459    457    460    461     1  0.0000000  3.3472000  1
    459    457    460    461     1  0.0000000  0.0000000  2
    459    457    460    461     1  180.0000771  0.3347200  3
    459    457    460    462     1  0.0000000  3.3472000  1
    459    457    460    462     1  0.0000000  0.0000000  2
    459    457    460    462     1  180.0000771  0.3347200  3
    464    467    470    471     1  0.0000000  0.6508444  3
    464    467    470    472     1  0.0000000  0.6508444  3
    465    464    467    470     1  0.0000000  0.6508444  3
    465    464    467    468     1  0.0000000  0.6508444  3
    465    464    467    469     1  0.0000000  0.6508444  3
    466    464    467    470     1  0.0000000  0.6508444  3
    466    464    467    468     1  0.0000000  0.6508444  3
    466    464    467    469     1  0.0000000  0.6508444  3
    468    467    464    492     1  0.0000000  1.0460000  1
    468    467    464    492     1  0.0000000  0.0000000  3
    468    467    470    473     1  0.0000000  0.6508444  3
    468    467    470    471     1  0.0000000  0.6508444  3
    468    467    470    472     1  0.0000000  0.6508444  3
    469    467    464    492     1  0.0000000  1.0460000  1
    469    467    464    492     1  0.0000000  0.0000000  3
    469    467    470    473     1  0.0000000  0.6508444  3
    469    467    470    471     1  0.0000000  0.6508444  3
    469    467    470    472     1  0.0000000  0.6508444  3
    470    473    474    475     1  0.0000000  1.2552000  3
    470    473    474    476     1  0.0000000  1.2552000  3
    470    473    483    484     1  0.0000000  1.2552000  3
    470    473    483    485     1  0.0000000  1.2552000  3
    471    470    473    474     1  0.0000000  1.2552000  3
    471    470    473    483     1  0.0000000  1.2552000  3
    472    470    473    474     1  0.0000000  1.2552000  3
    472    470    473    483     1  0.0000000  1.2552000  3
    473    474    477    478     1  0.0000000  0.6508444  3
    473    474    477    479     1  0.0000000  0.6508444  3
    473    483    486    487     1  0.0000000  0.6508444  3
    473    483    486    488     1  0.0000000  0.6508444  3
    474    473    483    484     1  0.0000000  1.2552000  3
    474    473    483    485     1  0.0000000  1.2552000  3
    475    474    473    483     1  0.0000000  1.2552000  3
    475    474    477    480     1  0.0000000  0.6508444  3
    475    474    477    478     1  0.0000000  0.6508444  3
    475    474    477    479     1  0.0000000  0.6508444  3
    476    474    473    483     1  0.0000000  1.2552000  3
    476    474    477    480     1  0.0000000  0.6508444  3
    476    474    477    478     1  0.0000000  0.6508444  3
    476    474    477    479     1  0.0000000  0.6508444  3
    478    477    480    481     1  0.0000000  3.3472000  1
    478    477    480    481     1  0.0000000  0.0000000  2
    478    477    480    481     1  180.0000771  0.3347200  3
    478    477    480    482     1  0.0000000  3.3472000  1
    478    477    480    482     1  0.0000000  0.0000000  2
    478    477    480    482     1  180.0000771  0.3347200  3
    479    477    480    481     1  0.0000000  3.3472000  1
    479    477    480    481     1  0.0000000  0.0000000  2
    479    477    480    481     1  180.0000771  0.3347200  3
    479    477    480    482     1  0.0000000  3.3472000  1
    479    477    480    482     1  0.0000000  0.0000000  2
    479    477    480    482     1  180.0000771  0.3347200  3
    484    483    486    489     1  0.0000000  0.6508444  3
    484    483    486    487     1  0.0000000  0.6508444  3
    484    483    486    488     1  0.0000000  0.6508444  3
    485    483    486    489     1  0.0000000  0.6508444  3
    485    483    486    487     1  0.0000000  0.6508444  3
    485    483    486    488     1  0.0000000  0.6508444  3
    487    486    489    490     1  0.0000000  3.3472000  1
    487    486    489    490     1  0.0000000  0.0000000  2
    487    486    489    490     1  180.0000771  0.3347200  3
    487    486    489    491     1  0.0000000  3.3472000  1
    487    486    489    491     1  0.0000000  0.0000000  2
    487    486    489    491     1  180.0000771  0.3347200  3
    488    486    489    490     1  0.0000000  3.3472000  1
    488    486    489    490     1  0.0000000  0.0000000  2
    488    486    489    490     1  180.0000771  0.3347200  3
    488    486    489    491     1  0.0000000  3.3472000  1
    488    486    489    491     1  0.0000000  0.0000000  2
    488    486    489    491     1  180.0000771  0.3347200  3
    493    496    499    500     1  0.0000000  0.6508444  3
    493    496    499    501     1  0.0000000  0.6508444  3
    494    493    496    499     1  0.0000000  0.6508444  3
    494    493    496    497     1  0.0000000  0.6508444  3
    494    493    496    498     1  0.0000000  0.6508444  3
    495    493    496    499     1  0.0000000  0.6508444  3
    495    493    496    497     1  0.0000000  0.6508444  3
    495    493    496    498     1  0.0000000  0.6508444  3
    497    496    499    502     1  0.0000000  0.6508444  3
    497    496    499    500     1  0.0000000  0.6508444  3
    497    496    499    501     1  0.0000000  0.6508444  3
    497    496    493    521     1  0.0000000  1.0460000  1
    497    496    493    521     1  0.0000000  0.0000000  3
    498    496    499    502     1  0.0000000  0.6508444  3
    498    496    499    500     1  0.0000000  0.6508444  3
    498    496    499    501     1  0.0000000  0.6508444  3
    498    496    493    521     1  0.0000000  1.0460000  1
    498    496    493    521     1  0.0000000  0.0000000  3
    499    502    503    504     1  0.0000000  1.2552000  3
    499    502    503    505     1  0.0000000  1.2552000  3
    499    502    512    513     1  0.0000000  1.2552000  3
    499    502    512    514     1  0.0000000  1.2552000  3
    500    499    502    503     1  0.0000000  1.2552000  3
    500    499    502    512     1  0.0000000  1.2552000  3
    501    499    502    503     1  0.0000000  1.2552000  3
    501    499    502    512     1  0.0000000  1.2552000  3
    502    503    506    507     1  0.0000000  0.6508444  3
    502    503    506    508     1  0.0000000  0.6508444  3
    502    512    515    516     1  0.0000000  0.6508444  3
    502    512    515    517     1  0.0000000  0.6508444  3
    503    502    512    513     1  0.0000000  1.2552000  3
    503    502    512    514     1  0.0000000  1.2552000  3
    504    503    506    509     1  0.0000000  0.6508444  3
    504    503    506    507     1  0.0000000  0.6508444  3
    504    503    506    508     1  0.0000000  0.6508444  3
    504    503    502    512     1  0.0000000  1.2552000  3
    505    503    506    509     1  0.0000000  0.6508444  3
    505    503    506    507     1  0.0000000  0.6508444  3
    505    503    506    508     1  0.0000000  0.6508444  3
    505    503    502    512     1  0.0000000  1.2552000  3
    507    506    509    510     1  0.0000000  3.3472000  1
    507    506    509    510     1  0.0000000  0.0000000  2
    507    506    509    510     1  180.0000771  0.3347200  3
    507    506    509    511     1  0.0000000  3.3472000  1
    507    506    509    511     1  0.0000000  0.0000000  2
    507    506    509    511     1  180.0000771  0.3347200  3
    508    506    509    510     1  0.0000000  3.3472000  1
    508    506    509    510     1  0.0000000  0.0000000  2
    508    506    509    510     1  180.0000771  0.3347200  3
    508    506    509    511     1  0.0000000  3.3472000  1
    508    506    509    511     1  0.0000000  0.0000000  2
    508    506    509    511     1  180.0000771  0.3347200  3
    513    512    515    518     1  0.0000000  0.6508444  3
    513    512    515    516     1  0.0000000  0.6508444  3
    513    512    515    517     1  0.0000000  0.6508444  3
    514    512    515    518     1  0.0000000  0.6508444  3
    514    512    515    516     1  0.0000000  0.6508444  3
    514    512    515    517     1  0.0000000  0.6508444  3
    516    515    518    519     1  0.0000000  3.3472000  1
    516    515    518    519     1  0.0000000  0.0000000  2
    516    515    518    519     1  180.0000771  0.3347200  3
    516    515    518    520     1  0.0000000  3.3472000  1
    516    515    518    520     1  0.0000000  0.0000000  2
    516    515    518    520     1  180.0000771  0.3347200  3
    517    515    518    519     1  0.0000000  3.3472000  1
    517    515    518    519     1  0.0000000  0.0000000  2
    517    515    518    519     1  180.0000771  0.3347200  3
    517    515    518    520     1  0.0000000  3.3472000  1
    517    515    518    520     1  0.0000000  0.0000000  2
    517    515    518    520     1  180.0000771  0.3347200  3
    522    525    528    529     1  0.0000000  0.6508444  3
    522    525    528    530     1  0.0000000  0.6508444  3
    523    522    525    528     1  0.0000000  0.6508444  3
    523    522    525    526     1  0.0000000  0.6508444  3
    523    522    525    527     1  0.0000000  0.6508444  3
    524    522    525    528     1  0.0000000  0.6508444  3
    524    522    525    526     1  0.0000000  0.6508444  3
    524    522    525    527     1  0.0000000  0.6508444  3
    526    525    522    550     1  0.0000000  1.0460000  1
    526    525    522    550     1  0.0000000  0.0000000  3
    526    525    528    531     1  0.0000000  0.6508444  3
    526    525    528    529     1  0.0000000  0.6508444  3
    526    525    528    530     1  0.0000000  0.6508444  3
    527    525    522    550     1  0.0000000  1.0460000  1
    527    525    522    550     1  0.0000000  0.0000000  3
    527    525    528    531     1  0.0000000  0.6508444  3
    527    525    528    529     1  0.0000000  0.6508444  3
    527    525    528    530     1  0.0000000  0.6508444  3
    528    531    532    533     1  0.0000000  1.2552000  3
    528    531    532    534     1  0.0000000  1.2552000  3
    528    531    541    542     1  0.0000000  1.2552000  3
    528    531    541    543     1  0.0000000  1.2552000  3
    529    528    531    532     1  0.0000000  1.2552000  3
    529    528    531    541     1  0.0000000  1.2552000  3
    530    528    531    532     1  0.0000000  1.2552000  3
    530    528    531    541     1  0.0000000  1.2552000  3
    531    532    535    536     1  0.0000000  0.6508444  3
    531    532    535    537     1  0.0000000  0.6508444  3
    531    541    544    545     1  0.0000000  0.6508444  3
    531    541    544    546     1  0.0000000  0.6508444  3
    532    531    541    542     1  0.0000000  1.2552000  3
    532    531    541    543     1  0.0000000  1.2552000  3
    533    532    531    541     1  0.0000000  1.2552000  3
    533    532    535    538     1  0.0000000  0.6508444  3
    533    532    535    536     1  0.0000000  0.6508444  3
    533    532    535    537     1  0.0000000  0.6508444  3
    534    532    531    541     1  0.0000000  1.2552000  3
    534    532    535    538     1  0.0000000  0.6508444  3
    534    532    535    536     1  0.0000000  0.6508444  3
    534    532    535    537     1  0.0000000  0.6508444  3
    536    535    538    539     1  0.0000000  3.3472000  1
    536    535    538    539     1  0.0000000  0.0000000  2
    536    535    538    539     1  180.0000771  0.3347200  3
    536    535    538    540     1  0.0000000  3.3472000  1
    536    535    538    540     1  0.0000000  0.0000000  2
    536    535    538    540     1  180.0000771  0.3347200  3
    537    535    538    539     1  0.0000000  3.3472000  1
    537    535    538    539     1  0.0000000  0.0000000  2
    537    535    538    539     1  180.0000771  0.3347200  3
    537    535    538    540     1  0.0000000  3.3472000  1
    537    535    538    540     1  0.0000000  0.0000000  2
    537    535    538    540     1  180.0000771  0.3347200  3
    542    541    544    547     1  0.0000000  0.6508444  3
    542    541    544    545     1  0.0000000  0.6508444  3
    542    541    544    546     1  0.0000000  0.6508444  3
    543    541    544    547     1  0.0000000  0.6508444  3
    543    541    544    545     1  0.0000000  0.6508444  3
    543    541    544    546     1  0.0000000  0.6508444  3
    545    544    547    548     1  0.0000000  3.3472000  1
    545    544    547    548     1  0.0000000  0.0000000  2
    545    544    547    548     1  180.0000771  0.3347200  3
    545    544    547    549     1  0.0000000  3.3472000  1
    545    544    547    549     1  0.0000000  0.0000000  2
    545    544    547    549     1  180.0000771  0.3347200  3
    546    544    547    548     1  0.0000000  3.3472000  1
    546    544    547    548     1  0.0000000  0.0000000  2
    546    544    547    548     1  180.0000771  0.3347200  3
    546    544    547    549     1  0.0000000  3.3472000  1
    546    544    547    549     1  0.0000000  0.0000000  2
    546    544    547    549     1  180.0000771  0.3347200  3
    551    554    557    558     1  0.0000000  0.6508444  3
    551    554    557    559     1  0.0000000  0.6508444  3
    552    551    554    557     1  0.0000000  0.6508444  3
    552    551    554    555     1  0.0000000  0.6508444  3
    552    551    554    556     1  0.0000000  0.6508444  3
    553    551    554    557     1  0.0000000  0.6508444  3
    553    551    554    555     1  0.0000000  0.6508444  3
    553    551    554    556     1  0.0000000  0.6508444  3
    555    554    557    560     1  0.0000000  0.6508444  3
    555    554    557    558     1  0.0000000  0.6508444  3
    555    554    557    559     1  0.0000000  0.6508444  3
    555    554    551    579     1  0.0000000  1.0460000  1
    555    554    551    579     1  0.0000000  0.0000000  3
    556    554    557    560     1  0.0000000  0.6508444  3
    556    554    557    558     1  0.0000000  0.6508444  3
    556    554    557    559     1  0.0000000  0.6508444  3
    556    554    551    579     1  0.0000000  1.0460000  1
    556    554    551    579     1  0.0000000  0.0000000  3
    557    560    561    562     1  0.0000000  1.2552000  3
    557    560    561    563     1  0.0000000  1.2552000  3
    557    560    570    571     1  0.0000000  1.2552000  3
    557    560    570    572     1  0.0000000  1.2552000  3
    558    557    560    561     1  0.0000000  1.2552000  3
    558    557    560    570     1  0.0000000  1.2552000  3
    559    557    560    561     1  0.0000000  1.2552000  3
    559    557    560    570     1  0.0000000  1.2552000  3
    560    561    564    565     1  0.0000000  0.6508444  3
    560    561    564    566     1  0.0000000  0.6508444  3
    560    570    573    574     1  0.0000000  0.6508444  3
    560    570    573    575     1  0.0000000  0.6508444  3
    561    560    570    571     1  0.0000000  1.2552000  3
    561    560    570    572     1  0.0000000  1.2552000  3
    562    561    564    567     1  0.0000000  0.6508444  3
    562    561    564    565     1  0.0000000  0.6508444  3
    562    561    564    566     1  0.0000000  0.6508444  3
    562    561    560    570     1  0.0000000  1.2552000  3
    563    561    564    567     1  0.0000000  0.6508444  3
    563    561    564    565     1  0.0000000  0.6508444  3
    563    561    564    566     1  0.0000000  0.6508444  3
    563    561    560    570     1  0.0000000  1.2552000  3
    565    564    567    568     1  0.0000000  3.3472000  1
    565    564    567    568     1  0.0000000  0.0000000  2
    565    564    567    568     1  180.0000771  0.3347200  3
    565    564    567    569     1  0.0000000  3.3472000  1
    565    564    567    569     1  0.0000000  0.0000000  2
    565    564    567    569     1  180.0000771  0.3347200  3
    566    564    567    568     1  0.0000000  3.3472000  1
    566    564    567    568     1  0.0000000  0.0000000  2
    566    564    567    568     1  180.0000771  0.3347200  3
    566    564    567    569     1  0.0000000  3.3472000  1
    566    564    567    569     1  0.0000000  0.0000000  2
    566    564    567    569     1  180.0000771  0.3347200  3
    571    570    573    576     1  0.0000000  0.6508444  3
    571    570    573    574     1  0.0000000  0.6508444  3
    571    570    573    575     1  0.0000000  0.6508444  3
    572    570    573    576     1  0.0000000  0.6508444  3
    572    570    573    574     1  0.0000000  0.6508444  3
    572    570    573    575     1  0.0000000  0.6508444  3
    574    573    576    577     1  0.0000000  3.3472000  1
    574    573    576    577     1  0.0000000  0.0000000  2
    574    573    576    577     1  180.0000771  0.3347200  3
    574    573    576    578     1  0.0000000  3.3472000  1
    574    573    576    578     1  0.0000000  0.0000000  2
    574    573    576    578     1  180.0000771  0.3347200  3
    575    573    576    577     1  0.0000000  3.3472000  1
    575    573    576    577     1  0.0000000  0.0000000  2
    575    573    576    577     1  180.0000771  0.3347200  3
    575    573    576    578     1  0.0000000  3.3472000  1
    575    573    576    578     1  0.0000000  0.0000000  2
    575    573    576    578     1  180.0000771  0.3347200  3
    580    583    586    587     1  0.0000000  0.6508444  3
    580    583    586    588     1  0.0000000  0.6508444  3
    581    580    583    586     1  0.0000000  0.6508444  3
    581    580    583    584     1  0.0000000  0.6508444  3
    581    580    583    585     1  0.0000000  0.6508444  3
    582    580    583    586     1  0.0000000  0.6508444  3
    582    580    583    584     1  0.0000000  0.6508444  3
    582    580    583    585     1  0.0000000  0.6508444  3
    584    583    580    608     1  0.0000000  1.0460000  1
    584    583    580    608     1  0.0000000  0.0000000  3
    584    583    586    589     1  0.0000000  0.6508444  3
    584    583    586    587     1  0.0000000  0.6508444  3
    584    583    586    588     1  0.0000000  0.6508444  3
    585    583    580    608     1  0.0000000  1.0460000  1
    585    583    580    608     1  0.0000000  0.0000000  3
    585    583    586    589     1  0.0000000  0.6508444  3
    585    583    586    587     1  0.0000000  0.6508444  3
    585    583    586    588     1  0.0000000  0.6508444  3
    586    589    590    591     1  0.0000000  1.2552000  3
    586    589    590    592     1  0.0000000  1.2552000  3
    586    589    599    600     1  0.0000000  1.2552000  3
    586    589    599    601     1  0.0000000  1.2552000  3
    587    586    589    590     1  0.0000000  1.2552000  3
    587    586    589    599     1  0.0000000  1.2552000  3
    588    586    589    590     1  0.0000000  1.2552000  3
    588    586    589    599     1  0.0000000  1.2552000  3
    589    590    593    594     1  0.0000000  0.6508444  3
    589    590    593    595     1  0.0000000  0.6508444  3
    589    599    602    603     1  0.0000000  0.6508444  3
    589    599    602    604     1  0.0000000  0.6508444  3
    590    589    599    600     1  0.0000000  1.2552000  3
    590    589    599    601     1  0.0000000  1.2552000  3
    591    590    589    599     1  0.0000000  1.2552000  3
    591    590    593    596     1  0.0000000  0.6508444  3
    591    590    593    594     1  0.0000000  0.6508444  3
    591    590    593    595     1  0.0000000  0.6508444  3
    592    590    589    599     1  0.0000000  1.2552000  3
    592    590    593    596     1  0.0000000  0.6508444  3
    592    590    593    594     1  0.0000000  0.6508444  3
    592    590    593    595     1  0.0000000  0.6508444  3
    594    593    596    597     1  0.0000000  3.3472000  1
    594    593    596    597     1  0.0000000  0.0000000  2
    594    593    596    597     1  180.0000771  0.3347200  3
    594    593    596    598     1  0.0000000  3.3472000  1
    594    593    596    598     1  0.0000000  0.0000000  2
    594    593    596    598     1  180.0000771  0.3347200  3
    595    593    596    597     1  0.0000000  3.3472000  1
    595    593    596    597     1  0.0000000  0.0000000  2
    595    593    596    597     1  180.0000771  0.3347200  3
    595    593    596    598     1  0.0000000  3.3472000  1
    595    593    596    598     1  0.0000000  0.0000000  2
    595    593    596    598     1  180.0000771  0.3347200  3
    600    599    602    605     1  0.0000000  0.6508444  3
    600    599    602    603     1  0.0000000  0.6508444  3
    600    599    602    604     1  0.0000000  0.6508444  3
    601    599    602    605     1  0.0000000  0.6508444  3
    601    599    602    603     1  0.0000000  0.6508444  3
    601    599    602    604     1  0.0000000  0.6508444  3
    603    602    605    606     1  0.0000000  3.3472000  1
    603    602    605    606     1  0.0000000  0.0000000  2
    603    602    605    606     1  180.0000771  0.3347200  3
    603    602    605    607     1  0.0000000  3.3472000  1
    603    602    605    607     1  0.0000000  0.0000000  2
    603    602    605    607     1  180.0000771  0.3347200  3
    604    602    605    606     1  0.0000000  3.3472000  1
    604    602    605    606     1  0.0000000  0.0000000  2
    604    602    605    606     1  180.0000771  0.3347200  3
    604    602    605    607     1  0.0000000  3.3472000  1
    604    602    605    607     1  0.0000000  0.0000000  2
    604    602    605    607     1  180.0000771  0.3347200  3
    609    612    615    616     1  0.0000000  0.6508444  3
    609    612    615    617     1  0.0000000  0.6508444  3
    610    609    612    615     1  0.0000000  0.6508444  3
    610    609    612    613     1  0.0000000  0.6508444  3
    610    609    612    614     1  0.0000000  0.6508444  3
    611    609    612    615     1  0.0000000  0.6508444  3
    611    609    612    613     1  0.0000000  0.6508444  3
    611    609    612    614     1  0.0000000  0.6508444  3
    613    612    615    618     1  0.0000000  0.6508444  3
    613    612    615    616     1  0.0000000  0.6508444  3
    613    612    615    617     1  0.0000000  0.6508444  3
    613    612    609    637     1  0.0000000  1.0460000  1
    613    612    609    637     1  0.0000000  0.0000000  3
    614    612    615    618     1  0.0000000  0.6508444  3
    614    612    615    616     1  0.0000000  0.6508444  3
    614    612    615    617     1  0.0000000  0.6508444  3
    614    612    609    637     1  0.0000000  1.0460000  1
    614    612    609    637     1  0.0000000  0.0000000  3
    615    618    619    620     1  0.0000000  1.2552000  3
    615    618    619    621     1  0.0000000  1.2552000  3
    615    618    628    629     1  0.0000000  1.2552000  3
    615    618    628    630     1  0.0000000  1.2552000  3
    616    615    618    619     1  0.0000000  1.2552000  3
    616    615    618    628     1  0.0000000  1.2552000  3
    617    615    618    619     1  0.0000000  1.2552000  3
    617    615    618    628     1  0.0000000  1.2552000  3
    618    619    622    623     1  0.0000000  0.6508444  3
    618    619    622    624     1  0.0000000  0.6508444  3
    618    628    631    632     1  0.0000000  0.6508444  3
    618    628    631    633     1  0.0000000  0.6508444  3
    619    618    628    629     1  0.0000000  1.2552000  3
    619    618    628    630     1  0.0000000  1.2552000  3
    620    619    622    625     1  0.0000000  0.6508444  3
    620    619    622    623     1  0.0000000  0.6508444  3
    620    619    622    624     1  0.0000000  0.6508444  3
    620    619    618    628     1  0.0000000  1.2552000  3
    621    619    622    625     1  0.0000000  0.6508444  3
    621    619    622    623     1  0.0000000  0.6508444  3
    621    619    622    624     1  0.0000000  0.6508444  3
    621    619    618    628     1  0.0000000  1.2552000  3
    623    622    625    626     1  0.0000000  3.3472000  1
    623    622    625    626     1  0.0000000  0.0000000  2
    623    622    625    626     1  180.0000771  0.3347200  3
    623    622    625    627     1  0.0000000  3.3472000  1
    623    622    625    627     1  0.0000000  0.0000000  2
    623    622    625    627     1  180.0000771  0.3347200  3
    624    622    625    626     1  0.0000000  3.3472000  1
    624    622    625    626     1  0.0000000  0.0000000  2
    624    622    625    626     1  180.0000771  0.3347200  3
    624    622    625    627     1  0.0000000  3.3472000  1
    624    622    625    627     1  0.0000000  0.0000000  2
    624    622    625    627     1  180.0000771  0.3347200  3
    629    628    631    634     1  0.0000000  0.6508444  3
    629    628    631    632     1  0.0000000  0.6508444  3
    629    628    631    633     1  0.0000000  0.6508444  3
    630    628    631    634     1  0.0000000  0.6508444  3
    630    628    631    632     1  0.0000000  0.6508444  3
    630    628    631    633     1  0.0000000  0.6508444  3
    632    631    634    635     1  0.0000000  3.3472000  1
    632    631    634    635     1  0.0000000  0.0000000  2
    632    631    634    635     1  180.0000771  0.3347200  3
    632    631    634    636     1  0.0000000  3.3472000  1
    632    631    634    636     1  0.0000000  0.0000000  2
    632    631    634    636     1  180.0000771  0.3347200  3
    633    631    634    635     1  0.0000000  3.3472000  1
    633    631    634    635     1  0.0000000  0.0000000  2
    633    631    634    635     1  180.0000771  0.3347200  3
    633    631    634    636     1  0.0000000  3.3472000  1
    633    631    634    636     1  0.0000000  0.0000000  2
    633    631    634    636     1  180.0000771  0.3347200  3
    638    641    644    645     1  0.0000000  0.6508444  3
    638    641    644    646     1  0.0000000  0.6508444  3
    639    638    641    644     1  0.0000000  0.6508444  3
    639    638    641    642     1  0.0000000  0.6508444  3
    639    638    641    643     1  0.0000000  0.6508444  3
    640    638    641    644     1  0.0000000  0.6508444  3
    640    638    641    642     1  0.0000000  0.6508444  3
    640    638    641    643     1  0.0000000  0.6508444  3
    642    641    638    666     1  0.0000000  1.0460000  1
    642    641    638    666     1  0.0000000  0.0000000  3
    642    641    644    647     1  0.0000000  0.6508444  3
    642    641    644    645     1  0.0000000  0.6508444  3
    642    641    644    646     1  0.0000000  0.6508444  3
    643    641    638    666     1  0.0000000  1.0460000  1
    643    641    638    666     1  0.0000000  0.0000000  3
    643    641    644    647     1  0.0000000  0.6508444  3
    643    641    644    645     1  0.0000000  0.6508444  3
    643    641    644    646     1  0.0000000  0.6508444  3
    644    647    648    649     1  0.0000000  1.2552000  3
    644    647    648    650     1  0.0000000  1.2552000  3
    644    647    657    658     1  0.0000000  1.2552000  3
    644    647    657    659     1  0.0000000  1.2552000  3
    645    644    647    648     1  0.0000000  1.2552000  3
    645    644    647    657     1  0.0000000  1.2552000  3
    646    644    647    648     1  0.0000000  1.2552000  3
    646    644    647    657     1  0.0000000  1.2552000  3
    647    648    651    652     1  0.0000000  0.6508444  3
    647    648    651    653     1  0.0000000  0.6508444  3
    647    657    660    661     1  0.0000000  0.6508444  3
    647    657    660    662     1  0.0000000  0.6508444  3
    648    647    657    658     1  0.0000000  1.2552000  3
    648    647    657    659     1  0.0000000  1.2552000  3
    649    648    647    657     1  0.0000000  1.2552000  3
    649    648    651    654     1  0.0000000  0.6508444  3
    649    648    651    652     1  0.0000000  0.6508444  3
    649    648    651    653     1  0.0000000  0.6508444  3
    650    648    647    657     1  0.0000000  1.2552000  3
    650    648    651    654     1  0.0000000  0.6508444  3
    650    648    651    652     1  0.0000000  0.6508444  3
    650    648    651    653     1  0.0000000  0.6508444  3
    652    651    654    655     1  0.0000000  3.3472000  1
    652    651    654    655     1  0.0000000  0.0000000  2
    652    651    654    655     1  180.0000771  0.3347200  3
    652    651    654    656     1  0.0000000  3.3472000  1
    652    651    654    656     1  0.0000000  0.0000000  2
    652    651    654    656     1  180.0000771  0.3347200  3
    653    651    654    655     1  0.0000000  3.3472000  1
    653    651    654    655     1  0.0000000  0.0000000  2
    653    651    654    655     1  180.0000771  0.3347200  3
    653    651    654    656     1  0.0000000  3.3472000  1
    653    651    654    656     1  0.0000000  0.0000000  2
    653    651    654    656     1  180.0000771  0.3347200  3
    658    657    660    663     1  0.0000000  0.6508444  3
    658    657    660    661     1  0.0000000  0.6508444  3
    658    657    660    662     1  0.0000000  0.6508444  3
    659    657    660    663     1  0.0000000  0.6508444  3
    659    657    660    661     1  0.0000000  0.6508444  3
    659    657    660    662     1  0.0000000  0.6508444  3
    661    660    663    664     1  0.0000000  3.3472000  1
    661    660    663    664     1  0.0000000  0.0000000  2
    661    660    663    664     1  180.0000771  0.3347200  3
    661    660    663    665     1  0.0000000  3.3472000  1
    661    660    663    665     1  0.0000000  0.0000000  2
    661    660    663    665     1  180.0000771  0.3347200  3
    662    660    663    664     1  0.0000000  3.3472000  1
    662    660    663    664     1  0.0000000  0.0000000  2
    662    660    663    664     1  180.0000771  0.3347200  3
    662    660    663    665     1  0.0000000  3.3472000  1
    662    660    663    665     1  0.0000000  0.0000000  2
    662    660    663    665     1  180.0000771  0.3347200  3
    667    670    673    674     1  0.0000000  0.6508444  3
    667    670    673    675     1  0.0000000  0.6508444  3
    668    667    670    673     1  0.0000000  0.6508444  3
    668    667    670    671     1  0.0000000  0.6508444  3
    668    667    670    672     1  0.0000000  0.6508444  3
    669    667    670    673     1  0.0000000  0.6508444  3
    669    667    670    671     1  0.0000000  0.6508444  3
    669    667    670    672     1  0.0000000  0.6508444  3
    671    670    673    676     1  0.0000000  0.6508444  3
    671    670    673    674     1  0.0000000  0.6508444  3
    671    670    673    675     1  0.0000000  0.6508444  3
    671    670    667    695     1  0.0000000  1.0460000  1
    671    670    667    695     1  0.0000000  0.0000000  3
    672    670    673    676     1  0.0000000  0.6508444  3
    672    670    673    674     1  0.0000000  0.6508444  3
    672    670    673    675     1  0.0000000  0.6508444  3
    672    670    667    695     1  0.0000000  1.0460000  1
    672    670    667    695     1  0.0000000  0.0000000  3
    673    676    677    678     1  0.0000000  1.2552000  3
    673    676    677    679     1  0.0000000  1.2552000  3
    673    676    686    687     1  0.0000000  1.2552000  3
    673    676    686    688     1  0.0000000  1.2552000  3
    674    673    676    677     1  0.0000000  1.2552000  3
    674    673    676    686     1  0.0000000  1.2552000  3
    675    673    676    677     1  0.0000000  1.2552000  3
    675    673    676    686     1  0.0000000  1.2552000  3
    676    677    680    681     1  0.0000000  0.6508444  3
    676    677    680    682     1  0.0000000  0.6508444  3
    676    686    689    690     1  0.0000000  0.6508444  3
    676    686    689    691     1  0.0000000  0.6508444  3
    677    676    686    687     1  0.0000000  1.2552000  3
    677    676    686    688     1  0.0000000  1.2552000  3
    678    677    680    683     1  0.0000000  0.6508444  3
    678    677    680    681     1  0.0000000  0.6508444  3
    678    677    680    682     1  0.0000000  0.6508444  3
    678    677    676    686     1  0.0000000  1.2552000  3
    679    677    680    683     1  0.0000000  0.6508444  3
    679    677    680    681     1  0.0000000  0.6508444  3
    679    677    680    682     1  0.0000000  0.6508444  3
    679    677    676    686     1  0.0000000  1.2552000  3
    681    680    683    684     1  0.0000000  3.3472000  1
    681    680    683    684     1  0.0000000  0.0000000  2
    681    680    683    684     1  180.0000771  0.3347200  3
    681    680    683    685     1  0.0000000  3.3472000  1
    681    680    683    685     1  0.0000000  0.0000000  2
    681    680    683    685     1  180.0000771  0.3347200  3
    682    680    683    684     1  0.0000000  3.3472000  1
    682    680    683    684     1  0.0000000  0.0000000  2
    682    680    683    684     1  180.0000771  0.3347200  3
    682    680    683    685     1  0.0000000  3.3472000  1
    682    680    683    685     1  0.0000000  0.0000000  2
    682    680    683    685     1  180.0000771  0.3347200  3
    687    686    689    692     1  0.0000000  0.6508444  3
    687    686    689    690     1  0.0000000  0.6508444  3
    687    686    689    691     1  0.0000000  0.6508444  3
    688    686    689    692     1  0.0000000  0.6508444  3
    688    686    689    690     1  0.0000000  0.6508444  3
    688    686    689    691     1  0.0000000  0.6508444  3
    690    689    692    693     1  0.0000000  3.3472000  1
    690    689    692    693     1  0.0000000  0.0000000  2
    690    689    692    693     1  180.0000771  0.3347200  3
    690    689    692    694     1  0.0000000  3.3472000  1
    690    689    692    694     1  0.0000000  0.0000000  2
    690    689    692    694     1  180.0000771  0.3347200  3
    691    689    692    693     1  0.0000000  3.3472000  1
    691    689    692    693     1  0.0000000  0.0000000  2
    691    689    692    693     1  180.0000771  0.3347200  3
    691    689    692    694     1  0.0000000  3.3472000  1
    691    689    692    694     1  0.0000000  0.0000000  2
    691    689    692    694     1  180.0000771  0.3347200  3
    696    699    702    703     1  0.0000000  0.6508444  3
    696    699    702    704     1  0.0000000  0.6508444  3
    697    696    699    702     1  0.0000000  0.6508444  3
    697    696    699    700     1  0.0000000  0.6508444  3
    697    696    699    701     1  0.0000000  0.6508444  3
    698    696    699    702     1  0.0000000  0.6508444  3
    698    696    699    700     1  0.0000000  0.6508444  3
    698    696    699    701     1  0.0000000  0.6508444  3
    700    699    696    724     1  0.0000000  1.0460000  1
    700    699    696    724     1  0.0000000  0.0000000  3
    700    699    702    705     1  0.0000000  0.6508444  3
    700    699    702    703     1  0.0000000  0.6508444  3
    700    699    702    704     1  0.0000000  0.6508444  3
    701    699    696    724     1  0.0000000  1.0460000  1
    701    699    696    724     1  0.0000000  0.0000000  3
    701    699    702    705     1  0.0000000  0.6508444  3
    701    699    702    703     1  0.0000000  0.6508444  3
    701    699    702    704     1  0.0000000  0.6508444  3
    702    705    706    707     1  0.0000000  1.2552000  3
    702    705    706    708     1  0.0000000  1.2552000  3
    702    705    715    716     1  0.0000000  1.2552000  3
    702    705    715    717     1  0.0000000  1.2552000  3
    703    702    705    706     1  0.0000000  1.2552000  3
    703    702    705    715     1  0.0000000  1.2552000  3
    704    702    705    706     1  0.0000000  1.2552000  3
    704    702    705    715     1  0.0000000  1.2552000  3
    705    706    709    710     1  0.0000000  0.6508444  3
    705    706    709    711     1  0.0000000  0.6508444  3
    705    715    718    719     1  0.0000000  0.6508444  3
    705    715    718    720     1  0.0000000  0.6508444  3
    706    705    715    716     1  0.0000000  1.2552000  3
    706    705    715    717     1  0.0000000  1.2552000  3
    707    706    705    715     1  0.0000000  1.2552000  3
    707    706    709    712     1  0.0000000  0.6508444  3
    707    706    709    710     1  0.0000000  0.6508444  3
    707    706    709    711     1  0.0000000  0.6508444  3
    708    706    705    715     1  0.0000000  1.2552000  3
    708    706    709    712     1  0.0000000  0.6508444  3
    708    706    709    710     1  0.0000000  0.6508444  3
    708    706    709    711     1  0.0000000  0.6508444  3
    710    709    712    713     1  0.0000000  3.3472000  1
    710    709    712    713     1  0.0000000  0.0000000  2
    710    709    712    713     1  180.0000771  0.3347200  3
    710    709    712    714     1  0.0000000  3.3472000  1
    710    709    712    714     1  0.0000000  0.0000000  2
    710    709    712    714     1  180.0000771  0.3347200  3
    711    709    712    713     1  0.0000000  3.3472000  1
    711    709    712    713     1  0.0000000  0.0000000  2
    711    709    712    713     1  180.0000771  0.3347200  3
    711    709    712    714     1  0.0000000  3.3472000  1
    711    709    712    714     1  0.0000000  0.0000000  2
    711    709    712    714     1  180.0000771  0.3347200  3
    716    715    718    721     1  0.0000000  0.6508444  3
    716    715    718    719     1  0.0000000  0.6508444  3
    716    715    718    720     1  0.0000000  0.6508444  3
    717    715    718    721     1  0.0000000  0.6508444  3
    717    715    718    719     1  0.0000000  0.6508444  3
    717    715    718    720     1  0.0000000  0.6508444  3
    719    718    721    722     1  0.0000000  3.3472000  1
    719    718    721    722     1  0.0000000  0.0000000  2
    719    718    721    722     1  180.0000771  0.3347200  3
    719    718    721    723     1  0.0000000  3.3472000  1
    719    718    721    723     1  0.0000000  0.0000000  2
    719    718    721    723     1  180.0000771  0.3347200  3
    720    718    721    722     1  0.0000000  3.3472000  1
    720    718    721    722     1  0.0000000  0.0000000  2
    720    718    721    722     1  180.0000771  0.3347200  3
    720    718    721    723     1  0.0000000  3.3472000  1
    720    718    721    723     1  0.0000000  0.0000000  2
    720    718    721    723     1  180.0000771  0.3347200  3
    725    728    731    732     1  0.0000000  0.6508444  3
    725    728    731    733     1  0.0000000  0.6508444  3
    726    725    728    731     1  0.0000000  0.6508444  3
    726    725    728    729     1  0.0000000  0.6508444  3
    726    725    728    730     1  0.0000000  0.6508444  3
    727    725    728    731     1  0.0000000  0.6508444  3
    727    725    728    729     1  0.0000000  0.6508444  3
    727    725    728    730     1  0.0000000  0.6508444  3
    729    728    731    734     1  0.0000000  0.6508444  3
    729    728    731    732     1  0.0000000  0.6508444  3
    729    728    731    733     1  0.0000000  0.6508444  3
    729    728    725    753     1  0.0000000  1.0460000  1
    729    728    725    753     1  0.0000000  0.0000000  3
    730    728    731    734     1  0.0000000  0.6508444  3
    730    728    731    732     1  0.0000000  0.6508444  3
    730    728    731    733     1  0.0000000  0.6508444  3
    730    728    725    753     1  0.0000000  1.0460000  1
    730    728    725    753     1  0.0000000  0.0000000  3
    731    734    735    736     1  0.0000000  1.2552000  3
    731    734    735    737     1  0.0000000  1.2552000  3
    731    734    744    745     1  0.0000000  1.2552000  3
    731    734    744    746     1  0.0000000  1.2552000  3
    732    731    734    735     1  0.0000000  1.2552000  3
    732    731    734    744     1  0.0000000  1.2552000  3
    733    731    734    735     1  0.0000000  1.2552000  3
    733    731    734    744     1  0.0000000  1.2552000  3
    734    735    738    739     1  0.0000000  0.6508444  3
    734    735    738    740     1  0.0000000  0.6508444  3
    734    744    747    748     1  0.0000000  0.6508444  3
    734    744    747    749     1  0.0000000  0.6508444  3
    735    734    744    745     1  0.0000000  1.2552000  3
    735    734    744    746     1  0.0000000  1.2552000  3
    736    735    738    741     1  0.0000000  0.6508444  3
    736    735    738    739     1  0.0000000  0.6508444  3
    736    735    738    740     1  0.0000000  0.6508444  3
    736    735    734    744     1  0.0000000  1.2552000  3
    737    735    738    741     1  0.0000000  0.6508444  3
    737    735    738    739     1  0.0000000  0.6508444  3
    737    735    738    740     1  0.0000000  0.6508444  3
    737    735    734    744     1  0.0000000  1.2552000  3
    739    738    741    742     1  0.0000000  3.3472000  1
    739    738    741    742     1  0.0000000  0.0000000  2
    739    738    741    742     1  180.0000771  0.3347200  3
    739    738    741    743     1  0.0000000  3.3472000  1
    739    738    741    743     1  0.0000000  0.0000000  2
    739    738    741    743     1  180.0000771  0.3347200  3
    740    738    741    742     1  0.0000000  3.3472000  1
    740    738    741    742     1  0.0000000  0.0000000  2
    740    738    741    742     1  180.0000771  0.3347200  3
    740    738    741    743     1  0.0000000  3.3472000  1
    740    738    741    743     1  0.0000000  0.0000000  2
    740    738    741    743     1  180.0000771  0.3347200  3
    745    744    747    750     1  0.0000000  0.6508444  3
    745    744    747    748     1  0.0000000  0.6508444  3
    745    744    747    749     1  0.0000000  0.6508444  3
    746    744    747    750     1  0.0000000  0.6508444  3
    746    744    747    748     1  0.0000000  0.6508444  3
    746    744    747    749     1  0.0000000  0.6508444  3
    748    747    750    751     1  0.0000000  3.3472000  1
    748    747    750    751     1  0.0000000  0.0000000  2
    748    747    750    751     1  180.0000771  0.3347200  3
    748    747    750    752     1  0.0000000  3.3472000  1
    748    747    750    752     1  0.0000000  0.0000000  2
    748    747    750    752     1  180.0000771  0.3347200  3
    749    747    750    751     1  0.0000000  3.3472000  1
    749    747    750    751     1  0.0000000  0.0000000  2
    749    747    750    751     1  180.0000771  0.3347200  3
    749    747    750    752     1  0.0000000  3.3472000  1
    749    747    750    752     1  0.0000000  0.0000000  2
    749    747    750    752     1  180.0000771  0.3347200  3
    754    757    760    761     1  0.0000000  0.6508444  3
    754    757    760    762     1  0.0000000  0.6508444  3
    755    754    757    760     1  0.0000000  0.6508444  3
    755    754    757    758     1  0.0000000  0.6508444  3
    755    754    757    759     1  0.0000000  0.6508444  3
    756    754    757    760     1  0.0000000  0.6508444  3
    756    754    757    758     1  0.0000000  0.6508444  3
    756    754    757    759     1  0.0000000  0.6508444  3
    758    757    754    782     1  0.0000000  1.0460000  1
    758    757    754    782     1  0.0000000  0.0000000  3
    758    757    760    763     1  0.0000000  0.6508444  3
    758    757    760    761     1  0.0000000  0.6508444  3
    758    757    760    762     1  0.0000000  0.6508444  3
    759    757    754    782     1  0.0000000  1.0460000  1
    759    757    754    782     1  0.0000000  0.0000000  3
    759    757    760    763     1  0.0000000  0.6508444  3
    759    757    760    761     1  0.0000000  0.6508444  3
    759    757    760    762     1  0.0000000  0.6508444  3
    760    763    764    765     1  0.0000000  1.2552000  3
    760    763    764    766     1  0.0000000  1.2552000  3
    760    763    773    774     1  0.0000000  1.2552000  3
    760    763    773    775     1  0.0000000  1.2552000  3
    761    760    763    764     1  0.0000000  1.2552000  3
    761    760    763    773     1  0.0000000  1.2552000  3
    762    760    763    764     1  0.0000000  1.2552000  3
    762    760    763    773     1  0.0000000  1.2552000  3
    763    764    767    768     1  0.0000000  0.6508444  3
    763    764    767    769     1  0.0000000  0.6508444  3
    763    773    776    777     1  0.0000000  0.6508444  3
    763    773    776    778     1  0.0000000  0.6508444  3
    764    763    773    774     1  0.0000000  1.2552000  3
    764    763    773    775     1  0.0000000  1.2552000  3
    765    764    763    773     1  0.0000000  1.2552000  3
    765    764    767    770     1  0.0000000  0.6508444  3
    765    764    767    768     1  0.0000000  0.6508444  3
    765    764    767    769     1  0.0000000  0.6508444  3
    766    764    763    773     1  0.0000000  1.2552000  3
    766    764    767    770     1  0.0000000  0.6508444  3
    766    764    767    768     1  0.0000000  0.6508444  3
    766    764    767    769     1  0.0000000  0.6508444  3
    768    767    770    771     1  0.0000000  3.3472000  1
    768    767    770    771     1  0.0000000  0.0000000  2
    768    767    770    771     1  180.0000771  0.3347200  3
    768    767    770    772     1  0.0000000  3.3472000  1
    768    767    770    772     1  0.0000000  0.0000000  2
    768    767    770    772     1  180.0000771  0.3347200  3
    769    767    770    771     1  0.0000000  3.3472000  1
    769    767    770    771     1  0.0000000  0.0000000  2
    769    767    770    771     1  180.0000771  0.3347200  3
    769    767    770    772     1  0.0000000  3.3472000  1
    769    767    770    772     1  0.0000000  0.0000000  2
    769    767    770    772     1  180.0000771  0.3347200  3
    774    773    776    779     1  0.0000000  0.6508444  3
    774    773    776    777     1  0.0000000  0.6508444  3
    774    773    776    778     1  0.0000000  0.6508444  3
    775    773    776    779     1  0.0000000  0.6508444  3
    775    773    776    777     1  0.0000000  0.6508444  3
    775    773    776    778     1  0.0000000  0.6508444  3
    777    776    779    780     1  0.0000000  3.3472000  1
    777    776    779    780     1  0.0000000  0.0000000  2
    777    776    779    780     1  180.0000771  0.3347200  3
    777    776    779    781     1  0.0000000  3.3472000  1
    777    776    779    781     1  0.0000000  0.0000000  2
    777    776    779    781     1  180.0000771  0.3347200  3
    778    776    779    780     1  0.0000000  3.3472000  1
    778    776    779    780     1  0.0000000  0.0000000  2
    778    776    779    780     1  180.0000771  0.3347200  3
    778    776    779    781     1  0.0000000  3.3472000  1
    778    776    779    781     1  0.0000000  0.0000000  2
    778    776    779    781     1  180.0000771  0.3347200  3
    783    786    789    790     1  0.0000000  0.6508444  3
    783    786    789    791     1  0.0000000  0.6508444  3
    784    783    786    789     1  0.0000000  0.6508444  3
    784    783    786    787     1  0.0000000  0.6508444  3
    784    783    786    788     1  0.0000000  0.6508444  3
    785    783    786    789     1  0.0000000  0.6508444  3
    785    783    786    787     1  0.0000000  0.6508444  3
    785    783    786    788     1  0.0000000  0.6508444  3
    787    786    789    792     1  0.0000000  0.6508444  3
    787    786    789    790     1  0.0000000  0.6508444  3
    787    786    789    791     1  0.0000000  0.6508444  3
    787    786    783    811     1  0.0000000  1.0460000  1
    787    786    783    811     1  0.0000000  0.0000000  3
    788    786    789    792     1  0.0000000  0.6508444  3
    788    786    789    790     1  0.0000000  0.6508444  3
    788    786    789    791     1  0.0000000  0.6508444  3
    788    786    783    811     1  0.0000000  1.0460000  1
    788    786    783    811     1  0.0000000  0.0000000  3
    789    792    793    794     1  0.0000000  1.2552000  3
    789    792    793    795     1  0.0000000  1.2552000  3
    789    792    802    803     1  0.0000000  1.2552000  3
    789    792    802    804     1  0.0000000  1.2552000  3
    790    789    792    793     1  0.0000000  1.2552000  3
    790    789    792    802     1  0.0000000  1.2552000  3
    791    789    792    793     1  0.0000000  1.2552000  3
    791    789    792    802     1  0.0000000  1.2552000  3
    792    793    796    797     1  0.0000000  0.6508444  3
    792    793    796    798     1  0.0000000  0.6508444  3
    792    802    805    806     1  0.0000000  0.6508444  3
    792    802    805    807     1  0.0000000  0.6508444  3
    793    792    802    803     1  0.0000000  1.2552000  3
    793    792    802    804     1  0.0000000  1.2552000  3
    794    793    796    799     1  0.0000000  0.6508444  3
    794    793    796    797     1  0.0000000  0.6508444  3
    794    793    796    798     1  0.0000000  0.6508444  3
    794    793    792    802     1  0.0000000  1.2552000  3
    795    793    796    799     1  0.0000000  0.6508444  3
    795    793    796    797     1  0.0000000  0.6508444  3
    795    793    796    798     1  0.0000000  0.6508444  3
    795    793    792    802     1  0.0000000  1.2552000  3
    797    796    799    800     1  0.0000000  3.3472000  1
    797    796    799    800     1  0.0000000  0.0000000  2
    797    796    799    800     1  180.0000771  0.3347200  3
    797    796    799    801     1  0.0000000  3.3472000  1
    797    796    799    801     1  0.0000000  0.0000000  2
    797    796    799    801     1  180.0000771  0.3347200  3
    798    796    799    800     1  0.0000000  3.3472000  1
    798    796    799    800     1  0.0000000  0.0000000  2
    798    796    799    800     1  180.0000771  0.3347200  3
    798    796    799    801     1  0.0000000  3.3472000  1
    798    796    799    801     1  0.0000000  0.0000000  2
    798    796    799    801     1  180.0000771  0.3347200  3
    803    802    805    808     1  0.0000000  0.6508444  3
    803    802    805    806     1  0.0000000  0.6508444  3
    803    802    805    807     1  0.0000000  0.6508444  3
    804    802    805    808     1  0.0000000  0.6508444  3
    804    802    805    806     1  0.0000000  0.6508444  3
    804    802    805    807     1  0.0000000  0.6508444  3
    806    805    808    809     1  0.0000000  3.3472000  1
    806    805    808    809     1  0.0000000  0.0000000  2
    806    805    808    809     1  180.0000771  0.3347200  3
    806    805    808    810     1  0.0000000  3.3472000  1
    806    805    808    810     1  0.0000000  0.0000000  2
    806    805    808    810     1  180.0000771  0.3347200  3
    807    805    808    809     1  0.0000000  3.3472000  1
    807    805    808    809     1  0.0000000  0.0000000  2
    807    805    808    809     1  180.0000771  0.3347200  3
    807    805    808    810     1  0.0000000  3.3472000  1
    807    805    808    810     1  0.0000000  0.0000000  2
    807    805    808    810     1  180.0000771  0.3347200  3
    812    815    818    819     1  0.0000000  0.6508444  3
    812    815    818    820     1  0.0000000  0.6508444  3
    813    812    815    818     1  0.0000000  0.6508444  3
    813    812    815    816     1  0.0000000  0.6508444  3
    813    812    815    817     1  0.0000000  0.6508444  3
    814    812    815    818     1  0.0000000  0.6508444  3
    814    812    815    816     1  0.0000000  0.6508444  3
    814    812    815    817     1  0.0000000  0.6508444  3
    816    815    812    840     1  0.0000000  1.0460000  1
    816    815    812    840     1  0.0000000  0.0000000  3
    816    815    818    821     1  0.0000000  0.6508444  3
    816    815    818    819     1  0.0000000  0.6508444  3
    816    815    818    820     1  0.0000000  0.6508444  3
    817    815    812    840     1  0.0000000  1.0460000  1
    817    815    812    840     1  0.0000000  0.0000000  3
    817    815    818    821     1  0.0000000  0.6508444  3
    817    815    818    819     1  0.0000000  0.6508444  3
    817    815    818    820     1  0.0000000  0.6508444  3
    818    821    822    823     1  0.0000000  1.2552000  3
    818    821    822    824     1  0.0000000  1.2552000  3
    818    821    831    832     1  0.0000000  1.2552000  3
    818    821    831    833     1  0.0000000  1.2552000  3
    819    818    821    822     1  0.0000000  1.2552000  3
    819    818    821    831     1  0.0000000  1.2552000  3
    820    818    821    822     1  0.0000000  1.2552000  3
    820    818    821    831     1  0.0000000  1.2552000  3
    821    822    825    826     1  0.0000000  0.6508444  3
    821    822    825    827     1  0.0000000  0.6508444  3
    821    831    834    835     1  0.0000000  0.6508444  3
    821    831    834    836     1  0.0000000  0.6508444  3
    822    821    831    832     1  0.0000000  1.2552000  3
    822    821    831    833     1  0.0000000  1.2552000  3
    823    822    821    831     1  0.0000000  1.2552000  3
    823    822    825    828     1  0.0000000  0.6508444  3
    823    822    825    826     1  0.0000000  0.6508444  3
    823    822    825    827     1  0.0000000  0.6508444  3
    824    822    821    831     1  0.0000000  1.2552000  3
    824    822    825    828     1  0.0000000  0.6508444  3
    824    822    825    826     1  0.0000000  0.6508444  3
    824    822    825    827     1  0.0000000  0.6508444  3
    826    825    828    829     1  0.0000000  3.3472000  1
    826    825    828    829     1  0.0000000  0.0000000  2
    826    825    828    829     1  180.0000771  0.3347200  3
    826    825    828    830     1  0.0000000  3.3472000  1
    826    825    828    830     1  0.0000000  0.0000000  2
    826    825    828    830     1  180.0000771  0.3347200  3
    827    825    828    829     1  0.0000000  3.3472000  1
    827    825    828    829     1  0.0000000  0.0000000  2
    827    825    828    829     1  180.0000771  0.3347200  3
    827    825    828    830     1  0.0000000  3.3472000  1
    827    825    828    830     1  0.0000000  0.0000000  2
    827    825    828    830     1  180.0000771  0.3347200  3
    832    831    834    837     1  0.0000000  0.6508444  3
    832    831    834    835     1  0.0000000  0.6508444  3
    832    831    834    836     1  0.0000000  0.6508444  3
    833    831    834    837     1  0.0000000  0.6508444  3
    833    831    834    835     1  0.0000000  0.6508444  3
    833    831    834    836     1  0.0000000  0.6508444  3
    835    834    837    838     1  0.0000000  3.3472000  1
    835    834    837    838     1  0.0000000  0.0000000  2
    835    834    837    838     1  180.0000771  0.3347200  3
    835    834    837    839     1  0.0000000  3.3472000  1
    835    834    837    839     1  0.0000000  0.0000000  2
    835    834    837    839     1  180.0000771  0.3347200  3
    836    834    837    838     1  0.0000000  3.3472000  1
    836    834    837    838     1  0.0000000  0.0000000  2
    836    834    837    838     1  180.0000771  0.3347200  3
    836    834    837    839     1  0.0000000  3.3472000  1
    836    834    837    839     1  0.0000000  0.0000000  2
    836    834    837    839     1  180.0000771  0.3347200  3
    841    844    847    848     1  0.0000000  0.6508444  3
    841    844    847    849     1  0.0000000  0.6508444  3
    842    841    844    847     1  0.0000000  0.6508444  3
    842    841    844    845     1  0.0000000  0.6508444  3
    842    841    844    846     1  0.0000000  0.6508444  3
    843    841    844    847     1  0.0000000  0.6508444  3
    843    841    844    845     1  0.0000000  0.6508444  3
    843    841    844    846     1  0.0000000  0.6508444  3
    845    844    847    850     1  0.0000000  0.6508444  3
    845    844    847    848     1  0.0000000  0.6508444  3
    845    844    847    849     1  0.0000000  0.6508444  3
    845    844    841    869     1  0.0000000  1.0460000  1
    845    844    841    869     1  0.0000000  0.0000000  3
    846    844    847    850     1  0.0000000  0.6508444  3
    846    844    847    848     1  0.0000000  0.6508444  3
    846    844    847    849     1  0.0000000  0.6508444  3
    846    844    841    869     1  0.0000000  1.0460000  1
    846    844    841    869     1  0.0000000  0.0000000  3
    847    850    851    852     1  0.0000000  1.2552000  3
    847    850    851    853     1  0.0000000  1.2552000  3
    847    850    860    861     1  0.0000000  1.2552000  3
    847    850    860    862     1  0.0000000  1.2552000  3
    848    847    850    851     1  0.0000000  1.2552000  3
    848    847    850    860     1  0.0000000  1.2552000  3
    849    847    850    851     1  0.0000000  1.2552000  3
    849    847    850    860     1  0.0000000  1.2552000  3
    850    851    854    855     1  0.0000000  0.6508444  3
    850    851    854    856     1  0.0000000  0.6508444  3
    850    860    863    864     1  0.0000000  0.6508444  3
    850    860    863    865     1  0.0000000  0.6508444  3
    851    850    860    861     1  0.0000000  1.2552000  3
    851    850    860    862     1  0.0000000  1.2552000  3
    852    851    854    857     1  0.0000000  0.6508444  3
    852    851    854    855     1  0.0000000  0.6508444  3
    852    851    854    856     1  0.0000000  0.6508444  3
    852    851    850    860     1  0.0000000  1.2552000  3
    853    851    854    857     1  0.0000000  0.6508444  3
    853    851    854    855     1  0.0000000  0.6508444  3
    853    851    854    856     1  0.0000000  0.6508444  3
    853    851    850    860     1  0.0000000  1.2552000  3
    855    854    857    858     1  0.0000000  3.3472000  1
    855    854    857    858     1  0.0000000  0.0000000  2
    855    854    857    858     1  180.0000771  0.3347200  3
    855    854    857    859     1  0.0000000  3.3472000  1
    855    854    857    859     1  0.0000000  0.0000000  2
    855    854    857    859     1  180.0000771  0.3347200  3
    856    854    857    858     1  0.0000000  3.3472000  1
    856    854    857    858     1  0.0000000  0.0000000  2
    856    854    857    858     1  180.0000771  0.3347200  3
    856    854    857    859     1  0.0000000  3.3472000  1
    856    854    857    859     1  0.0000000  0.0000000  2
    856    854    857    859     1  180.0000771  0.3347200  3
    861    860    863    866     1  0.0000000  0.6508444  3
    861    860    863    864     1  0.0000000  0.6508444  3
    861    860    863    865     1  0.0000000  0.6508444  3
    862    860    863    866     1  0.0000000  0.6508444  3
    862    860    863    864     1  0.0000000  0.6508444  3
    862    860    863    865     1  0.0000000  0.6508444  3
    864    863    866    867     1  0.0000000  3.3472000  1
    864    863    866    867     1  0.0000000  0.0000000  2
    864    863    866    867     1  180.0000771  0.3347200  3
    864    863    866    868     1  0.0000000  3.3472000  1
    864    863    866    868     1  0.0000000  0.0000000  2
    864    863    866    868     1  180.0000771  0.3347200  3
    865    863    866    867     1  0.0000000  3.3472000  1
    865    863    866    867     1  0.0000000  0.0000000  2
    865    863    866    867     1  180.0000771  0.3347200  3
    865    863    866    868     1  0.0000000  3.3472000  1
    865    863    866    868     1  0.0000000  0.0000000  2
    865    863    866    868     1  180.0000771  0.3347200  3

;[ system ]
;; Name
;Generic title
;
;[ molecules ]
;; Compound       #mols
;g3.5ocore_petim      1
