G3.5Ocore-PETIM in water
57170
    1aaa     O1    1   5.646   4.126   1.591  0.3380 -0.2127  0.5721
    1aaa     C1    2   5.772   4.075   1.545 -1.0339 -0.0271 -0.1984
    1aaa     H1    3   5.806   3.990   1.606 -1.7937 -1.2536 -1.4358
    1aaa     H2    4   5.849   4.152   1.556 -0.4731 -0.6381  0.2560
    1aaa     C2    5   5.646   4.167   1.728  0.0507  0.1741  0.0377
    1aaa     H3    6   5.743   4.144   1.774  1.0808  2.9009 -0.5745
    1aaa     H4    7   5.566   4.110   1.777  0.2299  0.4979  0.7267
    1aaa     C3    8   5.768   4.036   1.397 -0.1225  0.2320  0.1810
    1aaa     H5    9   5.729   4.114   1.331  0.5983 -0.5632 -1.2353
    1aaa     H6   10   5.692   3.958   1.379 -0.1692 -0.1153  1.7251
    1aaa     C4   11   5.628   4.320   1.726  0.3461  0.7186 -0.3639
    1aaa     H7   12   5.528   4.343   1.686 -0.8999 -1.8063  1.0843
    1aaa     H8   13   5.696   4.371   1.657  0.8991 -0.6591 -0.8669
    1aaa     C5   14   5.905   3.996   1.335  1.0807  0.3074  0.0278
    1aaa     H9   15   5.944   3.909   1.388  2.6886  0.4253 -0.8907
    1aaa    H10   16   5.895   3.949   1.236  0.6325 -1.0355  0.6898
    1aaa     C6   17   5.636   4.388   1.866  0.3083  0.3511  0.4684
    1aaa    H11   18   5.540   4.362   1.914 -0.9218  1.2062 -1.4111
    1aaa    H12   19   5.644   4.497   1.863  0.6627  0.3022 -1.0434
    1aaa     N1   20   6.001   4.109   1.327 -0.1011  0.2513 -0.0255
    1aaa     N2   21   5.749   4.337   1.947  0.0881  0.4857  0.0429
    1aaa     C7   22   5.890   4.345   1.885  0.0810  0.1040  0.0759
    1aaa    H13   23   5.884   4.318   1.779  0.9324  1.2385 -0.2870
    1aaa    H14   24   5.926   4.449   1.887  0.4173  0.0104 -0.7200
    1aaa     C8   25   5.750   4.413   2.079  0.6818 -0.3918 -0.7868
    1aaa    H15   26   5.828   4.373   2.145  0.6329  3.4520  1.9055
    1aaa    H16   27   5.772   4.519   2.062  1.3074 -0.5539 -1.0140
    1aaa     C9   28   5.964   4.228   1.244 -0.2796  0.5203 -0.7180
    1aaa    H17   29   5.998   4.208   1.142  1.3033  1.9895 -0.5233
    1aaa    H18   30   5.857   4.252   1.243 -0.2830  0.5704  0.1159
    1aaa    C10   31   6.139   4.064   1.287 -0.4139  0.1469  0.3256
    1aaa    H19   32   6.126   3.984   1.213  0.7984 -0.0515  0.2956
    1aaa    H20   33   6.205   4.133   1.232  0.7038 -1.2505 -0.1509
    1aaa    C11   34   5.994   4.251   1.944 -0.2073 -0.1661 -0.0847
    1aaa    H21   35   5.998   4.263   2.053  0.9051 -1.6257  0.0626
    1aaa    H22   36   5.955   4.149   1.930 -3.6470  0.8561  1.0100
    1aaa    C12   37   5.615   4.394   2.158  0.5200 -0.3693 -0.2338
    1aaa    H23   38   5.531   4.448   2.114  1.0134 -0.3379 -1.1572
    1aaa    H24   39   5.585   4.289   2.148 -0.4949 -0.0394 -0.8102
    1aaa    C13   40   6.018   4.365   1.278  0.4352  0.0357 -0.5421
    1aaa    H25   41   6.127   4.361   1.270  0.5789  1.2158  0.4517
    1aaa    H26   42   5.974   4.443   1.214 -0.1297 -0.0097 -0.2172
    1aaa    C14   43   6.214   3.996   1.399 -0.5578 -0.2238  0.2220
    1aaa    H27   44   6.175   3.896   1.422 -0.0446 -0.9119 -1.6733
    1aaa    H28   45   6.309   3.962   1.357 -0.8902 -0.9212 -0.0029
    1aaa    C15   46   6.244   4.093   1.518 -0.6403  0.0428  0.0020
    1aaa    H29   47   6.143   4.136   1.524 -0.2956  1.1261 -1.3607
    1aaa    H30   48   6.269   4.042   1.611 -0.9386  1.5132  0.9213
    1aaa    C16   49   5.998   4.397   1.434 -0.9917  0.5606  0.1620
    1aaa    H31   50   5.894   4.387   1.467 -0.6772 -0.0063  1.0265
    1aaa    H32   51   6.048   4.325   1.500 -0.6480  0.9593  0.3395
    1aaa    C17   52   5.641   4.426   2.313 -1.0589  0.0538 -0.0288
    1aaa    H33   53   5.701   4.517   2.318 -1.9636  0.5921  2.6657
    1aaa    H34   54   5.551   4.459   2.367 -0.6382  0.4431  0.4305
    1aaa    C18   55   6.137   4.256   1.872 -0.0678  0.5558 -0.0766
    1aaa    H35   56   6.214   4.203   1.930  1.9837  0.1300 -2.9655
    1aaa    H36   57   6.117   4.215   1.772 -0.6145 -1.0763  0.6731
    2bbb     N1   58   6.549   4.627   1.627  0.5653 -0.5196 -0.5342
    2bbb     C1   59   6.538   4.691   1.499 -0.1641 -0.2811 -0.1839
    2bbb     H1   60   6.482   4.785   1.512 -0.6475 -0.6138  0.1869
    2bbb     H2   61   6.481   4.629   1.428 -1.8534  2.4021 -1.3180
    2bbb     C2   62   6.568   4.717   1.746 -0.6060 -0.6121 -0.3866
    2bbb     H3   63   6.471   4.755   1.781 -0.2333  2.1656 -2.1142
    2bbb     H4   64   6.630   4.801   1.712  1.7557 -1.7465  0.8585
    2bbb     C3   65   6.445   4.519   1.647 -0.2709  0.1117 -0.2033
    2bbb     H5   66   6.342   4.556   1.654 -0.5896 -0.5688 -1.0862
    2bbb     H6   67   6.464   4.478   1.747  0.4979 -0.8650 -0.7298
    2bbb     C4   68   6.458   4.395   1.554 -0.6232 -0.6082 -0.4957
    2bbb     H7   69   6.560   4.359   1.573 -1.3959 -2.9590 -0.4385
    2bbb     H8   70   6.455   4.429   1.449  0.4960  0.2828 -0.2641
    2bbb     C5   71   6.674   4.717   1.422 -0.8083 -0.5323  0.4915
    2bbb     H9   72   6.744   4.779   1.481 -0.7939  0.0500 -0.1255
    2bbb    H10   73   6.653   4.786   1.339  1.1588 -0.9356 -0.3826
    2bbb     C6   74   6.641   4.648   1.865 -0.3103 -0.0963 -0.6548
    2bbb    H11   75   6.597   4.549   1.880 -0.8859  0.0055 -1.5896
    2bbb    H12   76   6.639   4.693   1.965  0.1804 -3.0532  0.7851
    2bbb     C7   77   6.360   4.288   1.590  0.0437 -0.1724  0.2302
    2bbb    H13   78   6.265   4.336   1.616  1.0244  1.7853  0.3865
    2bbb    H14   79   6.396   4.231   1.676 -0.3927  1.0169  1.2217
    2bbb     C8   80   6.790   4.625   1.836  0.1408 -0.1552 -0.3460
    2bbb    H15   81   6.842   4.721   1.829  1.6865 -0.9271  0.1613
    2bbb    H16   82   6.780   4.567   1.743 -2.6395  0.3207 -0.4272
    2bbb     C9   83   6.742   4.580   1.379  0.0894 -0.2168  0.5566
    2bbb    H17   84   6.682   4.513   1.317  0.6455 -0.0906 -0.1246
    2bbb    H18   85   6.771   4.528   1.472  0.0736 -0.3103  0.5092
    2bbb     O1   86   6.343   4.193   1.482 -0.1859  0.1163 -0.1252
    3bbb     N1   87   6.082   4.930   1.744 -0.4551 -0.5247  0.2437
    3bbb     C1   88   6.013   5.005   1.851  0.3010 -0.2106  0.3379
    3bbb     H1   89   5.909   5.021   1.822  0.9529  0.1569 -1.9941
    3bbb     H2   90   6.057   5.104   1.870  3.0708 -1.2984  0.1962
    3bbb     C2   91   6.226   4.930   1.747 -0.4719  0.3899 -0.6631
    3bbb     H3   92   6.266   4.898   1.650  0.4279  1.2935 -0.5978
    3bbb     H4   93   6.246   4.857   1.827 -1.5667  1.9760  1.1272
    3bbb     C3   94   6.017   4.794   1.713 -0.1650  0.8838  0.3355
    3bbb     H5   95   5.909   4.801   1.698  0.0566  0.2105 -1.8853
    3bbb     H6   96   6.035   4.717   1.790 -2.5326 -0.0430  0.0500
    3bbb     C4   97   6.070   4.732   1.580  0.2566 -0.2207 -0.4108
    3bbb     H7   98   6.179   4.723   1.590  0.0968 -1.7744  0.2424
    3bbb     H8   99   6.035   4.793   1.496 -0.0927  0.1772  0.0168
    3bbb     C5  100   6.031   4.928   1.984  0.4618 -0.1888 -0.2063
    3bbb     H9  101   6.125   4.871   1.989  1.1800  0.9182 -0.6895
    3bbb    H10  102   5.949   4.855   1.983  1.7430 -1.7692  1.3977
    3bbb     C6  103   6.293   5.058   1.786 -0.0978  0.0369 -0.5076
    3bbb    H11  104   6.281   5.060   1.896  1.3034 -0.4249 -0.3386
    3bbb    H12  105   6.228   5.139   1.750 -1.0488 -0.3680  0.2452
    3bbb     C7  106   6.017   4.585   1.580 -0.0683 -0.4793  0.0555
    3bbb    H13  107   5.909   4.589   1.602  0.0198 -0.5327  0.5097
    3bbb    H14  108   6.064   4.523   1.657  0.1842  0.1401  0.4023
    3bbb     C8  109   6.434   5.081   1.734  0.5523  0.1418  0.3064
    3bbb    H15  110   6.449   5.190   1.742  0.6137  0.1660 -0.1190
    3bbb    H16  111   6.436   5.057   1.627 -0.7292  1.0743  0.0598
    3bbb     C9  112   6.012   5.018   2.110  0.1389 -0.1911 -0.7118
    3bbb    H17  113   5.991   4.960   2.200  1.7505  1.8621  1.0794
    3bbb    H18  114   5.916   5.068   2.089  0.7353  0.9490 -0.8142
    3bbb     O1  115   6.044   4.531   1.455  0.4446  0.1674 -0.3659
    4bbb     N1  116   6.099   4.130   2.471  0.3209 -0.2859 -0.2879
    4bbb     C1  117   6.222   4.174   2.406  0.0781  0.1518  0.4994
    4bbb     H1  118   6.279   4.249   2.461  0.7966 -0.1889  0.2238
    4bbb     H2  119   6.202   4.218   2.307  1.3541  0.0643  0.1948
    4bbb     C2  120   6.118   4.055   2.598  0.3496  0.6115 -0.1358
    4bbb     H3  121   6.141   3.951   2.571  1.7002  0.3152  1.8603
    4bbb     H4  122   6.023   4.041   2.651  0.6480  1.6780  0.7342
    4bbb     C3  123   6.000   4.242   2.479 -0.8989  0.2769 -0.2174
    4bbb     H5  124   5.992   4.295   2.383  0.3294  0.5284 -0.2023
    4bbb     H6  125   6.037   4.318   2.548 -0.4100 -0.7824  0.7088
    4bbb     C4  126   5.867   4.213   2.544  0.4531  0.6231  0.1526
    4bbb     H7  127   5.871   4.199   2.653  1.5598  3.1049  0.5005
    4bbb     H8  128   5.840   4.119   2.494  0.0974 -0.2687  1.9237
    4bbb     C5  129   6.330   4.066   2.379 -0.6639 -0.4513  0.2629
    4bbb     H9  130   6.309   3.999   2.294  0.6647 -0.1558 -0.3329
    4bbb    H10  131   6.344   4.004   2.468  1.0321 -0.2587  0.1669
    4bbb     C6  132   6.231   4.113   2.689 -0.3947  0.9080  0.1950
    4bbb    H11  133   6.189   4.210   2.719 -3.2244  0.8800 -3.0371
    4bbb    H12  134   6.324   4.140   2.637  0.8090  0.7421  2.1740
    4bbb     C7  135   5.763   4.325   2.515  0.1198  0.3153 -0.4664
    4bbb    H13  136   5.815   4.415   2.550  0.7918 -0.6509  1.1661
    4bbb    H14  137   5.682   4.305   2.586  1.3397  0.5630  1.0515
    4bbb     C8  138   6.262   4.028   2.817 -0.3734  0.0391  0.6623
    4bbb    H15  139   6.361   4.058   2.852 -0.4510  0.3950  0.5891
    4bbb    H16  140   6.277   3.924   2.788 -4.4689 -1.0718  1.8842
    4bbb     C9  141   6.469   4.131   2.338  0.6917  0.6584  0.0527
    4bbb    H17  142   6.541   4.051   2.318 -0.3941 -0.5715  0.9343
    4bbb    H18  143   6.510   4.192   2.420  1.1505 -1.0892  1.1761
    4bbb     O1  144   5.716   4.320   2.375 -0.3888 -0.3110  0.2598
    5bbb     N1  145   6.228   4.618   2.226  0.0775 -0.7109 -0.6370
    5bbb     C1  146   6.298   4.626   2.360 -0.4982  0.1538 -0.1616
    5bbb     H1  147   6.383   4.557   2.360  0.3640  1.1917 -0.4025
    5bbb     H2  148   6.225   4.589   2.434 -1.4333  0.1113 -1.0708
    5bbb     C2  149   6.103   4.697   2.240 -0.2383 -0.0153 -0.0423
    5bbb     H3  150   6.076   4.712   2.135  0.4396 -1.0553 -0.3870
    5bbb     H4  151   6.114   4.805   2.259 -0.5978 -0.0265  0.2353
    5bbb     C3  152   6.308   4.663   2.104 -0.0005  0.7953  0.3444
    5bbb     H5  153   6.410   4.624   2.113 -0.4485 -0.2366  1.1643
    5bbb     H6  154   6.300   4.772   2.094 -2.4538  0.8852  2.2038
    5bbb     C4  155   6.251   4.599   1.976  0.1301  0.0895  0.5246
    5bbb     H7  156   6.322   4.620   1.896 -2.1385  0.9017 -1.4235
    5bbb     H8  157   6.161   4.645   1.933  0.0116  0.5447  1.2255
    5bbb     C5  158   6.344   4.762   2.409  0.7493 -0.0465 -0.5599
    5bbb     H9  159   6.258   4.830   2.403  0.0152 -0.8872  0.1026
    5bbb    H10  160   6.431   4.793   2.350  1.0497 -0.9275 -0.5978
    5bbb     C6  161   5.995   4.628   2.331 -0.4852 -0.2620 -0.1254
    5bbb    H11  162   6.026   4.588   2.428  0.7384 -0.7008 -0.6862
    5bbb    H12  163   5.969   4.535   2.279  1.5547 -0.9688  0.0625
    5bbb     C7  164   6.244   4.444   1.985  0.1318 -0.5687 -0.3238
    5bbb    H13  165   6.192   4.416   2.078  1.3014 -0.4069  0.3995
    5bbb    H14  166   6.347   4.404   1.984  0.6737  0.8040 -1.4041
    5bbb     C8  167   5.877   4.727   2.356  0.5404  0.1057  0.5557
    5bbb    H15  168   5.908   4.824   2.396 -0.0150  0.8924 -0.8453
    5bbb    H16  169   5.802   4.675   2.417 -0.0256 -0.4574 -0.5833
    5bbb     C9  170   6.383   4.761   2.559 -0.2056  0.0072  0.0733
    5bbb    H17  171   6.410   4.861   2.595  1.2904  0.2018 -1.4390
    5bbb    H18  172   6.468   4.691   2.563  0.4095  0.6402 -1.1443
    5bbb     O1  173   6.171   4.394   1.867 -0.3338 -0.4379  0.1112
    6bbb     N1  174   7.021   4.300   2.267  0.3447 -0.2220  0.5193
    6bbb     C1  175   7.165   4.311   2.317 -0.0237  0.4308 -0.3198
    6bbb     H1  176   7.160   4.287   2.424 -1.8347  1.4838 -0.1231
    6bbb     H2  177   7.194   4.416   2.326 -0.2399  0.4566  0.1081
    6bbb     C2  178   6.914   4.336   2.362 -0.6981 -0.1935 -0.7285
    6bbb     H3  179   6.818   4.341   2.309  0.4249 -1.7843 -3.0752
    6bbb     H4  180   6.937   4.436   2.403 -0.4554 -0.7890  0.6353
    6bbb     C3  181   6.991   4.359   2.131  0.4520 -0.0471  0.5135
    6bbb     H5  182   6.889   4.341   2.097  0.2444  1.1758  0.4516
    6bbb     H6  183   7.055   4.312   2.055  1.0003  2.0223 -0.3652
    6bbb     C4  184   7.015   4.511   2.123 -0.3301  0.7194 -0.4932
    6bbb     H7  185   7.118   4.531   2.155 -0.9345 -1.3992  3.4054
    6bbb     H8  186   6.949   4.555   2.199  0.5863 -0.6406  1.1374
    6bbb     C5  187   7.261   4.220   2.241  0.0602 -0.0469 -0.1696
    6bbb     H9  188   7.307   4.273   2.156 -0.6549 -0.1110 -0.6018
    6bbb    H10  189   7.207   4.135   2.198  2.4265 -0.5645 -2.3583
    6bbb     C6  190   6.898   4.237   2.478 -0.4177 -0.2377 -0.3929
    6bbb    H11  191   6.993   4.186   2.498  0.2613  1.5560  1.2917
    6bbb    H12  192   6.824   4.161   2.450 -0.2019 -0.9207  0.8139
    6bbb     C7  193   6.985   4.572   1.981  0.1668 -0.0216  0.0157
    6bbb    H13  194   7.045   4.514   1.909  0.2367 -1.9082  1.5321
    6bbb    H14  195   7.014   4.678   1.982 -1.5419  0.5002  2.8506
    6bbb     C8  196   6.851   4.313   2.608  0.1887  0.1953  0.4277
    6bbb    H15  197   6.913   4.399   2.633 -1.0241  1.6873 -1.4601
    6bbb    H16  198   6.866   4.243   2.692  1.4263  0.2237  0.2457
    6bbb     C9  199   7.364   4.158   2.339  0.6803 -0.5370  0.4605
    6bbb    H17  200   7.435   4.106   2.273  1.1448 -1.4338  1.6288
    6bbb    H18  201   7.326   4.080   2.405 -1.6655 -0.1198 -0.3092
    6bbb     O1  202   6.843   4.554   1.949 -0.0950  0.0342  0.1668
    7bbb     N1  203   7.246   4.598   1.413 -0.0398  0.0080  0.5118
    7bbb     C1  204   7.365   4.529   1.363 -0.9928  0.2223  0.0040
    7bbb     H1  205   7.342   4.433   1.316 -0.7639 -0.0728  0.4831
    7bbb     H2  206   7.430   4.507   1.449 -0.4202 -0.5856 -0.6142
    7bbb     C2  207   7.174   4.532   1.521  0.1147  0.0727  0.0954
    7bbb     H3  208   7.251   4.484   1.582  0.7094 -0.9787 -1.4234
    7bbb     H4  209   7.108   4.455   1.480  1.4581 -0.4878 -1.1268
    7bbb     C3  210   7.157   4.652   1.304 -0.3956 -0.4738 -0.3307
    7bbb     H5  211   7.217   4.718   1.239  1.0726 -3.1179 -1.8354
    7bbb     H6  212   7.091   4.730   1.344 -1.6939 -0.4923 -2.2855
    7bbb     C4  213   7.082   4.545   1.215  0.0999 -0.4630 -0.2533
    7bbb     H7  214   7.141   4.456   1.189 -0.9240 -0.7423 -1.7007
    7bbb     H8  215   7.061   4.603   1.125 -0.8970  1.3129  1.0571
    7bbb     C5  216   7.461   4.610   1.266 -0.3734  0.1856 -0.5883
    7bbb     H9  217   7.501   4.696   1.321 -1.8007  0.7030 -0.3063
    7bbb    H10  218   7.422   4.657   1.175 -1.8324  2.3945  1.0431
    7bbb     C6  219   7.079   4.617   1.605  0.2285 -0.6092 -0.1300
    7bbb    H11  220   7.036   4.552   1.683 -2.2847 -1.0204 -1.7264
    7bbb    H12  221   6.992   4.645   1.544 -0.3506 -1.2103  0.4122
    7bbb     C7  222   6.939   4.499   1.269  0.2839  0.5051 -0.2659
    7bbb    H13  223   6.933   4.420   1.345 -1.4944  0.2553 -0.6302
    7bbb    H14  224   6.879   4.455   1.189 -0.6337  0.6633  0.3182
    7bbb     C8  225   7.129   4.739   1.689 -0.7293  0.3320 -0.2855
    7bbb    H15  226   7.061   4.737   1.776  0.3887 -2.7080  0.6489
    7bbb    H16  227   7.111   4.827   1.627 -1.2125  0.0926 -0.4949
    7bbb     C9  228   7.592   4.529   1.236  0.1088 -0.0287 -0.2834
    7bbb    H17  229   7.634   4.576   1.147 -1.3314 -0.5650 -1.2737
    7bbb    H18  230   7.559   4.428   1.213  0.0453  0.3244 -1.8368
    7bbb     O1  231   6.870   4.613   1.317  0.1035 -0.2904 -0.7845
    8bbb     N1  232   6.863   4.892   2.076 -0.0347 -0.6599  0.0787
    8bbb     C1  233   6.852   4.850   2.223 -0.1613  0.3428 -0.0486
    8bbb     H1  234   6.872   4.937   2.286  0.4597  1.7817 -2.1410
    8bbb     H2  235   6.929   4.774   2.239 -0.8221 -0.1667  0.8199
    8bbb     C2  236   7.000   4.949   2.057 -0.5148  0.3104 -0.0075
    8bbb     H3  237   7.017   4.970   1.951 -0.9255  0.6189 -0.0136
    8bbb     H4  238   7.071   4.871   2.089  0.3610  1.7630  1.8260
    8bbb     C3  239   6.749   4.976   2.035  0.0382 -0.1485  0.6502
    8bbb     H5  240   6.730   5.051   2.113 -1.4298 -1.5802  1.7581
    8bbb     H6  241   6.658   4.915   2.025  0.0255 -0.1341  0.6730
    8bbb     C4  242   6.765   5.048   1.900  0.4178 -0.1292 -0.2760
    8bbb     H7  243   6.813   4.978   1.830  0.8000  0.7699 -0.9310
    8bbb     H8  244   6.848   5.117   1.920  0.4870 -0.3072  0.0573
    8bbb     C5  245   6.717   4.773   2.247  0.1215 -0.2277  0.2297
    8bbb     H9  246   6.709   4.706   2.161  0.7644  1.3766 -1.1283
    8bbb    H10  247   6.631   4.841   2.241  0.4485  0.0915 -1.1373
    8bbb     C6  248   7.030   5.085   2.133  0.1918 -0.2232 -0.6826
    8bbb    H11  249   7.049   5.063   2.238  0.6882  1.3730 -0.4170
    8bbb    H12  250   6.939   5.148   2.132 -0.1261 -0.6756 -1.1341
    8bbb     C7  251   6.645   5.111   1.827  0.0643  0.3511 -0.0551
    8bbb    H13  252   6.673   5.151   1.729 -2.4718 -2.8976 -2.3509
    8bbb    H14  253   6.606   5.198   1.881 -0.6802  0.4335 -0.7055
    8bbb     C8  254   7.142   5.170   2.069  0.4377  0.6363 -0.8327
    8bbb    H15  255   7.163   5.253   2.136 -0.1952 -1.1303  1.6898
    8bbb    H16  256   7.114   5.219   1.975  0.2070 -0.2351 -1.2292
    8bbb     C9  257   6.721   4.687   2.377 -0.0815  0.1666 -0.4775
    8bbb    H17  258   6.806   4.617   2.366 -0.9746 -0.7705 -1.7629
    8bbb    H18  259   6.632   4.625   2.394  1.5930 -2.1494  0.5042
    8bbb     O1  260   6.539   5.016   1.807  0.5104 -0.1539 -0.4072
    9bbb     N1  261   6.562   5.248   2.308 -0.6174 -0.4316 -0.0801
    9bbb     C1  262   6.651   5.244   2.437 -0.6564  0.5661  0.0593
    9bbb     H1  263   6.588   5.208   2.520  0.1491 -1.7043 -0.2323
    9bbb     H2  264   6.680   5.346   2.463 -2.0280  1.1488 -0.6349
    9bbb     C2  265   6.624   5.326   2.195  0.5450  0.5364  0.9319
    9bbb     H3  266   6.591   5.284   2.099 -0.9113  2.0019  0.7496
    9bbb     H4  267   6.733   5.315   2.189  0.3867 -1.6662  1.1018
    9bbb     C3  268   6.483   5.126   2.269  0.2345  0.0023 -0.6802
    9bbb     H5  269   6.449   5.063   2.353 -1.3994  1.0445 -0.5117
    9bbb     H6  270   6.543   5.060   2.205 -0.0668  0.5053 -1.4940
    9bbb     C4  271   6.353   5.169   2.189  0.0193  0.1208 -0.3196
    9bbb     H7  272   6.377   5.216   2.093  0.4184  1.9717  0.6259
    9bbb     H8  273   6.296   5.246   2.243 -1.2483  1.4922 -3.3818
    9bbb     C5  274   6.782   5.156   2.433  0.4449  0.2350 -0.2618
    9bbb     H9  275   6.844   5.187   2.348  1.9149 -1.1128  0.2642
    9bbb    H10  276   6.758   5.049   2.426  0.3094  0.0640  2.1198
    9bbb     C6  277   6.604   5.476   2.204  0.6180 -1.3097 -0.4101
    9bbb    H11  278   6.680   5.530   2.146  2.7699 -2.5622  1.0935
    9bbb    H12  279   6.627   5.503   2.308 -0.9483 -1.3973 -0.0223
    9bbb     C7  280   6.253   5.059   2.164 -0.4173 -0.1365  0.4667
    9bbb    H13  281   6.235   5.019   2.265 -1.3970 -0.0202  0.3544
    9bbb    H14  282   6.297   4.983   2.098  1.6559  0.7963  0.7049
    9bbb     C8  283   6.466   5.528   2.161 -0.1624  0.2805  0.5498
    9bbb    H15  284   6.458   5.636   2.179  0.2374  0.4653 -0.3337
    9bbb    H16  285   6.399   5.472   2.228  2.5704 -2.2464  1.4076
    9bbb     C9  286   6.866   5.175   2.567  0.8146  0.3674 -0.6498
    9bbb    H17  287   6.810   5.179   2.661  0.9968  0.1104 -0.5279
    9bbb    H18  288   6.909   5.276   2.565  0.2543  0.6004 -1.5765
    9bbb     O1  289   6.124   5.112   2.118 -0.1638 -0.1738 -0.0810
   10bbb     N1  290   6.384   4.082   3.315 -0.5480  0.2686  0.0098
   10bbb     C1  291   6.516   4.027   3.288  0.8031  0.0177  0.5394
   10bbb     H1  292   6.495   3.945   3.219 -3.1086  2.0025 -0.9152
   10bbb     H2  293   6.570   3.993   3.377  1.1912  2.2958  1.2413
   10bbb     C2  294   6.383   4.206   3.398  0.9324  0.3733 -0.5035
   10bbb     H3  295   6.433   4.287   3.344 -2.5990  2.2229 -1.3246
   10bbb     H4  296   6.447   4.184   3.484  0.6677 -1.2613 -0.6894
   10bbb     C3  297   6.292   4.081   3.199 -0.3119  0.0710  0.8018
   10bbb     H5  298   6.319   4.161   3.129  2.6626 -0.5643  1.0934
   10bbb     H6  299   6.188   4.099   3.230 -1.1147  1.2221 -2.2141
   10bbb     C4  300   6.284   3.951   3.110 -0.7505  0.0794 -0.4307
   10bbb     H7  301   6.272   3.857   3.167 -1.5474 -1.2403 -2.6637
   10bbb     H8  302   6.374   3.948   3.048 -0.4381 -0.4758  0.0318
   10bbb     C5  303   6.599   4.136   3.212  0.4334 -0.1437  0.4959
   10bbb     H9  304   6.636   4.207   3.286  0.1831  1.9050 -1.2472
   10bbb    H10  305   6.544   4.190   3.134  1.9002 -0.0820 -0.5358
   10bbb     C6  306   6.242   4.251   3.441  0.2444 -0.0575 -0.2309
   10bbb    H11  307   6.183   4.277   3.352  0.7990  1.6199 -0.1477
   10bbb    H12  308   6.255   4.348   3.492 -1.0006 -1.1959  2.4362
   10bbb     C7  309   6.165   3.942   3.018 -0.3623 -0.3876  0.3302
   10bbb    H13  310   6.078   3.954   3.084 -1.1018  1.5704 -0.9274
   10bbb    H14  311   6.154   3.848   2.961 -3.9558  0.2113 -0.2071
   10bbb     C8  312   6.155   4.160   3.536 -0.9867  0.2198  0.2312
   10bbb    H15  313   6.084   4.221   3.594 -0.2418  1.0903  0.2402
   10bbb    H16  314   6.218   4.101   3.604 -0.8938 -0.4893 -0.4575
   10bbb     C9  315   6.717   4.073   3.129 -0.0501 -0.4051 -0.8036
   10bbb    H17  316   6.794   4.040   3.199 -0.0851  0.9536 -0.0795
   10bbb    H18  317   6.764   4.151   3.068 -0.8421  0.1039 -0.7890
   10bbb     O1  318   6.167   4.044   2.923  0.5231 -0.4307 -0.8284
   11bbb     N1  319   6.632   4.116   1.897 -0.5925  0.0564  0.5275
   11bbb     C1  320   6.772   4.137   1.852  0.5823 -0.7876 -0.3982
   11bbb     H1  321   6.835   4.047   1.850  1.5900 -0.1119  0.3796
   11bbb     H2  322   6.820   4.200   1.928  0.9418 -0.6566 -0.7272
   11bbb     C2  323   6.564   4.016   1.809 -0.3658  0.0943 -0.2361
   11bbb     H3  324   6.628   3.927   1.814  1.1041  1.1039 -0.5573
   11bbb     H4  325   6.554   4.048   1.705 -0.1230  1.1870  0.0653
   11bbb     C3  326   6.549   4.235   1.931  0.2247 -0.1645  0.6723
   11bbb     H5  327   6.446   4.210   1.959 -0.4380 -0.1606 -1.5419
   11bbb     H6  328   6.539   4.298   1.841  0.6542 -0.9553  0.0554
   11bbb     C4  329   6.604   4.325   2.043  0.4619  1.1202  0.4608
   11bbb     H7  330   6.548   4.418   2.058  0.2176  1.1517 -0.5379
   11bbb     H8  331   6.704   4.358   2.012  1.0210 -1.6740 -1.0084
   11bbb     C5  332   6.792   4.218   1.720  0.3881  0.1888 -0.0156
   11bbb     H9  333   6.711   4.292   1.724 -0.8237 -1.1110  0.3672
   11bbb    H10  334   6.773   4.143   1.642  2.1470  0.8982 -1.1734
   11bbb     C6  335   6.423   3.968   1.850 -0.5748  0.3318  0.1558
   11bbb    H11  336   6.357   4.053   1.833  0.4967  1.0218 -0.6379
   11bbb    H12  337   6.422   3.947   1.958 -0.0102 -0.3185  0.0455
   11bbb     C7  338   6.597   4.265   2.182 -0.1557 -0.6700  0.8983
   11bbb    H13  339   6.617   4.341   2.259 -1.0178  0.9759 -0.4116
   11bbb    H14  340   6.667   4.181   2.183 -0.3366 -0.8199  1.8886
   11bbb     C8  341   6.386   3.838   1.771  0.0546 -0.2092 -0.3527
   11bbb    H15  342   6.424   3.748   1.819  0.3227  0.3597  0.5141
   11bbb    H16  343   6.419   3.847   1.667  1.6418  1.3594  0.2344
   11bbb     C9  344   6.929   4.286   1.703  0.2218 -0.1624 -0.2400
   11bbb    H17  345   6.940   4.365   1.778  0.6108  0.2362 -0.7045
   11bbb    H18  346   6.936   4.323   1.600 -1.6117  2.4121  0.4769
   11bbb     O1  347   6.466   4.211   2.218 -0.2448  0.3390  0.1277
   12bbb     N1  348   5.550   4.830   1.895  0.0088  0.4115 -0.4323
   12bbb     C1  349   5.608   4.788   1.771 -0.3775  0.3719  0.4789
   12bbb     H1  350   5.574   4.685   1.758 -0.2147  0.4093 -0.2732
   12bbb     H2  351   5.717   4.786   1.788 -0.0214 -1.7042 -1.5382
   12bbb     C2  352   5.404   4.860   1.894  0.6208  0.1997 -0.5236
   12bbb     H3  353   5.392   4.950   1.833  1.8952  0.8112  0.1018
   12bbb     H4  354   5.359   4.866   1.994  1.1418 -0.7313 -0.2207
   12bbb     C3  355   5.614   4.777   2.023  0.2596  0.2104 -0.8304
   12bbb     H5  356   5.716   4.749   1.993  0.4555 -2.6459  1.9756
   12bbb     H6  357   5.572   4.684   2.063 -2.5686  1.0269 -1.5953
   12bbb     C4  358   5.630   4.890   2.131  0.0492 -1.5284  0.1810
   12bbb     H7  359   5.533   4.935   2.154  0.5199 -0.4083  0.0303
   12bbb     H8  360   5.696   4.970   2.096 -1.1666 -0.2264  0.7459
   12bbb     C5  361   5.578   4.873   1.648 -0.6341 -0.8353 -0.8790
   12bbb     H9  362   5.593   4.979   1.670 -0.7175 -0.8174 -0.9087
   12bbb    H10  363   5.474   4.857   1.616 -0.6356  1.8512 -2.5174
   12bbb     C6  364   5.315   4.739   1.843  0.6034 -0.0349 -0.0274
   12bbb    H11  365   5.330   4.716   1.737  2.3416 -0.9293  0.3776
   12bbb    H12  366   5.209   4.768   1.848  0.0111 -2.2237  2.0058
   12bbb     C7  367   5.679   4.831   2.258  0.5392 -1.1510 -0.6632
   12bbb    H13  368   5.600   4.766   2.299 -1.4541  0.2487 -2.1339
   12bbb    H14  369   5.694   4.913   2.329 -1.5258 -1.8292  0.6377
   12bbb     C8  370   5.352   4.613   1.924  0.0950 -0.3949  0.4036
   12bbb    H15  371   5.333   4.634   2.030 -1.4780 -0.0213  0.0734
   12bbb    H16  372   5.459   4.596   1.907 -0.0950 -1.6613  0.3862
   12bbb     C9  373   5.667   4.842   1.523 -0.6704  0.1286 -0.3725
   12bbb    H17  374   5.770   4.831   1.557 -1.0053 -0.1808  0.5640
   12bbb    H18  375   5.674   4.928   1.454 -0.9650 -0.7361 -1.5130
   12bbb     O1  376   5.805   4.761   2.242  0.3393  0.0870  0.0796
   13bbb     N1  377   5.965   4.547   2.903 -0.0747  0.4400 -0.0127
   13bbb     C1  378   5.825   4.569   2.856 -0.8071  0.1207 -0.2130
   13bbb     H1  379   5.761   4.514   2.925  1.3845 -4.2145 -1.2743
   13bbb     H2  380   5.816   4.516   2.760 -0.6738  0.9407 -0.6902
   13bbb     C2  381   5.979   4.404   2.945 -0.2607  0.2674  0.3088
   13bbb     H3  382   6.083   4.371   2.950 -0.1894  0.4482  0.0698
   13bbb     H4  383   5.937   4.349   2.860 -0.8519 -0.9359  1.3516
   13bbb     C3  384   6.061   4.584   2.792 -0.2596  0.1607 -0.5495
   13bbb     H5  385   6.014   4.660   2.729 -3.4559 -0.8140  0.4568
   13bbb     H6  386   6.075   4.495   2.729  2.8571 -0.9986  1.5366
   13bbb     C4  387   6.198   4.621   2.851  0.2379  0.5262 -0.4895
   13bbb     H7  388   6.230   4.555   2.933 -2.1897  3.1767  2.8945
   13bbb     H8  389   6.187   4.715   2.907 -0.2613  0.5194 -0.5690
   13bbb     C5  390   5.776   4.712   2.840  0.4999 -0.5257  0.1006
   13bbb     H9  391   5.836   4.755   2.759  1.6244 -0.1848  1.0992
   13bbb    H10  392   5.794   4.783   2.922  0.7797 -1.2265  0.6460
   13bbb     C6  393   5.921   4.356   3.076 -0.3945  0.0822 -0.2421
   13bbb    H11  394   5.817   4.391   3.084 -0.0297  1.0959  0.3369
   13bbb    H12  395   5.984   4.385   3.161 -1.1067  1.9650 -0.3110
   13bbb     C7  396   6.309   4.634   2.749 -0.1361  0.3225 -0.0794
   13bbb    H13  397   6.327   4.531   2.717 -0.3046 -0.2362  1.5518
   13bbb    H14  398   6.391   4.684   2.803 -2.7229  1.3929  3.1868
   13bbb     C8  399   5.906   4.199   3.079  0.0916 -0.0525 -0.1645
   13bbb    H15  400   5.891   4.170   3.184 -0.8825 -0.8851 -0.5163
   13bbb    H16  401   6.003   4.159   3.048  0.9747  0.3409  1.9675
   13bbb     C9  402   5.625   4.714   2.813  0.2750  0.3783  0.8890
   13bbb    H17  403   5.578   4.813   2.803 -1.5184 -0.4817  0.4529
   13bbb    H18  404   5.581   4.664   2.899 -1.8388  0.3630 -0.1384
   13bbb     O1  405   6.271   4.717   2.639 -0.0400 -0.0928 -0.2606
   14ccc     C3  406   6.625   4.247   2.672  0.9585 -0.3290 -0.3733
   14ccc     H5  407   6.529   4.271   2.624  0.2513 -0.9341  0.6963
   14ccc     H6  408   6.642   4.141   2.649 -0.5540 -1.0264  1.4660
   14ccc     C2  409   6.629   4.274   2.821  0.3843 -0.4346 -0.1214
   14ccc     H3  410   6.722   4.225   2.853  0.9578  0.5293 -0.2878
   14ccc     H4  411   6.537   4.224   2.855  0.2430  0.5532  0.9985
   14ccc     C1  412   6.628   4.426   2.865  0.1133 -0.0412 -0.2238
   14ccc     H1  413   6.525   4.465   2.860  0.5044  1.2662  1.0654
   14ccc     H2  414   6.686   4.474   2.786 -0.3280  0.5842 -0.1748
   14ccc     N1  415   6.693   4.453   2.996  0.5783 -0.1325 -0.0502
   14ccc     C4  416   6.844   4.441   2.980  0.9080  0.4880  0.1958
   14ccc     H7  417   6.871   4.539   2.939 -0.1813  1.3731  1.4768
   14ccc     H8  418   6.859   4.371   2.898 -0.2321 -0.4108  0.7261
   14ccc     C5  419   6.922   4.406   3.109 -0.3051 -1.1188 -0.0180
   14ccc     H9  420   6.887   4.457   3.200  0.7633  1.1668 -0.8102
   14ccc    H10  421   6.912   4.300   3.136  0.8164 -0.8754  1.5049
   14ccc     C6  422   7.071   4.442   3.098  0.0612 -0.4178 -0.4296
   14ccc     O2  423   7.156   4.356   3.074  0.7217  0.0310  0.4283
   14ccc     O3  424   7.103   4.555   3.131  0.5362 -0.3496 -0.6864
   14ccc     C7  425   6.657   4.584   3.062 -0.2011  0.3893 -0.6733
   14ccc    H11  426   6.745   4.649   3.071 -0.9060  1.4109 -0.9953
   14ccc    H12  427   6.579   4.644   3.014 -0.2164  1.3253  0.4802
   14ccc     C8  428   6.600   4.561   3.207 -0.1448  0.9390 -0.5603
   14ccc    H13  429   6.499   4.521   3.220  0.1281  0.7656  1.3381
   14ccc    H14  430   6.668   4.507   3.275 -0.7857  1.4922  0.5497
   14ccc     C9  431   6.590   4.701   3.255  0.9409  0.5282 -0.5684
   14ccc     O4  432   6.663   4.749   3.341 -0.3648  0.3076 -0.1036
   14ccc     O5  433   6.493   4.766   3.227 -0.1182  0.5890 -0.0798
   14ccc     O1  434   6.715   4.341   2.604  0.2536 -0.5284 -0.3367
   15ccc     C3  435   7.519   4.200   2.507 -0.5915 -0.2111  0.5581
   15ccc     H5  436   7.473   4.113   2.557  0.1272  0.3378  2.2413
   15ccc     H6  437   7.621   4.177   2.472 -0.7506 -2.0221  1.1418
   15ccc     C2  438   7.541   4.292   2.627 -0.0880 -0.5698 -0.4489
   15ccc     H3  439   7.610   4.241   2.695  0.6572  3.2213  1.9251
   15ccc     H4  440   7.446   4.305   2.679  0.6800  0.8481  0.6737
   15ccc     C1  441   7.614   4.429   2.597 -0.3639 -0.0323  0.5487
   15ccc     H1  442   7.546   4.480   2.527 -1.2893 -0.7873  0.8666
   15ccc     H2  443   7.699   4.404   2.532 -2.0772 -1.2309 -1.3391
   15ccc     N1  444   7.648   4.518   2.708  0.3986  0.4942 -0.5808
   15ccc     C4  445   7.742   4.618   2.682 -0.3421  0.2071 -0.0452
   15ccc     H7  446   7.832   4.573   2.638  0.0155 -2.0759  2.7717
   15ccc     H8  447   7.766   4.663   2.779  0.7227 -1.9048  0.7255
   15ccc     C5  448   7.694   4.724   2.574 -0.9276  0.5210 -0.3390
   15ccc     H9  449   7.671   4.676   2.478 -0.9644 -0.1942  0.0178
   15ccc    H10  450   7.604   4.779   2.603 -1.4031 -1.4018  2.2015
   15ccc     C6  451   7.802   4.825   2.554 -0.0696  0.1190 -0.2033
   15ccc     O2  452   7.818   4.916   2.635 -0.1624 -0.1720 -0.0254
   15ccc     O3  453   7.851   4.847   2.447 -0.0336  0.8575 -0.5460
   15ccc     C7  454   7.526   4.559   2.787 -0.3663  0.8047 -0.4309
   15ccc    H11  455   7.471   4.639   2.735 -0.7393  2.0020  1.6689
   15ccc    H12  456   7.463   4.470   2.795 -1.3324  1.0318 -3.9561
   15ccc     C8  457   7.553   4.627   2.916 -0.3055 -0.0998 -0.4119
   15ccc    H13  458   7.619   4.568   2.982 -1.0686 -0.0257  0.4467
   15ccc    H14  459   7.609   4.721   2.908  0.5731 -0.2716  2.4508
   15ccc     C9  460   7.424   4.658   2.983 -0.9316  0.4019 -0.2823
   15ccc     O4  461   7.372   4.768   2.956 -0.3821  0.0010  0.0619
   15ccc     O5  462   7.358   4.563   3.014  0.0834 -0.3136  0.1619
   15ccc     O1  463   7.427   4.261   2.412  0.3601  0.0217  0.2307
   16ccc     C3  464   7.302   4.783   1.845 -0.6801 -0.2890 -1.1172
   16ccc     H5  465   7.339   4.883   1.819  2.0892 -0.8391  0.2980
   16ccc     H6  466   7.222   4.793   1.919  0.2861 -1.2650  0.0924
   16ccc     C2  467   7.427   4.699   1.901  0.1408  0.5714 -0.3796
   16ccc     H3  468   7.388   4.612   1.954  0.3994 -0.2593 -1.5202
   16ccc     H4  469   7.486   4.755   1.974  1.8111 -0.9782 -0.4581
   16ccc     C1  470   7.528   4.658   1.797 -0.2129  0.0605 -0.1439
   16ccc     H1  471   7.557   4.744   1.735  0.3524  0.1937  0.2953
   16ccc     H2  472   7.475   4.595   1.726 -0.0400  0.7317 -0.8862
   16ccc     N1  473   7.641   4.580   1.847 -0.2889 -0.6080  0.2609
   16ccc     C4  474   7.744   4.662   1.902 -1.2032  0.0079 -0.2019
   16ccc     H7  475   7.695   4.741   1.960 -0.4585  1.6114 -1.6783
   16ccc     H8  476   7.801   4.713   1.824  1.3236 -3.4975 -0.8665
   16ccc     C5  477   7.832   4.583   1.999  0.0431  0.3359  0.0819
   16ccc     H9  478   7.780   4.526   2.077  0.1322  0.0187 -0.0902
   16ccc    H10  479   7.886   4.507   1.941 -1.8172 -0.8797 -0.1335
   16ccc     C6  480   7.929   4.671   2.069  0.0251 -0.4332 -0.6780
   16ccc     O2  481   7.906   4.728   2.178 -0.3750 -0.1380 -0.4956
   16ccc     O3  482   8.048   4.652   2.047 -0.2174 -0.0729 -0.1821
   16ccc     C7  483   7.690   4.495   1.747 -0.6895 -0.4941 -0.2613
   16ccc    H11  484   7.726   4.562   1.668  0.5298 -0.2730  0.4487
   16ccc    H12  485   7.779   4.440   1.779 -0.9193  0.2853  1.9291
   16ccc     C8  486   7.597   4.386   1.690  0.3260 -0.8370  0.5073
   16ccc    H13  487   7.508   4.381   1.754 -1.3710 -0.0595 -1.6725
   16ccc    H14  488   7.566   4.414   1.588  0.6478  1.9026  1.0909
   16ccc     C9  489   7.657   4.249   1.695 -0.5484 -0.4493 -0.5462
   16ccc     O4  490   7.639   4.170   1.607 -0.3554 -0.2613 -0.1029
   16ccc     O5  491   7.704   4.202   1.799 -0.0302 -0.6336  0.4025
   16ccc     O1  492   7.265   4.718   1.727 -0.0475 -0.1483 -0.2103
   17ccc     C3  493   7.807   4.459   1.330  0.3268  0.2898  0.9959
   17ccc     H5  494   7.794   4.352   1.310  0.0013  0.8161 -2.0795
   17ccc     H6  495   7.858   4.488   1.237 -0.1180 -1.3711  0.2008
   17ccc     C2  496   7.893   4.467   1.457  0.5538  0.0074 -0.3349
   17ccc     H3  497   7.835   4.426   1.541  1.7070  0.6030  0.7829
   17ccc     H4  498   7.903   4.573   1.480  0.4280 -0.5029  2.4534
   17ccc     C1  499   8.028   4.390   1.451  1.0161 -0.1113  0.6006
   17ccc     H1  500   8.097   4.437   1.380  0.3903 -0.1958 -0.0802
   17ccc     H2  501   8.011   4.289   1.412 -0.8533 -0.7295  2.7967
   17ccc     N1  502   8.098   4.381   1.580  0.1939  0.2679  0.0755
   17ccc     C4  503   8.040   4.271   1.661  0.4688 -0.3222  0.0638
   17ccc     H7  504   7.935   4.264   1.628  0.1296  0.4916  0.8996
   17ccc     H8  505   8.036   4.295   1.768  0.7945  0.1784 -0.0321
   17ccc     C5  506   8.100   4.133   1.629 -0.0982 -0.8015 -0.4099
   17ccc     H9  507   8.085   4.104   1.524 -0.5330  1.6012 -1.0665
   17ccc    H10  508   8.208   4.133   1.653 -0.2781  1.0808  0.6164
   17ccc     C6  509   8.032   4.035   1.712  0.4124  0.4353  0.3979
   17ccc     O2  510   8.077   4.011   1.818 -0.2512  0.5177 -0.0311
   17ccc     O3  511   7.930   3.974   1.686  0.0504 -0.3765 -0.1035
   17ccc     C7  512   8.126   4.512   1.650  0.9020 -0.0344  0.2843
   17ccc    H11  513   8.027   4.557   1.662  0.0137 -1.3246 -1.7239
   17ccc    H12  514   8.171   4.489   1.747  2.5012 -2.9023 -1.0001
   17ccc     C8  515   8.224   4.605   1.567 -0.0810  0.6830  0.0017
   17ccc    H13  516   8.314   4.550   1.536 -0.6328 -0.7311  0.8271
   17ccc    H14  517   8.171   4.634   1.476 -0.2471 -1.3095 -0.5831
   17ccc     C9  518   8.275   4.726   1.649 -0.5278 -0.5366 -0.0857
   17ccc     O4  519   8.291   4.832   1.591  0.5622  0.6000 -0.0407
   17ccc     O5  520   8.262   4.734   1.769  0.4026 -0.0741 -0.3088
   17ccc     O1  521   7.689   4.542   1.348 -0.0953  0.3114  0.0661
   18ccc     C3  522   7.360   5.160   2.003 -0.3430  0.4641 -0.1809
   18ccc     H5  523   7.342   5.160   1.895 -1.4494 -1.1365 -0.0222
   18ccc     H6  524   7.365   5.264   2.038  1.0425  0.0700  0.8835
   18ccc     C2  525   7.489   5.076   2.020 -0.0049 -0.2757 -0.1676
   18ccc     H3  526   7.479   4.967   2.030 -0.3565 -0.2246  0.0464
   18ccc     H4  527   7.533   5.104   2.117  2.9062 -0.1019 -1.4425
   18ccc     C1  528   7.592   5.123   1.915 -0.0922  0.2815 -0.1840
   18ccc     H1  529   7.617   5.229   1.919 -0.8185  0.4444  0.3381
   18ccc     H2  530   7.550   5.097   1.817 -0.3964  0.0308  0.0100
   18ccc     N1  531   7.721   5.056   1.928 -0.0632 -0.2371  0.0993
   18ccc     C4  532   7.775   5.035   2.060 -0.4572 -0.4170  0.5078
   18ccc     H7  533   7.854   4.960   2.070  0.2317  0.4504  1.8089
   18ccc     H8  534   7.694   5.001   2.125  0.9615 -1.4368  1.8063
   18ccc     C5  535   7.819   5.166   2.136  0.1843 -0.1195  0.0016
   18ccc     H9  536   7.892   5.216   2.071 -1.7710 -1.8426 -3.8311
   18ccc    H10  537   7.729   5.229   2.141 -0.6812 -1.3178 -0.0081
   18ccc     C6  538   7.860   5.118   2.274 -0.4346  0.3090  0.5639
   18ccc     O2  539   7.788   5.138   2.368 -0.3937  0.1212 -0.3353
   18ccc     O3  540   7.959   5.047   2.283 -0.4565  0.1174  0.1193
   18ccc     C7  541   7.814   5.098   1.824  0.3328  0.9201 -0.0514
   18ccc    H11  542   7.754   5.089   1.733  1.3314 -1.2048 -0.5460
   18ccc    H12  543   7.843   5.203   1.839  1.5662  1.0030 -2.5915
   18ccc     C8  544   7.932   4.992   1.818  0.3849  0.3063  0.1584
   18ccc    H13  545   7.983   4.993   1.915  1.0471  0.9144 -0.1884
   18ccc    H14  546   7.886   4.896   1.792 -0.7328  1.3948 -2.1428
   18ccc     C9  547   8.026   5.038   1.712  0.2942 -0.7396 -0.2690
   18ccc     O4  548   8.139   5.078   1.738  0.4583  0.0607 -0.3557
   18ccc     O5  549   8.005   5.003   1.601  0.2114  0.5297 -0.3206
   18ccc     O1  550   7.254   5.084   2.060 -0.0519 -0.0322  0.0607
   19ccc     C3  551   6.762   4.692   2.612  0.1589  0.0589  0.3035
   19ccc     H5  552   6.677   4.627   2.636  0.4864 -0.6660 -0.4422
   19ccc     H6  553   6.841   4.616   2.602  1.4346  1.1294  1.7286
   19ccc     C2  554   6.794   4.800   2.717  0.3600 -0.0887 -0.1390
   19ccc     H3  555   6.879   4.853   2.674 -0.7993 -0.0399 -2.5220
   19ccc     H4  556   6.821   4.748   2.810  0.3685 -0.0461 -0.1181
   19ccc     C1  557   6.673   4.890   2.742 -0.5017 -0.3685  0.1758
   19ccc     H1  558   6.598   4.819   2.779 -1.0887  0.4492  0.6041
   19ccc     H2  559   6.630   4.930   2.649  1.8789  0.3910 -0.6755
   19ccc     N1  560   6.687   4.998   2.843 -0.5926 -0.1988  0.1919
   19ccc     C4  561   6.746   4.943   2.971  0.6367  0.2453  0.2666
   19ccc     H7  562   6.842   4.893   2.951 -0.1718 -0.7948 -1.1840
   19ccc     H8  563   6.673   4.871   3.010 -0.2316 -0.3010 -2.1769
   19ccc     C5  564   6.759   5.062   3.068  0.5889  0.2672 -0.6206
   19ccc     H9  565   6.837   5.127   3.028  0.8568 -0.4646 -1.3195
   19ccc    H10  566   6.669   5.121   3.086 -0.3276 -1.0892 -0.5852
   19ccc     C6  567   6.812   5.022   3.201 -0.7112  0.4707 -0.3169
   19ccc     O2  568   6.902   4.938   3.205  0.0710 -0.6682 -0.1765
   19ccc     O3  569   6.736   5.023   3.291  0.5044 -0.1760 -0.5607
   19ccc     C7  570   6.559   5.073   2.849  0.1407  0.5652  0.2671
   19ccc    H11  571   6.576   5.164   2.908 -0.7426  0.8623  0.0728
   19ccc    H12  572   6.525   5.110   2.751  0.8787 -0.5183 -0.4194
   19ccc     C8  573   6.441   4.989   2.910 -0.2613  0.0133  0.4826
   19ccc    H13  574   6.408   4.928   2.825  0.6306  1.1617 -0.7029
   19ccc    H14  575   6.466   4.930   2.999 -0.4750 -1.0794 -0.1676
   19ccc     C9  576   6.336   5.089   2.946 -0.0523  0.1357 -0.0638
   19ccc     O4  577   6.279   5.070   3.052 -0.0536 -0.1426 -0.4921
   19ccc     O5  578   6.295   5.174   2.871  0.0548 -0.3721 -0.4944
   19ccc     O1  579   6.733   4.770   2.493 -0.1859 -0.6829 -0.0898
   20ccc     C3  580   6.321   5.527   1.965  0.0546 -0.2678  0.2056
   20ccc     H5  581   6.241   5.484   2.025 -1.1214 -1.1238 -1.8683
   20ccc     H6  582   6.307   5.636   1.960  0.6116 -0.2388 -1.6426
   20ccc     C2  583   6.337   5.457   1.828 -1.0152 -0.0715  0.4161
   20ccc     H3  584   6.239   5.423   1.790  0.0820 -1.8083 -1.0101
   20ccc     H4  585   6.395   5.364   1.830 -1.6384 -0.5119 -0.8343
   20ccc     C1  586   6.394   5.555   1.726 -0.1630 -0.4679  0.5714
   20ccc     H1  587   6.490   5.582   1.772 -0.3831 -0.5520  1.0979
   20ccc     H2  588   6.343   5.652   1.722  0.7160 -0.0175 -3.5173
   20ccc     N1  589   6.412   5.506   1.586  0.2100  0.1042 -0.4431
   20ccc     C4  590   6.515   5.409   1.558 -1.0890  0.3783 -0.6561
   20ccc     H7  591   6.523   5.388   1.451 -0.0035  0.7866 -0.6658
   20ccc     H8  592   6.485   5.316   1.608 -0.1475  0.6560  0.4487
   20ccc     C5  593   6.653   5.459   1.609  1.0394 -0.0911  0.4988
   20ccc     H9  594   6.666   5.564   1.579 -1.6104 -0.1989 -1.3369
   20ccc    H10  595   6.661   5.450   1.718  0.4963  0.7834  0.6212
   20ccc     C6  596   6.764   5.385   1.540  0.4168 -0.2366 -0.9832
   20ccc     O2  597   6.871   5.375   1.593 -0.5397 -0.0225 -0.1769
   20ccc     O3  598   6.743   5.349   1.431 -0.7297  0.2197  0.3326
   20ccc     C7  599   6.284   5.468   1.517 -0.3400  0.1728 -0.2363
   20ccc    H11  600   6.316   5.457   1.413  1.2243 -0.6914  0.2951
   20ccc    H12  601   6.245   5.369   1.545  0.5357 -0.6668 -1.8062
   20ccc     C8  602   6.183   5.578   1.505  0.4438 -0.4455 -0.2283
   20ccc    H13  603   6.139   5.594   1.605  1.5295 -1.2555  0.3972
   20ccc    H14  604   6.222   5.671   1.462 -3.3920  1.3474 -0.2521
   20ccc     C9  605   6.062   5.529   1.421 -0.3706  0.8299 -0.8644
   20ccc     O4  606   6.081   5.506   1.306 -0.2341  0.5784 -0.2830
   20ccc     O5  607   5.956   5.497   1.467 -0.1643 -0.1583  0.2904
   20ccc     O1  608   6.443   5.500   2.023  0.4148  0.1298 -0.0899
   21ccc     C3  609   7.097   5.121   2.526 -0.0946 -0.1984  0.0334
   21ccc     H5  610   7.094   5.145   2.419  1.3074 -0.7160 -0.1425
   21ccc     H6  611   7.143   5.205   2.579  1.3367 -0.4106 -0.8085
   21ccc     C2  612   7.199   5.003   2.535  0.6968 -0.5337  0.2014
   21ccc     H3  613   7.200   4.962   2.637  1.7610  0.0159  0.4234
   21ccc     H4  614   7.300   5.033   2.505  1.1124 -0.7979  1.2671
   21ccc     C1  615   7.147   4.882   2.444  0.3816 -0.1054 -0.5963
   21ccc     H1  616   7.155   4.918   2.341  0.4341  1.0499 -0.2084
   21ccc     H2  617   7.041   4.870   2.471  0.8538 -2.1217  0.5562
   21ccc     N1  618   7.204   4.753   2.463 -0.3269 -0.1678 -0.4190
   21ccc     C4  619   7.345   4.743   2.427 -0.0066  0.2364 -0.3530
   21ccc     H7  620   7.381   4.640   2.431  1.7833  0.8032 -0.7378
   21ccc     H8  621   7.405   4.798   2.500  1.9864 -0.9558 -1.0242
   21ccc     C5  622   7.372   4.785   2.284  0.1489  0.5629  0.3718
   21ccc     H9  623   7.336   4.709   2.213 -0.3957  1.6580 -0.5685
   21ccc    H10  624   7.327   4.881   2.255 -1.5179 -0.0554  0.8165
   21ccc     C6  625   7.517   4.795   2.261  0.2401 -0.6813  0.1419
   21ccc     O2  626   7.589   4.879   2.312  0.0938 -0.3132 -0.4153
   21ccc     O3  627   7.573   4.705   2.207  0.8209 -0.0267 -0.4663
   21ccc     C7  628   7.161   4.699   2.593  0.0923 -0.4980 -0.0313
   21ccc    H11  629   7.217   4.736   2.681  0.2727  0.6647 -0.6166
   21ccc    H12  630   7.056   4.721   2.616  0.0720  0.4840 -1.0324
   21ccc     C8  631   7.175   4.544   2.596  0.1945 -0.0644  0.1472
   21ccc    H13  632   7.091   4.509   2.533 -0.5866  1.8222  0.0609
   21ccc    H14  633   7.271   4.507   2.560  0.2938 -1.7915  2.0379
   21ccc     C9  634   7.157   4.483   2.733 -0.0270 -0.1871 -0.1843
   21ccc     O4  635   7.188   4.365   2.748  0.1381 -0.2562 -0.4139
   21ccc     O5  636   7.151   4.554   2.830  0.0169 -0.5594  0.0556
   21ccc     O1  637   6.971   5.078   2.582  1.1112 -0.0110 -0.1868
   22ccc     C3  638   5.970   4.003   3.518  0.1437 -0.4272 -0.3682
   22ccc     H5  639   6.010   3.944   3.601  0.1740  0.0171 -0.0624
   22ccc     H6  640   5.892   4.067   3.561  0.2908 -2.5112  3.4865
   22ccc     C2  641   5.908   3.913   3.418  0.8348  0.4156  0.5386
   22ccc     H3  642   5.982   3.878   3.345 -2.6809 -1.2047 -2.5428
   22ccc     H4  643   5.832   3.973   3.367 -1.8944 -2.6780  0.6495
   22ccc     C1  644   5.840   3.798   3.491  0.9210  0.4057  0.2720
   22ccc     H1  645   5.772   3.851   3.560  1.3020  0.7112  0.4209
   22ccc     H2  646   5.920   3.750   3.549  0.9116 -0.2774 -0.2760
   22ccc     N1  647   5.769   3.702   3.404 -0.3890  0.0472  0.1812
   22ccc     C4  648   5.672   3.751   3.315 -0.5900  0.4820 -0.5612
   22ccc     H7  649   5.626   3.668   3.260 -3.9582  1.2830  0.7872
   22ccc     H8  650   5.710   3.829   3.248 -1.1234  1.8827  0.7326
   22ccc     C5  651   5.557   3.806   3.398  0.1530  0.1508  0.6237
   22ccc     H9  652   5.516   3.718   3.449 -0.0602 -0.2042 -0.1445
   22ccc    H10  653   5.582   3.876   3.478 -1.0129  1.1359  0.1691
   22ccc     C6  654   5.447   3.872   3.310 -1.1577  1.0760 -0.4485
   22ccc     O2  655   5.373   3.799   3.243 -0.4366 -0.6547 -0.0514
   22ccc     O3  656   5.405   3.984   3.332 -0.0010 -0.0701 -0.1037
   22ccc     C7  657   5.860   3.616   3.318  0.5531  0.4782 -0.5639
   22ccc    H11  658   5.795   3.563   3.248  1.1265  0.9093 -1.4289
   22ccc    H12  659   5.922   3.675   3.250  0.5027 -0.6239 -1.6028
   22ccc     C8  660   5.948   3.522   3.395 -0.2846  0.0427  0.0962
   22ccc    H13  661   5.988   3.557   3.492  0.6003 -2.0362  0.5227
   22ccc    H14  662   5.890   3.433   3.423  0.3775  0.0881  1.7679
   22ccc     C9  663   6.057   3.479   3.298 -0.3109  0.2419  0.6839
   22ccc     O4  664   6.042   3.397   3.210 -0.1194  0.1131  0.3080
   22ccc     O5  665   6.170   3.517   3.322  0.0677 -0.1149 -0.0615
   22ccc     O1  666   6.075   4.076   3.448  0.5596 -0.3148  0.0149
   23ccc     C3  667   6.768   3.922   2.952  0.4945  0.0771  0.3388
   23ccc     H5  668   6.818   3.992   2.884 -1.4292 -0.3548 -1.6330
   23ccc     H6  669   6.852   3.890   3.015  2.1255  1.7635 -0.8600
   23ccc     C2  670   6.713   3.800   2.870  0.0767  0.2444  0.7511
   23ccc     H3  671   6.687   3.719   2.939  0.0828 -0.6290 -0.2499
   23ccc     H4  672   6.797   3.768   2.808 -1.2204 -1.6615 -0.1106
   23ccc     C1  673   6.596   3.840   2.780  0.0233  0.2237 -0.5095
   23ccc     H1  674   6.626   3.924   2.715 -1.5046  0.4520 -0.9609
   23ccc     H2  675   6.515   3.878   2.843 -1.6242 -0.1927 -2.2542
   23ccc     N1  676   6.533   3.730   2.704 -0.0606 -0.1929  0.2804
   23ccc     C4  677   6.619   3.668   2.604  0.4944  0.7683  0.0176
   23ccc     H7  678   6.556   3.592   2.555 -0.8377  2.4662 -0.9831
   23ccc     H8  679   6.698   3.606   2.649  0.7385  1.0416 -0.0343
   23ccc     C5  680   6.667   3.768   2.497 -0.3669  0.8238  0.4721
   23ccc     H9  681   6.589   3.833   2.456  1.0435  1.6298 -1.0509
   23ccc    H10  682   6.737   3.839   2.543 -0.9572  1.0797  0.9859
   23ccc     C6  683   6.741   3.701   2.385 -0.2262 -0.3812  0.0622
   23ccc     O2  684   6.861   3.706   2.369  0.2371 -0.4278  0.3102
   23ccc     O3  685   6.670   3.661   2.294 -0.4409 -0.3554 -0.3169
   23ccc     C7  686   6.476   3.623   2.790  0.2832  0.0873  0.2269
   23ccc    H11  687   6.436   3.539   2.731 -0.8999  1.3814 -0.9105
   23ccc    H12  688   6.564   3.583   2.841 -0.0771  0.9275  1.5715
   23ccc     C8  689   6.369   3.664   2.891  0.1770  0.0639 -0.2434
   23ccc    H13  690   6.417   3.742   2.951 -1.3069  0.9828 -0.1805
   23ccc    H14  691   6.277   3.707   2.848 -0.3878 -0.8508  0.0155
   23ccc     C9  692   6.327   3.567   2.992  0.8469 -0.5702 -1.0473
   23ccc     O4  693   6.361   3.572   3.111  0.9736  0.1204  0.5210
   23ccc     O5  694   6.269   3.472   2.958 -0.1966 -0.4975 -0.0156
   23ccc     O1  695   6.669   3.981   3.035  0.7867  0.0697 -0.3941
   24ccc     C3  696   6.162   3.747   1.699  0.0925  0.6532 -0.1576
   24ccc     H5  697   6.206   3.728   1.600  2.2650  0.8174  0.7338
   24ccc     H6  698   6.179   3.652   1.752 -0.4948  1.2909  1.2028
   24ccc     C2  699   6.018   3.798   1.702 -0.5173  0.0662  0.2396
   24ccc     H3  700   6.008   3.899   1.662  0.4691 -0.4714 -1.4504
   24ccc     H4  701   5.983   3.798   1.806  1.4927 -0.4213  0.9560
   24ccc     C1  702   5.922   3.706   1.620  0.9191  0.0993  0.2830
   24ccc     H1  703   5.926   3.599   1.645  1.7250  0.0638  0.0366
   24ccc     H2  704   5.943   3.720   1.513 -0.4346  0.4759  0.0347
   24ccc     N1  705   5.778   3.755   1.631  0.5909  0.5160 -0.7292
   24ccc     C4  706   5.726   3.751   1.778 -0.4740 -0.2184 -0.3339
   24ccc     H7  707   5.627   3.797   1.785  0.1824  1.1057  0.7728
   24ccc     H8  708   5.781   3.826   1.836 -0.5705  0.9897 -1.7477
   24ccc     C5  709   5.746   3.612   1.846 -0.2445 -1.0573 -0.1796
   24ccc     H9  710   5.688   3.531   1.800 -1.1644 -0.5313  0.0360
   24ccc    H10  711   5.855   3.599   1.848  0.1885  1.3156 -2.6578
   24ccc     C6  712   5.693   3.627   1.989 -0.2519  0.4312  0.0305
   24ccc     O2  713   5.598   3.559   2.027  0.5065 -0.5055  0.5253
   24ccc     O3  714   5.756   3.695   2.075  0.2501 -0.2300  0.2185
   24ccc     C7  715   5.698   3.703   1.526 -0.1235  0.1931  0.9206
   24ccc    H11  716   5.736   3.715   1.424 -2.2745 -0.8818 -0.0847
   24ccc    H12  717   5.686   3.594   1.536 -2.9753  0.4850  1.5998
   24ccc     C8  718   5.562   3.766   1.519  0.2051 -0.6982 -0.2888
   24ccc    H13  719   5.495   3.745   1.603 -1.1152  1.1028 -0.8347
   24ccc    H14  720   5.568   3.875   1.524  1.7267 -0.8220  2.0657
   24ccc     C9  721   5.491   3.716   1.396  0.5446  0.0410 -0.2496
   24ccc     O4  722   5.435   3.605   1.401 -0.2139  0.1857 -0.2698
   24ccc     O5  723   5.483   3.783   1.300  0.0347 -0.0814 -0.3202
   24ccc     O1  724   6.238   3.846   1.775 -0.4836 -0.4295  0.6314
   25ccc     C3  725   7.173   4.218   1.725 -0.3033  0.1627 -0.0150
   25ccc     H5  726   7.208   4.260   1.631 -0.7375  1.8780  0.5532
   25ccc     H6  727   7.192   4.292   1.803  2.7229  1.8015 -2.1082
   25ccc     C2  728   7.244   4.087   1.763 -0.4093  0.1887 -0.2665
   25ccc     H3  729   7.351   4.106   1.752  0.1226 -2.4981 -0.6001
   25ccc     H4  730   7.212   4.010   1.691 -1.1848 -1.7757  2.0259
   25ccc     C1  731   7.208   4.027   1.905 -0.4883 -0.2388 -0.4164
   25ccc     H1  732   7.100   4.017   1.919 -0.4709 -2.9312 -1.6600
   25ccc     H2  733   7.247   4.101   1.977 -1.5049 -1.0572  1.0280
   25ccc     N1  734   7.285   3.903   1.932 -0.8044  0.3105 -0.1826
   25ccc     C4  735   7.231   3.823   2.050  0.5329  0.1794 -0.0677
   25ccc     H7  736   7.179   3.890   2.120 -0.6566 -0.7966  0.0063
   25ccc     H8  737   7.315   3.772   2.100  1.1320 -0.8385 -2.0257
   25ccc     C5  738   7.138   3.714   1.994  0.1151 -0.5776 -0.2796
   25ccc     H9  739   7.064   3.759   1.926  0.0109  1.4813  1.1015
   25ccc    H10  740   7.190   3.629   1.949 -1.8983 -2.5653  0.9211
   25ccc     C6  741   7.075   3.650   2.112  0.1833 -0.4218  0.5192
   25ccc     O2  742   7.131   3.597   2.207 -0.9595  0.3109  0.4231
   25ccc     O3  743   6.955   3.636   2.102 -0.5147  0.5409 -0.3579
   25ccc     C7  744   7.422   3.939   1.963 -0.9898 -0.7165  0.5639
   25ccc    H11  745   7.446   4.028   1.904 -3.1704 -1.9486 -2.4242
   25ccc    H12  746   7.430   3.964   2.070  0.1592 -1.8381  0.7643
   25ccc     C8  747   7.518   3.821   1.935 -0.4112 -0.0006 -0.1405
   25ccc    H13  748   7.492   3.732   1.993 -0.7167  0.6534  0.7557
   25ccc    H14  749   7.539   3.806   1.829  0.1689  0.8432 -0.1541
   25ccc     C9  750   7.650   3.861   1.981  0.4611  0.2438 -0.3381
   25ccc     O4  751   7.680   3.868   2.100 -0.2888 -0.2179  0.0406
   25ccc     O5  752   7.737   3.892   1.900 -0.7160 -0.4918  0.0737
   25ccc     O1  753   7.031   4.186   1.726 -0.1370 -0.0411 -1.0587
   26ccc     C3  754   5.235   4.396   1.961  0.0860  0.6097 -0.2570
   26ccc     H5  755   5.318   4.356   2.021 -1.0139 -0.1014  0.8423
   26ccc     H6  756   5.153   4.428   2.027 -0.1780 -1.1494  0.3173
   26ccc     C2  757   5.187   4.280   1.873  0.4220 -0.2964 -0.3310
   26ccc     H3  758   5.100   4.312   1.814 -1.8591  1.8324  3.7567
   26ccc     H4  759   5.139   4.207   1.939  1.5021 -0.5054  0.2460
   26ccc     C1  760   5.292   4.207   1.786  0.6919 -0.5232 -0.3018
   26ccc     H1  761   5.392   4.244   1.812  1.8321 -2.2289 -2.0291
   26ccc     H2  762   5.276   4.239   1.683  0.9442 -1.3935 -0.6161
   26ccc     N1  763   5.288   4.059   1.809  0.4192 -0.1864 -0.5981
   26ccc     C4  764   5.307   3.972   1.689  0.0579  0.3066  0.5353
   26ccc     H7  765   5.296   3.867   1.719 -0.7566  0.5571  1.1381
   26ccc     H8  766   5.406   3.985   1.644 -1.2696 -1.6906 -3.4553
   26ccc     C5  767   5.195   4.006   1.590 -0.2477  0.2537  0.3821
   26ccc     H9  768   5.105   3.980   1.647 -2.1325  2.6516 -1.2759
   26ccc    H10  769   5.184   4.113   1.565  2.2342  1.1031  2.4294
   26ccc     C6  770   5.199   3.922   1.471 -0.4367 -0.0543  1.1177
   26ccc     O2  771   5.222   3.980   1.365  0.1116 -0.0064  0.7419
   26ccc     O3  772   5.204   3.802   1.472  0.5282  0.2668 -0.4900
   26ccc     C7  773   5.351   4.020   1.936  0.4335 -0.3126  0.2840
   26ccc    H11  774   5.460   4.031   1.935  0.6327 -1.8830  1.2073
   26ccc    H12  775   5.321   4.095   2.010  3.4333  1.9906 -0.6736
   26ccc     C8  776   5.326   3.873   1.979  0.3818 -0.1379  0.1546
   26ccc    H13  777   5.221   3.844   1.966  0.7315 -0.9084 -1.2070
   26ccc    H14  778   5.379   3.809   1.907 -0.1920  0.4118 -0.7830
   26ccc     C9  779   5.372   3.847   2.115  0.2221  0.2112  0.6159
   26ccc     O4  780   5.301   3.853   2.217 -0.5068 -0.1708 -0.2010
   26ccc     O5  781   5.491   3.840   2.133 -0.4708 -0.3787  0.4954
   26ccc     O1  782   5.279   4.499   1.873  0.3542  0.0906  0.0849
   27ccc     C3  783   5.693   4.689   1.328 -0.6349 -0.2263  1.2081
   27ccc     H5  784   5.720   4.779   1.271 -1.7939 -0.8716 -0.4176
   27ccc     H6  785   5.789   4.643   1.351 -0.5296 -0.1212  0.9789
   27ccc     C2  786   5.599   4.590   1.247  0.8854 -0.0281 -0.0884
   27ccc     H3  787   5.514   4.646   1.206  1.2049 -0.1947 -1.0078
   27ccc     H4  788   5.560   4.519   1.322  0.7732 -0.8021 -0.8571
   27ccc     C1  789   5.682   4.513   1.138 -0.5205 -0.4391  0.0461
   27ccc     H1  790   5.752   4.455   1.199 -0.8366 -2.1202 -1.1255
   27ccc     H2  791   5.737   4.590   1.082 -0.3572 -0.0775  0.6972
   27ccc     N1  792   5.611   4.428   1.048 -0.7188  0.3626  0.2479
   27ccc     C4  793   5.522   4.328   1.116 -0.2541 -0.0914  0.8177
   27ccc     H7  794   5.455   4.376   1.188 -0.5561  0.9958 -0.1633
   27ccc     H8  795   5.584   4.255   1.170  0.9349  1.2758  1.3905
   27ccc     C5  796   5.427   4.263   1.009  0.3372 -0.6108  0.2115
   27ccc     H9  797   5.358   4.334   0.963 -0.6038 -0.8850  1.1562
   27ccc    H10  798   5.488   4.214   0.932 -0.1288 -0.5818 -0.1798
   27ccc     C6  799   5.334   4.165   1.071 -0.0388 -0.2420 -0.4787
   27ccc     O2  800   5.230   4.206   1.124  0.3384  0.9625  0.4069
   27ccc     O3  801   5.387   4.071   1.114 -0.3019 -0.0940 -0.3684
   27ccc     C7  802   5.697   4.358   0.947 -0.8273  0.3251  0.3022
   27ccc    H11  803   5.735   4.268   0.999 -0.7772  0.2167  0.0772
   27ccc    H12  804   5.644   4.321   0.858  0.2844 -1.6830  0.4069
   27ccc     C8  805   5.825   4.438   0.906 -0.0532  0.7730 -0.3451
   27ccc    H13  806   5.796   4.522   0.842 -1.1827  0.9196  0.3271
   27ccc    H14  807   5.893   4.467   0.987 -0.9102  0.0346  0.6717
   27ccc     C9  808   5.907   4.351   0.813  0.3357  0.1009 -0.0196
   27ccc     O4  809   5.994   4.276   0.852 -0.2373  0.5553 -0.5939
   27ccc     O5  810   5.885   4.357   0.692 -0.3868  0.7454  0.0255
   27ccc     O1  811   5.620   4.728   1.444 -0.6079 -0.3025 -1.0861
   28ccc     C3  812   5.785   4.019   2.961  0.1120  0.7454 -0.1368
   28ccc     H5  813   5.859   3.972   2.896 -0.8684  0.7308 -1.2856
   28ccc     H6  814   5.779   3.962   3.055 -1.6184  0.6996 -0.2461
   28ccc     C2  815   5.649   3.997   2.889 -0.4432 -0.0762 -0.1769
   28ccc     H3  816   5.627   4.058   2.800 -1.5043 -1.0929 -0.6443
   28ccc     H4  817   5.572   4.021   2.963 -1.2270  0.3781 -1.1143
   28ccc     C1  818   5.639   3.848   2.862  0.4277 -0.1561  0.0754
   28ccc     H1  819   5.537   3.831   2.823  0.8379 -0.0781 -1.0860
   28ccc     H2  820   5.642   3.795   2.957 -0.5639  2.8997  1.9434
   28ccc     N1  821   5.733   3.792   2.763 -0.2728 -0.7288 -0.6140
   28ccc     C4  822   5.754   3.651   2.788 -0.1572 -0.9682 -0.3199
   28ccc     H7  823   5.796   3.598   2.702 -1.9020 -0.5214 -1.5049
   28ccc     H8  824   5.656   3.604   2.802 -0.7851 -0.1502 -1.7895
   28ccc     C5  825   5.852   3.634   2.909 -0.6048 -0.2942  0.3142
   28ccc     H9  826   5.951   3.678   2.891 -0.9928  0.1343 -0.9068
   28ccc    H10  827   5.821   3.674   3.006  0.9306  1.6807  0.0551
   28ccc     C6  828   5.858   3.486   2.922 -0.4865  0.0267  0.2681
   28ccc     O2  829   5.965   3.430   2.912 -0.1496 -0.4882 -0.1648
   28ccc     O3  830   5.773   3.429   2.985 -0.3333  0.7877 -0.2143
   28ccc     C7  831   5.705   3.821   2.621  0.4507  0.2397 -0.1926
   28ccc    H11  832   5.625   3.759   2.579 -1.5858  0.4053  3.0743
   28ccc    H12  833   5.669   3.925   2.614 -0.3466  0.2304  2.6828
   28ccc     C8  834   5.822   3.809   2.526  0.6679 -0.4182 -0.1034
   28ccc    H13  835   5.889   3.895   2.533 -1.4376  1.2989  0.2559
   28ccc    H14  836   5.883   3.720   2.547  3.0299  1.3384  0.9207
   28ccc     C9  837   5.777   3.825   2.381 -0.5081 -0.0006 -0.6758
   28ccc     O4  838   5.854   3.836   2.287 -0.1869  0.4222 -0.1675
   28ccc     O5  839   5.662   3.822   2.345  0.6175 -0.1545 -0.4774
   28ccc     O1  840   5.802   4.158   2.986 -0.7665 -0.6346  0.4198
   29ccc     C3  841   5.447   4.633   2.664  0.1037  0.8351 -0.5395
   29ccc     H5  842   5.387   4.666   2.750 -0.0965 -1.3499  0.2201
   29ccc     H6  843   5.420   4.703   2.583 -2.2743 -1.4872 -1.9190
   29ccc     C2  844   5.393   4.488   2.622 -0.4386  0.4837  0.0722
   29ccc     H3  845   5.455   4.441   2.545  0.4313 -0.1122  1.1090
   29ccc     H4  846   5.290   4.498   2.585 -0.5318 -0.4218  0.0603
   29ccc     C1  847   5.402   4.390   2.753 -0.1503 -0.4729 -0.1638
   29ccc     H1  848   5.380   4.449   2.843  0.7239 -0.5342  0.1054
   29ccc     H2  849   5.509   4.364   2.755  0.2771  0.9234 -1.8271
   29ccc     N1  850   5.314   4.268   2.752 -0.1509 -0.5335 -0.4234
   29ccc     C4  851   5.326   4.206   2.888 -0.0221 -0.7788 -0.1603
   29ccc     H7  852   5.428   4.218   2.925 -0.0079 -2.6731  0.5055
   29ccc     H8  853   5.314   4.097   2.885 -1.3887 -0.6490  0.0155
   29ccc     C5  854   5.220   4.261   2.969  0.8218 -0.0076  0.1777
   29ccc     H9  855   5.247   4.353   3.022  2.0907 -0.6509  0.6957
   29ccc    H10  856   5.128   4.266   2.910 -0.1500  0.4349  1.6606
   29ccc     C6  857   5.188   4.154   3.076 -0.7798 -0.2610 -0.3073
   29ccc     O2  858   5.137   4.049   3.054 -0.1809 -0.3160  0.0808
   29ccc     O3  859   5.244   4.176   3.181 -0.0847 -0.3101  0.0137
   29ccc     C7  860   5.341   4.162   2.650  0.4411 -0.4265  0.9285
   29ccc    H11  861   5.319   4.217   2.558  1.1626 -3.5352 -1.2479
   29ccc    H12  862   5.448   4.141   2.650  1.3706  3.5348  1.9138
   29ccc     C8  863   5.246   4.042   2.664  0.1331 -0.0679 -0.4694
   29ccc    H13  864   5.286   3.970   2.736 -0.9927  1.1850  1.5073
   29ccc    H14  865   5.148   4.077   2.699  0.9063  0.6039  1.1374
   29ccc     C9  866   5.240   3.961   2.542 -0.2339 -0.4512 -0.2055
   29ccc     O4  867   5.330   3.890   2.502 -0.0926  1.0704  0.6391
   29ccc     O5  868   5.148   3.995   2.468 -0.3661  0.6151 -0.3357
   29ccc     O1  869   5.589   4.632   2.695  0.0867  0.0861 -0.6334
   30SOL     OW  870   3.703   4.695   2.520  0.3433  0.2680 -0.2856
   30SOL    HW1  871   3.748   4.778   2.503 -0.2017  0.3801 -1.2436
   30SOL    HW2  872   3.613   4.711   2.495  0.2616 -0.6714 -0.6412
   31SOL     OW  873   3.988   0.902   6.080 -0.2975 -0.3700 -0.4764
   31SOL    HW1  874   4.004   0.873   6.170  1.7634  0.5143 -0.4964
   31SOL    HW2  875   3.934   0.981   6.090  0.3693  0.0367  0.0570
   32SOL     OW  876   7.044   5.947   4.744 -0.0625  0.1795 -0.1069
   32SOL    HW1  877   7.060   5.854   4.761  2.2381  0.3019 -1.1463
   32SOL    HW2  878   7.122   5.991   4.778 -1.5905  1.9055  1.3753
   33SOL     OW  879   5.993   1.478   6.103  0.0906  0.0445  0.1283
   33SOL    HW1  880   5.943   1.488   6.021  0.2129  1.7816  0.2170
   33SOL    HW2  881   5.930   1.440   6.164 -1.1790  2.1040  0.2096
   34SOL     OW  882   0.349   5.051   1.945 -0.7479 -0.3237 -0.0802
   34SOL    HW1  883   0.418   5.109   1.976 -0.3463 -1.5703  1.5041
   34SOL    HW2  884   0.396   4.978   1.905 -1.2484  0.6305 -2.5915
   35SOL     OW  885   1.921   1.283   5.206  0.4665 -0.3299 -0.3805
   35SOL    HW1  886   1.899   1.343   5.134 -0.7914  1.5429  1.4477
   35SOL    HW2  887   1.841   1.231   5.219  0.5365 -0.3546 -0.0483
   36SOL     OW  888   7.692   5.646   5.172  0.4418 -0.3207 -0.1696
   36SOL    HW1  889   7.698   5.679   5.261 -2.7004  0.9942 -0.3166
   36SOL    HW2  890   7.691   5.724   5.117  0.7814 -1.0468 -1.2573
   37SOL     OW  891   8.280   2.335   0.804 -0.2769  0.3948 -0.6221
   37SOL    HW1  892   8.297   2.241   0.799  1.7252  0.7336 -1.0545
   37SOL    HW2  893   8.215   2.344   0.874 -0.1172 -1.2638 -0.2188
   38SOL     OW  894   3.024   7.675   7.276  0.2695  0.0441  0.0814
   38SOL    HW1  895   2.953   7.630   7.230 -0.1073  0.4984  0.2021
   38SOL    HW2  896   3.038   7.755   7.225  0.1978  0.3036  0.4628
   39SOL     OW  897   0.508   6.846   1.631  0.2161 -0.0836  0.5495
   39SOL    HW1  898   0.457   6.775   1.591 -1.0238  0.9313  0.2561
   39SOL    HW2  899   0.441   6.909   1.661  1.2875  1.0299  0.6668
   40SOL     OW  900   4.287   3.921   5.887  0.1953  0.4009 -0.5915
   40SOL    HW1  901   4.267   3.855   5.821  0.9812 -0.6294  0.1570
   40SOL    HW2  902   4.374   3.896   5.920 -0.6298  0.1878  1.6125
   41SOL     OW  903   5.898   3.062   3.821  0.1487 -0.1156  0.0685
   41SOL    HW1  904   5.971   3.109   3.780  0.4040  0.1578  0.8146
   41SOL    HW2  905   5.837   3.132   3.846 -1.2738 -0.4390 -2.1810
   42SOL     OW  906   2.261   6.887   5.604 -0.3325  0.2753  0.3143
   42SOL    HW1  907   2.347   6.922   5.583  0.0612 -1.5474 -1.4213
   42SOL    HW2  908   2.204   6.919   5.534 -0.5476 -0.3334  0.2025
   43SOL     OW  909   0.806   1.808   4.096  0.4462 -0.1399  0.1399
   43SOL    HW1  910   0.717   1.839   4.112  0.1927 -0.7940  0.0073
   43SOL    HW2  911   0.802   1.770   4.008  1.5005  2.2367 -1.0379
   44SOL     OW  912   1.647   6.865   1.639 -0.3686 -0.0734 -0.1791
   44SOL    HW1  913   1.696   6.882   1.559  0.3520 -2.5270 -0.3585
   44SOL    HW2  914   1.686   6.923   1.705  1.7568 -0.8200 -0.7061
   45SOL     OW  915   3.563   7.992   7.649 -0.1343  0.3067  0.4552
   45SOL    HW1  916   3.565   8.084   7.674 -0.5705  0.1926  0.9541
   45SOL    HW2  917   3.489   7.985   7.589  0.5016  0.4574 -0.3519
   46SOL     OW  918   7.055   6.364   7.585 -0.0885 -0.0996 -0.7985
   46SOL    HW1  919   7.054   6.459   7.587 -1.0995 -0.1172  0.0409
   46SOL    HW2  920   7.066   6.342   7.492  0.2298  0.8209 -0.9861
   47SOL     OW  921   1.733   6.177   1.701  0.0357  0.1362 -0.2985
   47SOL    HW1  922   1.674   6.239   1.659  0.9642 -1.0219 -3.5718
   47SOL    HW2  923   1.694   6.091   1.685 -0.1089 -0.3580  2.2682
   48SOL     OW  924   6.473   4.013   6.512 -0.1738  0.2433 -0.6067
   48SOL    HW1  925   6.483   4.067   6.590  1.6514 -0.6945 -0.1342
   48SOL    HW2  926   6.448   3.926   6.545  2.2309 -0.6118 -0.8519
   49SOL     OW  927   3.557   0.342   5.267 -0.3712  0.3560  0.2766
   49SOL    HW1  928   3.636   0.358   5.215 -1.2294  1.9197 -0.6370
   49SOL    HW2  929   3.544   0.423   5.316 -0.3930 -0.5728  1.8673
   50SOL     OW  930   1.109   3.606   3.744 -0.0192 -0.9476  0.2870
   50SOL    HW1  931   1.160   3.687   3.738  0.2478 -0.8005  3.1829
   50SOL    HW2  932   1.172   3.537   3.723  0.5632 -0.5579  0.6867
   51SOL     OW  933   6.423   7.028   7.467  0.1081  0.1937  0.6910
   51SOL    HW1  934   6.463   6.978   7.397 -1.6613 -0.2648 -0.0381
   51SOL    HW2  935   6.382   6.963   7.524 -1.4783  0.7222  0.2027
   52SOL     OW  936   2.838   6.750   2.023  0.1613 -0.0327  0.2212
   52SOL    HW1  937   2.752   6.762   2.065 -0.4382  0.9536 -1.1931
   52SOL    HW2  938   2.870   6.667   2.058 -2.7453 -2.0548 -1.4430
   53SOL     OW  939   4.075   7.760   3.204 -0.2362  0.0637  0.1746
   53SOL    HW1  940   4.105   7.693   3.144 -1.1303 -1.2943  1.1837
   53SOL    HW2  941   4.153   7.785   3.254  0.1562  0.0026 -0.4010
   54SOL     OW  942   1.602   4.553   6.766 -0.4646 -0.0491  0.4405
   54SOL    HW1  943   1.631   4.598   6.687 -1.4404 -1.9297 -1.0659
   54SOL    HW2  944   1.530   4.607   6.799 -0.3590  0.5057 -0.2116
   55SOL     OW  945   3.114   7.690   3.963 -0.1454  0.4994 -0.0375
   55SOL    HW1  946   3.202   7.724   3.946  0.2276  0.2782  1.3330
   55SOL    HW2  947   3.076   7.678   3.877  1.3184  0.2140 -0.6695
   56SOL     OW  948   1.894   0.213   1.969  0.2358 -0.3095  0.6994
   56SOL    HW1  949   1.883   0.119   1.954  0.2040 -0.2918  0.6069
   56SOL    HW2  950   1.805   0.246   1.980 -0.1500  0.2966 -2.8476
   57SOL     OW  951   2.774   6.199   5.489  0.3222 -0.9049 -0.1857
   57SOL    HW1  952   2.708   6.139   5.454 -1.0594 -0.2175  1.0965
   57SOL    HW2  953   2.747   6.214   5.580  1.5772  0.3450  0.0274
   58SOL     OW  954   2.245   8.033   3.455  0.4447  0.1633  0.0859
   58SOL    HW1  955   2.152   8.010   3.448 -0.3167  2.8960  0.1043
   58SOL    HW2  956   2.260   8.091   3.380  2.1102 -0.1218  0.1769
   59SOL     OW  957   3.089   1.588   6.352  0.0420 -0.1735  0.2553
   59SOL    HW1  958   3.036   1.636   6.289 -1.1620 -1.7751 -0.0301
   59SOL    HW2  959   3.099   1.648   6.426  0.3510  1.2351 -0.8735
   60SOL     OW  960   7.911   7.466   2.757 -0.0184 -0.1008 -0.4876
   60SOL    HW1  961   7.845   7.397   2.752 -0.4147  0.1860  0.4735
   60SOL    HW2  962   7.974   7.434   2.823 -0.3228  0.5355  0.1272
   61SOL     OW  963   3.976   4.161   0.131 -0.1966 -0.4231 -0.3524
   61SOL    HW1  964   3.938   4.134   0.214 -0.4742 -1.1218 -0.6948
   61SOL    HW2  965   3.905   4.207   0.086  0.1093  0.4189  0.0005
   62SOL     OW  966   6.588   6.521   1.305  0.4382  0.8666  0.7173
   62SOL    HW1  967   6.669   6.500   1.351 -0.4881 -0.0769  1.9733
   62SOL    HW2  968   6.610   6.509   1.212  1.0221 -2.2010  1.1400
   63SOL     OW  969   2.229   1.574   5.670  0.5053 -0.0745  0.0738
   63SOL    HW1  970   2.149   1.580   5.723  1.5561  0.7141  1.6367
   63SOL    HW2  971   2.229   1.484   5.638 -0.6128 -0.3151  0.6801
   64SOL     OW  972   6.775   1.592   3.806 -0.4493 -0.1116 -0.2161
   64SOL    HW1  973   6.746   1.591   3.715 -0.3093  1.2731 -0.2989
   64SOL    HW2  974   6.781   1.500   3.831 -0.7666 -0.4965 -1.5156
   65SOL     OW  975   4.161   7.716   6.613  0.0754  0.0095  0.0723
   65SOL    HW1  976   4.186   7.737   6.523 -0.1704 -0.3149 -0.0747
   65SOL    HW2  977   4.222   7.765   6.668  0.2981  0.1178 -0.2741
   66SOL     OW  978   4.726   2.381   7.449 -0.4037 -0.0619 -0.0799
   66SOL    HW1  979   4.654   2.393   7.511 -0.5029  0.6099 -0.3177
   66SOL    HW2  980   4.685   2.393   7.363  0.3962  2.6692 -0.1640
   67SOL     OW  981   5.985   0.359   2.986 -0.0337 -0.4008 -0.7968
   67SOL    HW1  982   6.020   0.372   2.898 -2.2396 -1.0847 -1.8396
   67SOL    HW2  983   5.969   0.265   2.993  0.9343 -0.4997  0.7091
   68SOL     OW  984   1.055   1.873   7.680  0.1985 -0.4624  0.2550
   68SOL    HW1  985   1.113   1.809   7.723 -1.3813  0.0931  3.5324
   68SOL    HW2  986   1.070   1.955   7.728 -0.8368  0.5786 -1.1164
   69SOL     OW  987   5.517   6.249   1.922 -0.2272  0.8595 -0.1907
   69SOL    HW1  988   5.579   6.299   1.870  0.3557 -0.2714 -0.6045
   69SOL    HW2  989   5.468   6.315   1.971  1.8330  1.7611  0.7558
   70SOL     OW  990   1.699   6.985   6.955 -0.5634  0.2169  0.4628
   70SOL    HW1  991   1.627   6.948   6.904  1.0740  0.5555 -2.2869
   70SOL    HW2  992   1.660   7.061   6.999 -2.0145  0.0873 -0.5098
   71SOL     OW  993   4.310   2.670   6.251 -0.4243  0.0732 -0.5362
   71SOL    HW1  994   4.251   2.628   6.188  0.4219  1.3597 -2.2418
   71SOL    HW2  995   4.252   2.709   6.316 -1.4482  0.7607 -1.8263
   72SOL     OW  996   0.495   5.219   6.158 -0.4877  0.2737  0.1683
   72SOL    HW1  997   0.503   5.128   6.188 -1.4293  0.9114  2.6630
   72SOL    HW2  998   0.531   5.270   6.231  0.6590  1.9102 -1.4780
   73SOL     OW  999   2.443   4.153   1.398  0.4243 -0.2416 -0.4012
   73SOL    HW1 1000   2.528   4.188   1.425  0.8661 -0.6096 -1.2732
   73SOL    HW2 1001   2.442   4.163   1.303  0.2694 -1.9339 -0.6015
   74SOL     OW 1002   7.758   3.144   3.660 -0.2025 -0.2684 -0.2578
   74SOL    HW1 1003   7.830   3.096   3.700  0.8326 -0.0863 -1.8236
   74SOL    HW2 1004   7.763   3.123   3.567 -1.1132  1.1066 -0.6624
   75SOL     OW 1005   6.696   2.693   1.330 -0.5956  0.6566 -0.3127
   75SOL    HW1 1006   6.616   2.740   1.350 -0.4492  0.6581  0.2760
   75SOL    HW2 1007   6.763   2.734   1.384 -0.5543 -0.5067  0.5647
   76SOL     OW 1008   3.087   7.221   8.107 -0.1568 -0.6848 -0.4225
   76SOL    HW1 1009   3.149   7.272   8.054  1.7921 -0.9073  1.4957
   76SOL    HW2 1010   3.106   7.130   8.084 -1.0641 -0.6934 -1.1581
   77SOL     OW 1011   7.343   1.816   7.580  0.1068 -0.8062  0.0535
   77SOL    HW1 1012   7.397   1.736   7.583  0.0704 -0.9226 -1.7044
   77SOL    HW2 1013   7.253   1.784   7.579  0.1013 -0.8428 -1.9138
   78SOL     OW 1014   0.157   2.961   7.851  0.2852 -0.5707 -0.5534
   78SOL    HW1 1015   0.157   3.032   7.786  1.2295 -1.5895 -1.7234
   78SOL    HW2 1016   0.074   2.915   7.835  0.5230 -0.8291 -1.0658
   79SOL     OW 1017   6.084   0.742   0.967 -0.0966  0.5577  0.0374
   79SOL    HW1 1018   6.162   0.686   0.968 -0.1807  0.4390  0.9728
   79SOL    HW2 1019   6.108   0.817   1.021 -0.7974  0.2655  0.7823
   80SOL     OW 1020   4.674   8.086   5.050 -0.2627  0.4466 -0.2340
   80SOL    HW1 1021   4.690   8.175   5.081 -1.0278  0.8989 -1.0897
   80SOL    HW2 1022   4.706   8.085   4.960 -0.8928  0.0591 -0.4607
   81SOL     OW 1023   4.368   5.679   4.893 -0.8043  0.0279 -0.0821
   81SOL    HW1 1024   4.416   5.629   4.828  0.9717 -1.5520  2.2600
   81SOL    HW2 1025   4.335   5.756   4.846  2.2831  0.1344 -2.3349
   82SOL     OW 1026   0.283   1.018   6.909  0.1041 -0.0117  0.7047
   82SOL    HW1 1027   0.339   1.046   6.837  0.7435  0.1938  1.2666
   82SOL    HW2 1028   0.252   1.101   6.948  0.0400 -0.1143  0.8735
   83SOL     OW 1029   2.117   8.322   0.286 -0.5517 -0.3639 -0.3987
   83SOL    HW1 1030   2.184   8.330   0.353 -1.2915 -2.8103  0.7448
   83SOL    HW2 1031   2.110   8.410   0.248  1.5758  0.5088  1.0626
   84SOL     OW 1032   6.738   0.772   6.946  1.0822 -0.0262  0.0579
   84SOL    HW1 1033   6.753   0.677   6.945 -1.4095 -0.5079 -1.0553
   84SOL    HW2 1034   6.691   0.788   7.028  2.9124  0.5727  1.0367
   85SOL     OW 1035   5.638   7.977   4.553 -0.3065 -0.4291 -0.1155
   85SOL    HW1 1036   5.554   8.007   4.585 -1.1622 -1.4717 -1.2796
   85SOL    HW2 1037   5.657   7.898   4.605  0.1827  0.0574  0.4565
   86SOL     OW 1038   1.845   8.112   5.968  0.3915  0.1699  0.1294
   86SOL    HW1 1039   1.755   8.130   5.939  1.2008  0.6928 -2.2999
   86SOL    HW2 1040   1.849   8.148   6.056 -2.1070 -0.9638  0.7954
   87SOL     OW 1041   3.892   3.579   5.818 -0.3597  0.5031  0.1317
   87SOL    HW1 1042   3.908   3.562   5.725 -0.3856 -0.0240  0.2213
   87SOL    HW2 1043   3.811   3.630   5.819 -0.3735  0.4880 -0.1351
   88SOL     OW 1044   6.737   0.187   1.404 -0.1876  0.4959  0.0683
   88SOL    HW1 1045   6.649   0.158   1.383 -0.1260 -0.7468  1.4147
   88SOL    HW2 1046   6.793   0.111   1.386  0.2632  0.4235  1.5918
   89SOL     OW 1047   6.525   5.624   0.957  0.1781  0.0869 -0.4775
   89SOL    HW1 1048   6.575   5.581   0.887  2.0084  2.0796 -0.4716
   89SOL    HW2 1049   6.525   5.716   0.934 -1.1438  0.5019  1.0083
   90SOL     OW 1050   8.230   5.454   4.091 -0.3618 -0.0945  0.4439
   90SOL    HW1 1051   8.166   5.390   4.124 -2.4145  0.1654 -2.5582
   90SOL    HW2 1052   8.298   5.401   4.051 -0.2619 -0.3820  0.9829
   91SOL     OW 1053   5.535   2.009   4.069 -0.0285 -0.1897  0.1575
   91SOL    HW1 1054   5.511   1.936   4.013 -0.2832 -0.6165  0.8111
   91SOL    HW2 1055   5.452   2.040   4.105  0.1754 -0.2116  0.6524
   92SOL     OW 1056   2.898   4.312   5.371 -0.0286  0.4149 -0.4147
   92SOL    HW1 1057   2.984   4.270   5.365  0.7885  1.9678 -0.0762
   92SOL    HW2 1058   2.917   4.402   5.399 -1.8198  0.5793  0.4074
   93SOL     OW 1059   3.719   3.348   3.435 -0.0238 -0.0392 -0.3675
   93SOL    HW1 1060   3.780   3.287   3.394  2.0356  0.4659  1.7362
   93SOL    HW2 1061   3.774   3.407   3.486 -2.0994  2.2790 -0.6146
   94SOL     OW 1062   8.156   0.773   8.236 -0.2763  0.2288  0.4555
   94SOL    HW1 1063   8.079   0.769   8.293 -0.6540 -0.0396 -0.0751
   94SOL    HW2 1064   8.183   0.682   8.224 -0.7975  0.1985 -0.6020
   95SOL     OW 1065   3.839   2.407   6.378  0.1721  0.2059 -0.4703
   95SOL    HW1 1066   3.747   2.383   6.364 -0.7963  1.2243  2.9778
   95SOL    HW2 1067   3.849   2.491   6.334 -1.2436  1.0958  0.8034
   96SOL     OW 1068   6.547   3.284   2.901 -0.3499 -0.2254  0.2247
   96SOL    HW1 1069   6.559   3.346   2.974 -0.2759  0.3169 -0.2407
   96SOL    HW2 1070   6.553   3.198   2.942  0.7316  0.0600  0.6958
   97SOL     OW 1071   0.578   2.698   2.541 -0.7363  0.0828 -0.0459
   97SOL    HW1 1072   0.616   2.629   2.487 -0.7851 -1.9137  2.3014
   97SOL    HW2 1073   0.653   2.749   2.571 -0.3418 -0.9765  0.8124
   98SOL     OW 1074   0.140   0.139   3.126  0.1082  0.2430  0.4309
   98SOL    HW1 1075   0.068   0.136   3.189  1.0614  1.0613  1.5888
   98SOL    HW2 1076   0.108   0.194   3.055 -0.7407 -0.1582  0.4906
   99SOL     OW 1077   7.226   0.689   1.335 -0.0168  0.3255  0.3524
   99SOL    HW1 1078   7.169   0.619   1.368 -1.3113 -0.5503 -3.3118
   99SOL    HW2 1079   7.192   0.769   1.376 -1.3013 -0.6737  1.3090
  100SOL     OW 1080   0.573   7.129   1.160 -0.2434  0.6757  0.0869
  100SOL    HW1 1081   0.571   7.209   1.213 -1.1489  0.2797  0.6634
  100SOL    HW2 1082   0.488   7.126   1.118 -0.1675  0.0724 -0.0250
  101SOL     OW 1083   4.720   7.399   3.837  0.2124 -0.2889  0.5027
  101SOL    HW1 1084   4.630   7.366   3.839 -0.2790  1.0205  0.7087
  101SOL    HW2 1085   4.720   7.465   3.768  1.0923 -0.4535  0.3325
  102SOL     OW 1086   2.374   5.109   7.817 -0.5266  0.2078 -0.1028
  102SOL    HW1 1087   2.336   5.176   7.873  1.4787 -1.2240  3.2543
  102SOL    HW2 1088   2.420   5.159   7.749  0.8641  2.3331  2.2167
  103SOL     OW 1089   6.657   3.951   7.386 -0.6944  0.2365  0.0888
  103SOL    HW1 1090   6.584   3.990   7.433  0.3563  2.7225 -0.1620
  103SOL    HW2 1091   6.647   3.982   7.296 -0.1801 -0.6780 -0.2987
  104SOL     OW 1092   4.437   3.994   4.781  0.0611  0.4243 -0.5964
  104SOL    HW1 1093   4.434   3.916   4.837  0.5311  1.1756  0.5073
  104SOL    HW2 1094   4.370   3.978   4.715 -1.4527  0.0914  0.9464
  105SOL     OW 1095   2.221   0.421   3.218 -0.0838  0.7637  0.3993
  105SOL    HW1 1096   2.126   0.408   3.214 -0.0886  0.9137 -0.1041
  105SOL    HW2 1097   2.245   0.396   3.307 -0.5039  0.1015  0.3360
  106SOL     OW 1098   0.677   2.999   2.032  0.6884  0.4183  0.6903
  106SOL    HW1 1099   0.761   2.961   2.055  0.9783  1.0722  0.7177
  106SOL    HW2 1100   0.626   2.994   2.113  1.5751  2.3556  1.4242
  107SOL     OW 1101   4.846   7.347   1.124 -0.2593 -0.2565  0.6850
  107SOL    HW1 1102   4.828   7.294   1.201  0.8756 -0.9372  0.5090
  107SOL    HW2 1103   4.855   7.436   1.159  0.5160 -0.5953  1.3964
  108SOL     OW 1104   7.833   4.031   2.325  0.3449 -0.4838  0.2726
  108SOL    HW1 1105   7.776   4.036   2.402 -0.3569  2.1152 -0.3284
  108SOL    HW2 1106   7.917   4.000   2.360 -0.6920 -1.9995  1.5814
  109SOL     OW 1107   4.036   4.004   4.671 -0.5478 -0.1091  0.1814
  109SOL    HW1 1108   4.053   4.054   4.751  0.1121  0.7310 -0.4687
  109SOL    HW2 1109   4.075   4.056   4.601 -0.3402 -1.2570 -0.5907
  110SOL     OW 1110   8.263   3.531   5.095  0.0664  0.6323  0.7872
  110SOL    HW1 1111   8.352   3.566   5.082  0.8724 -1.2232  0.9991
  110SOL    HW2 1112   8.261   3.504   5.187  0.0824 -1.3444  0.2591
  111SOL     OW 1113   5.028   4.113   5.529 -1.0942  0.5657  0.0111
  111SOL    HW1 1114   5.015   4.197   5.573  1.1844  0.3644  1.1942
  111SOL    HW2 1115   5.004   4.048   5.594  1.4118  0.2817  0.7418
  112SOL     OW 1116   7.861   5.778   0.394 -0.6454 -0.2015 -0.5246
  112SOL    HW1 1117   7.792   5.843   0.404  1.9434  2.5697  0.7550
  112SOL    HW2 1118   7.861   5.758   0.300 -2.6997  0.1603 -0.6611
  113SOL     OW 1119   8.079   0.550   3.677 -0.4971 -0.0054 -0.1581
  113SOL    HW1 1120   8.105   0.642   3.678 -1.1136  0.1948  1.7884
  113SOL    HW2 1121   8.005   0.548   3.616 -0.7726  0.8952  0.1201
  114SOL     OW 1122   3.652   6.463   6.548 -0.0517  0.7019  0.5872
  114SOL    HW1 1123   3.688   6.413   6.475  0.6056 -0.2473  1.5292
  114SOL    HW2 1124   3.640   6.398   6.617 -0.9068  1.5338  1.2377
  115SOL     OW 1125   6.125   1.559   1.997 -0.0882 -0.4763 -0.0899
  115SOL    HW1 1126   6.110   1.653   1.985  0.0081 -0.6434 -1.7462
  115SOL    HW2 1127   6.097   1.519   1.915 -0.7701 -1.9945  0.8247
  116SOL     OW 1128   6.194   8.244   2.337  0.2201  0.9322  0.1443
  116SOL    HW1 1129   6.119   8.292   2.303  0.6009  1.2483 -0.2695
  116SOL    HW2 1130   6.170   8.152   2.331  0.4010  0.9624 -1.2922
  117SOL     OW 1131   0.183   7.582   6.220 -0.3323  0.0426  0.5099
  117SOL    HW1 1132   0.098   7.552   6.253 -0.1455 -0.7134  0.3343
  117SOL    HW2 1133   0.181   7.677   6.230 -2.4393  0.4388 -2.3135
  118SOL     OW 1134   4.231   7.431   0.659  0.1570 -0.3516  0.1614
  118SOL    HW1 1135   4.321   7.447   0.685  0.2471  0.8871 -0.8638
  118SOL    HW2 1136   4.233   7.429   0.564 -0.6562 -1.8912  0.1450
  119SOL     OW 1137   1.998   7.924   6.624 -0.6363  0.4978 -0.7773
  119SOL    HW1 1138   1.988   7.895   6.534 -1.3899 -1.1058 -0.2321
  119SOL    HW2 1139   1.913   7.903   6.665 -0.0473  0.4584  0.4694
  120SOL     OW 1140   2.932   6.816   6.094 -0.3391  0.4835 -0.1259
  120SOL    HW1 1141   2.910   6.738   6.145  0.5714  1.0048  1.1253
  120SOL    HW2 1142   3.017   6.795   6.054  0.0742  0.9449  0.4941
  121SOL     OW 1143   2.906   2.633   2.535 -0.0774 -0.0391  0.0939
  121SOL    HW1 1144   2.824   2.676   2.510  0.1934  0.8481  0.6906
  121SOL    HW2 1145   2.904   2.549   2.490 -1.3678 -0.0758  0.2041
  122SOL     OW 1146   2.331   6.865   2.257  0.3464  0.4569  0.2540
  122SOL    HW1 1147   2.312   6.952   2.221 -0.6331  0.8022  1.5201
  122SOL    HW2 1148   2.371   6.817   2.185  1.5815  2.1875 -0.2754
  123SOL     OW 1149   7.882   7.382   5.834  0.1682  0.1171  0.6162
  123SOL    HW1 1150   7.861   7.290   5.852 -0.4303  0.0889 -0.1562
  123SOL    HW2 1151   7.809   7.413   5.780 -0.3583  1.4516  2.0389
  124SOL     OW 1152   8.092   4.375   2.077  0.5709  0.7047 -0.2830
  124SOL    HW1 1153   8.082   4.470   2.068  1.4675  0.7679 -0.7972
  124SOL    HW2 1154   8.005   4.340   2.059 -0.5229  1.5782  2.7801
  125SOL     OW 1155   2.712   5.508   3.216  0.4973  0.5178  0.1035
  125SOL    HW1 1156   2.664   5.591   3.216 -0.5919 -0.0824  0.9776
  125SOL    HW2 1157   2.653   5.447   3.172  1.2995  0.1833 -0.5457
  126SOL     OW 1158   7.930   5.850   1.717  0.2838 -0.0643 -0.5043
  126SOL    HW1 1159   7.939   5.824   1.808  1.3826  1.5575 -0.1226
  126SOL    HW2 1160   7.840   5.826   1.695 -0.3708  0.5365  1.3428
  127SOL     OW 1161   8.033   1.927   3.714  0.3043 -0.0855  0.6278
  127SOL    HW1 1162   8.048   1.855   3.776  0.0843  0.3051  1.1459
  127SOL    HW2 1163   7.940   1.947   3.723  0.0710 -0.6057 -0.4824
  128SOL     OW 1164   1.993   2.355   6.403 -0.7464  0.5428  0.0325
  128SOL    HW1 1165   2.065   2.313   6.450 -1.1130  0.9963  1.0095
  128SOL    HW2 1166   1.968   2.290   6.337  2.5723  1.5164 -2.4904
  129SOL     OW 1167   2.211   3.335   8.249 -0.2066  0.0781 -0.3503
  129SOL    HW1 1168   2.166   3.252   8.263  0.0588  0.2303  1.7103
  129SOL    HW2 1169   2.225   3.339   8.154 -3.3104 -0.5886 -0.9582
  130SOL     OW 1170   2.503   0.026   8.066  0.3923  0.0861 -0.0084
  130SOL    HW1 1171   2.523   0.098   8.126  2.8868 -0.0607 -0.5390
  130SOL    HW2 1172   2.409   0.034   8.049  0.6046  3.4536 -0.3257
  131SOL     OW 1173   6.140   2.565   3.681  0.1049 -0.1796  0.5744
  131SOL    HW1 1174   6.234   2.563   3.699  0.2842 -2.5539 -0.2563
  131SOL    HW2 1175   6.134   2.569   3.585 -0.7078  1.6172  0.6509
  132SOL     OW 1176   2.636   2.286   5.596 -0.3032  0.7175  0.7440
  132SOL    HW1 1177   2.665   2.221   5.659 -0.5644  1.2778  1.4513
  132SOL    HW2 1178   2.713   2.340   5.578  0.8748 -1.6944 -2.3426
  133SOL     OW 1179   4.793   0.758   1.694 -0.0550 -0.4712 -0.4654
  133SOL    HW1 1180   4.794   0.849   1.723 -1.3010 -0.8632  0.9229
  133SOL    HW2 1181   4.885   0.731   1.694  0.1606  0.1684  1.2041
  134SOL     OW 1182   2.140   4.248   4.066  0.1296  0.1284  0.6106
  134SOL    HW1 1183   2.223   4.284   4.033 -1.0864  2.5447 -0.0783
  134SOL    HW2 1184   2.119   4.302   4.142 -1.9024  1.1513 -0.6008
  135SOL     OW 1185   4.103   1.764   0.845  0.5401 -0.6562  0.0687
  135SOL    HW1 1186   4.121   1.858   0.844  1.3473 -0.8074 -1.0725
  135SOL    HW2 1187   4.092   1.743   0.938 -0.5910  0.7212  0.2798
  136SOL     OW 1188   3.389   0.515   6.798  0.0702  0.4078 -0.5030
  136SOL    HW1 1189   3.436   0.575   6.740 -0.1518  0.3459 -0.7485
  136SOL    HW2 1190   3.421   0.536   6.885  1.6714 -0.6284 -0.7907
  137SOL     OW 1191   2.664   7.660   6.059  0.2238 -0.4535  0.7327
  137SOL    HW1 1192   2.724   7.649   6.133 -0.0502  0.0042  1.0308
  137SOL    HW2 1193   2.716   7.636   5.982  0.9168  0.2871  0.9497
  138SOL     OW 1194   3.631   3.590   3.974  0.1496  0.3719 -0.7141
  138SOL    HW1 1195   3.634   3.683   3.995 -0.2290 -0.0593  1.4136
  138SOL    HW2 1196   3.637   3.545   4.058 -0.2521 -1.5378 -1.6365
  139SOL     OW 1197   0.324   3.122   7.091 -0.4679 -0.0259  0.1357
  139SOL    HW1 1198   0.266   3.155   7.159 -1.5860  0.6151 -1.1150
  139SOL    HW2 1199   0.388   3.068   7.139 -0.8362  0.9237  1.7549
  140SOL     OW 1200   1.945   7.839   5.010 -0.0749  0.2081  0.2426
  140SOL    HW1 1201   1.959   7.901   4.938  0.1260  0.2172  0.2905
  140SOL    HW2 1202   2.027   7.840   5.058 -0.2287  0.2433  0.5043
  141SOL     OW 1203   0.227   4.217   6.741  0.0738  0.0550 -0.2757
  141SOL    HW1 1204   0.250   4.285   6.805  0.0469 -1.2103  1.1398
  141SOL    HW2 1205   0.233   4.135   6.790 -1.1407 -0.8695 -1.5863
  142SOL     OW 1206   4.756   2.554   2.898  0.5769 -0.1505  0.2077
  142SOL    HW1 1207   4.733   2.477   2.951 -0.5939 -0.3809 -0.6111
  142SOL    HW2 1208   4.827   2.596   2.947  0.0724 -0.8001  1.5518
  143SOL     OW 1209   1.307   7.847   5.018 -0.1091  0.1528  0.3213
  143SOL    HW1 1210   1.273   7.888   5.097 -1.2549 -0.5892  0.2332
  143SOL    HW2 1211   1.239   7.860   4.952 -0.5708 -1.8907  0.3079
  144SOL     OW 1212   3.179   3.673   1.382  0.5355  0.2912  0.1802
  144SOL    HW1 1213   3.093   3.714   1.390  0.4788  0.3570 -0.7180
  144SOL    HW2 1214   3.168   3.587   1.423  0.0838  0.3499  0.1845
  145SOL     OW 1215   1.519   6.219   0.500  0.0548  0.4423  1.0407
  145SOL    HW1 1216   1.530   6.276   0.423  0.1505 -1.3128 -0.3104
  145SOL    HW2 1217   1.437   6.173   0.484  0.5428 -0.6228  1.5114
  146SOL     OW 1218   6.821   1.341   3.873  0.7867 -0.0511 -0.2668
  146SOL    HW1 1219   6.774   1.320   3.953 -1.6779  0.4577 -1.4869
  146SOL    HW2 1220   6.907   1.300   3.884  0.4318 -0.2402  2.4706
  147SOL     OW 1221   1.296   6.023   6.358 -0.0305  0.3553  0.3588
  147SOL    HW1 1222   1.384   6.019   6.393 -0.4416 -0.4413  1.3439
  147SOL    HW2 1223   1.253   5.943   6.390 -1.5004  1.3420  0.9921
  148SOL     OW 1224   0.933   7.890   3.088 -0.3119 -0.6642 -0.0083
  148SOL    HW1 1225   0.964   7.937   3.166 -0.7076  1.0290 -0.8275
  148SOL    HW2 1226   0.866   7.831   3.121 -0.9360  0.4971  0.8624
  149SOL     OW 1227   0.593   4.637   0.645 -0.3737  0.5339  0.4760
  149SOL    HW1 1228   0.593   4.732   0.654  1.0371  0.6507 -0.4871
  149SOL    HW2 1229   0.506   4.617   0.609 -1.0985  1.3182  1.7202
  150SOL     OW 1230   6.691   5.452   6.655  0.3073 -0.4153  0.4717
  150SOL    HW1 1231   6.661   5.492   6.574 -1.6039 -0.6540  1.0191
  150SOL    HW2 1232   6.705   5.526   6.715  3.4775 -0.0654 -0.5226
  151SOL     OW 1233   4.695   8.238   0.695 -0.0594 -0.0372  0.4246
  151SOL    HW1 1234   4.733   8.238   0.783 -0.1041  0.3838  0.4475
  151SOL    HW2 1235   4.644   8.319   0.691 -1.8356 -1.0954  0.7532
  152SOL     OW 1236   8.138   2.384   4.901 -0.0595 -0.0894  0.0204
  152SOL    HW1 1237   8.126   2.440   4.977 -2.7855 -0.6579  0.1132
  152SOL    HW2 1238   8.120   2.440   4.826  5.0865  1.1810 -0.6193
  153SOL     OW 1239   6.253   6.256   3.757  0.1138 -0.3067 -0.4651
  153SOL    HW1 1240   6.212   6.313   3.693 -1.3910  0.3205  0.9933
  153SOL    HW2 1241   6.347   6.264   3.740 -0.0109  2.7974 -0.1854
  154SOL     OW 1242   5.897   5.964   3.346  1.0965  0.4981 -0.5255
  154SOL    HW1 1243   5.855   6.047   3.370 -0.9578 -0.2557 -1.3068
  154SOL    HW2 1244   5.917   5.922   3.430 -2.0451 -0.2004 -0.0069
  155SOL     OW 1245   1.671   5.400   2.906 -0.1437 -0.2851 -0.3726
  155SOL    HW1 1246   1.580   5.394   2.878  0.1889 -1.5734 -1.3063
  155SOL    HW2 1247   1.707   5.313   2.887  1.2217  0.1407  0.1717
  156SOL     OW 1248   3.328   7.284   7.602  1.0200 -0.2215 -0.0408
  156SOL    HW1 1249   3.269   7.322   7.536  0.7416 -0.2813  0.1687
  156SOL    HW2 1250   3.415   7.295   7.565  1.1754  2.5557  0.9186
  157SOL     OW 1251   4.621   5.250   0.776 -0.2620 -0.0061 -0.0855
  157SOL    HW1 1252   4.708   5.213   0.764 -0.1744  0.5113 -1.1690
  157SOL    HW2 1253   4.577   5.188   0.834 -0.0214 -1.6786 -1.5773
  158SOL     OW 1254   2.799   3.371   1.785  0.2943  0.1549 -0.3164
  158SOL    HW1 1255   2.851   3.415   1.717 -0.2548 -1.3294 -1.7679
  158SOL    HW2 1256   2.720   3.343   1.739  1.6527 -4.5660 -0.2150
  159SOL     OW 1257   3.291   4.369   4.305  0.7098  0.5624 -0.1159
  159SOL    HW1 1258   3.356   4.410   4.362 -0.3557 -0.0431  1.6327
  159SOL    HW2 1259   3.221   4.434   4.298 -0.3537 -0.3389  1.5167
  160SOL     OW 1260   2.575   2.062   2.796  0.4071  0.2502  0.4526
  160SOL    HW1 1261   2.622   2.128   2.745  0.8976 -1.5431 -1.6034
  160SOL    HW2 1262   2.612   1.979   2.765  0.3139 -1.0001  3.4103
  161SOL     OW 1263   3.151   2.801   8.225 -0.0114 -0.2013 -0.4127
  161SOL    HW1 1264   3.089   2.806   8.298 -0.2175 -1.2768 -0.5058
  161SOL    HW2 1265   3.132   2.879   8.173  0.1950  0.6335  0.7093
  162SOL     OW 1266   0.532   7.213   2.792  0.0323 -0.1243 -0.6529
  162SOL    HW1 1267   0.591   7.282   2.762 -0.0394 -0.1976 -0.9644
  162SOL    HW2 1268   0.473   7.198   2.718 -0.6247  0.2261 -0.2128
  163SOL     OW 1269   2.065   4.094   5.054 -0.0301 -0.2849  0.2382
  163SOL    HW1 1270   2.137   4.126   5.108 -0.3803  1.6227 -0.3724
  163SOL    HW2 1271   2.098   4.013   5.015  0.7061 -0.9887  2.2164
  164SOL     OW 1272   2.537   4.298   5.644  0.6008 -0.2358  0.0677
  164SOL    HW1 1273   2.567   4.388   5.631 -1.0584 -0.0382 -3.9810
  164SOL    HW2 1274   2.595   4.245   5.589 -0.3175 -1.2132  0.0014
  165SOL     OW 1275   7.938   2.185   0.336 -0.5565  0.0251 -0.2786
  165SOL    HW1 1276   7.996   2.223   0.402 -1.1004  1.7899 -0.7661
  165SOL    HW2 1277   7.968   2.221   0.253 -0.2513 -1.7168 -0.9711
  166SOL     OW 1278   2.774   8.098   3.067  0.1068 -0.5714 -0.4247
  166SOL    HW1 1279   2.813   8.018   3.105  0.5619 -0.3985 -0.5199
  166SOL    HW2 1280   2.848   8.143   3.027 -0.0461  0.1976  0.1466
  167SOL     OW 1281   1.150   4.967   7.439 -0.3037 -0.0796  0.2738
  167SOL    HW1 1282   1.068   5.006   7.408 -0.5549  0.8788  1.9860
  167SOL    HW2 1283   1.122   4.886   7.482 -0.2365 -0.2081  0.0769
  168SOL     OW 1284   2.799   2.977   0.242 -0.7930  0.6518 -0.2356
  168SOL    HW1 1285   2.876   3.000   0.190 -1.6470 -0.2356 -1.9701
  168SOL    HW2 1286   2.802   2.882   0.250 -2.4398  0.4310 -1.6043
  169SOL     OW 1287   1.434   4.111   7.018 -0.0944  0.0074 -0.2388
  169SOL    HW1 1288   1.491   4.188   7.012  1.1803 -0.9734 -1.4306
  169SOL    HW2 1289   1.345   4.146   7.018  0.4620  1.4822 -0.9457
  170SOL     OW 1290   4.736   8.004   7.766  0.0577 -0.3958 -0.2666
  170SOL    HW1 1291   4.728   8.074   7.701  0.8069 -0.1454 -0.1046
  170SOL    HW2 1292   4.808   8.032   7.822 -0.4801 -0.6841  0.5856
  171SOL     OW 1293   8.129   0.094   3.331 -0.2245  0.2784  0.0867
  171SOL    HW1 1294   8.089   0.163   3.277 -1.0014 -0.8050 -0.7580
  171SOL    HW2 1295   8.125   0.016   3.277  0.7028 -0.4368  1.0121
  172SOL     OW 1296   3.006   8.246   2.078 -0.2289  0.4084  0.2526
  172SOL    HW1 1297   3.041   8.240   1.989  0.0514  0.1842  0.3779
  172SOL    HW2 1298   2.982   8.156   2.100  1.8069  0.0617  1.2565
  173SOL     OW 1299   0.230   4.443   0.233  0.2883 -0.8219  0.1367
  173SOL    HW1 1300   0.264   4.368   0.184 -1.0527 -0.0510 -2.0876
  173SOL    HW2 1301   0.152   4.470   0.185  0.0005  1.2152  1.6242
  174SOL     OW 1302   2.354   7.742   7.773 -0.4475 -0.1947 -0.4051
  174SOL    HW1 1303   2.261   7.744   7.753 -0.1649 -0.8502 -1.8828
  174SOL    HW2 1304   2.386   7.829   7.747 -0.7335  0.2586  0.6903
  175SOL     OW 1305   7.726   7.701   3.579 -0.7405  0.3012 -0.7736
  175SOL    HW1 1306   7.723   7.718   3.485  1.9776 -1.7593 -1.3554
  175SOL    HW2 1307   7.789   7.765   3.613 -0.9371  0.3734 -0.5437
  176SOL     OW 1308   5.235   7.802   7.348 -0.4661  0.4324 -0.5355
  176SOL    HW1 1309   5.154   7.848   7.329  0.0271  1.7968  0.4609
  176SOL    HW2 1310   5.208   7.715   7.376 -1.5886  0.8904 -0.1644
  177SOL     OW 1311   1.347   5.658   5.484  0.0169 -0.2060 -0.4230
  177SOL    HW1 1312   1.335   5.721   5.413  1.2081 -0.4790 -0.8836
  177SOL    HW2 1313   1.259   5.648   5.522 -0.2212  1.6910 -0.3650
  178SOL     OW 1314   0.341   7.990   2.525  0.1855  0.4070 -0.0747
  178SOL    HW1 1315   0.247   7.990   2.543  0.1168  1.5181 -0.4183
  178SOL    HW2 1316   0.355   7.910   2.474 -0.6497  0.4687 -0.4160
  179SOL     OW 1317   6.109   0.856   0.208  0.4838 -0.0441  0.0517
  179SOL    HW1 1318   6.049   0.910   0.261  1.0340  1.0627 -0.4188
  179SOL    HW2 1319   6.131   0.911   0.134  0.2777 -1.3215 -0.9932
  180SOL     OW 1320   6.549   3.278   1.952 -0.2389  0.1668 -0.1184
  180SOL    HW1 1321   6.581   3.314   1.869 -0.1285 -0.9682 -0.5878
  180SOL    HW2 1322   6.513   3.192   1.929  0.4345 -0.4779  1.1094
  181SOL     OW 1323   8.202   5.617   5.272  0.4513 -0.2079 -0.0653
  181SOL    HW1 1324   8.144   5.557   5.224 -0.3732  0.1614  0.4494
  181SOL    HW2 1325   8.236   5.676   5.205  0.0881 -0.3166 -0.3481
  182SOL     OW 1326   8.302   7.080   5.969  0.6497 -0.6769  0.8079
  182SOL    HW1 1327   8.222   7.077   6.021  1.1429 -0.9477  1.5703
  182SOL    HW2 1328   8.272   7.088   5.879 -0.3366 -3.3892  0.7949
  183SOL     OW 1329   5.001   3.724   8.166  0.1453 -0.0100  0.0662
  183SOL    HW1 1330   4.992   3.786   8.239 -0.5073  1.1463 -0.9711
  183SOL    HW2 1331   5.091   3.738   8.135  0.6018 -0.8626  0.9236
  184SOL     OW 1332   2.210   3.495   0.958 -0.0236 -0.3604 -0.2653
  184SOL    HW1 1333   2.172   3.448   0.884 -2.4595  1.7937 -0.5552
  184SOL    HW2 1334   2.284   3.543   0.921  1.4521 -2.5091 -0.2954
  185SOL     OW 1335   2.052   7.005   5.440 -0.4992 -0.3023  0.5068
  185SOL    HW1 1336   2.063   7.017   5.346 -1.1014 -0.9099  0.3468
  185SOL    HW2 1337   2.013   7.087   5.470 -2.2990 -0.8554 -0.1555
  186SOL     OW 1338   5.910   6.197   5.637 -0.5277  0.4915  0.6634
  186SOL    HW1 1339   5.828   6.226   5.596  0.4698  0.9060 -1.1230
  186SOL    HW2 1340   5.931   6.268   5.698 -1.8937 -0.0078  1.7748
  187SOL     OW 1341   0.227   2.298   7.501 -0.2045  0.5488 -0.4432
  187SOL    HW1 1342   0.178   2.379   7.484  1.4618  1.4823 -1.1002
  187SOL    HW2 1343   0.232   2.293   7.596 -0.3546  1.2130 -0.3952
  188SOL     OW 1344   7.175   1.359   7.401  0.1183  0.7244  0.1420
  188SOL    HW1 1345   7.141   1.447   7.388 -1.7030 -0.2166 -2.1266
  188SOL    HW2 1346   7.150   1.336   7.490 -1.5935  1.6308 -0.0642
  189SOL     OW 1347   0.113   1.311   4.443  0.2086 -0.6175  0.2217
  189SOL    HW1 1348   0.044   1.251   4.417  1.9895 -1.9324 -1.8235
  189SOL    HW2 1349   0.090   1.394   4.400 -0.6577 -0.6984  0.5115
  190SOL     OW 1350   1.945   6.068   6.670 -0.0571  0.3905 -0.0545
  190SOL    HW1 1351   2.022   6.098   6.719 -0.4546 -0.2032  0.9598
  190SOL    HW2 1352   1.948   5.973   6.678 -1.6473  0.4032  1.2190
  191SOL     OW 1353   6.356   6.648   6.664  0.3169  0.1828  0.3621
  191SOL    HW1 1354   6.411   6.618   6.592  0.3969  2.7486 -0.7694
  191SOL    HW2 1355   6.399   6.613   6.743  1.2561 -1.1859 -0.7063
  192SOL     OW 1356   7.167   5.109   3.195  0.4628 -0.2826 -0.3551
  192SOL    HW1 1357   7.235   5.050   3.162  1.2862 -0.6728  1.8534
  192SOL    HW2 1358   7.087   5.057   3.191  0.8291 -0.8685 -0.2957
  193SOL     OW 1359   0.774   2.013   5.594 -0.3326 -0.2600 -0.3001
  193SOL    HW1 1360   0.711   1.952   5.631 -0.1124  0.2185  0.9223
  193SOL    HW2 1361   0.846   2.016   5.658  0.3140  0.2074 -1.0199
  194SOL     OW 1362   0.678   1.084   2.533 -0.5877  0.5468 -0.3081
  194SOL    HW1 1363   0.651   1.040   2.614 -1.6364 -1.1662 -1.5247
  194SOL    HW2 1364   0.646   1.174   2.542 -0.0483  0.6011  1.4523
  195SOL     OW 1365   5.308   0.265   0.380 -0.4333 -0.0788  0.5243
  195SOL    HW1 1366   5.338   0.232   0.464 -1.9337 -1.5272  0.5482
  195SOL    HW2 1367   5.215   0.244   0.378 -0.0909 -1.8799 -2.2790
  196SOL     OW 1368   6.442   2.745   0.222  0.1891  0.6026  0.3792
  196SOL    HW1 1369   6.523   2.760   0.270 -0.0731 -0.1846  1.0966
  196SOL    HW2 1370   6.380   2.717   0.289 -0.1214 -0.7691 -0.4525
  197SOL     OW 1371   7.322   7.753   8.230 -0.0784  0.5444  0.3845
  197SOL    HW1 1372   7.358   7.666   8.214  0.4106  1.0083 -1.1203
  197SOL    HW2 1373   7.233   7.736   8.261 -0.3898 -0.4793 -0.9730
  198SOL     OW 1374   0.319   4.606   6.396  0.1643  0.6068 -0.4971
  198SOL    HW1 1375   0.245   4.550   6.374  0.1193  0.3529  0.2776
  198SOL    HW2 1376   0.392   4.545   6.408 -0.3668  0.4461  2.5350
  199SOL     OW 1377   4.581   3.843   5.955  0.0143  0.2160 -0.5013
  199SOL    HW1 1378   4.654   3.898   5.926  0.0818 -0.3318 -1.4066
  199SOL    HW2 1379   4.611   3.806   6.038  0.0945  1.2759 -0.0365
  200SOL     OW 1380   4.950   0.396   2.231  0.1137 -0.1843 -0.3767
  200SOL    HW1 1381   4.998   0.327   2.184 -0.0557 -0.9347  0.5219
  200SOL    HW2 1382   4.917   0.453   2.161 -0.2756 -1.3662 -1.2078
  201SOL     OW 1383   2.066   4.739   6.103 -0.0076  0.1612  0.0354
  201SOL    HW1 1384   2.000   4.673   6.125  0.4390 -0.1054  0.5917
  201SOL    HW2 1385   2.107   4.761   6.186  0.0298  0.9563 -0.1860
  202SOL     OW 1386   5.010   7.000   5.296  0.1751  0.3915  0.1142
  202SOL    HW1 1387   4.976   6.936   5.358 -0.4066 -0.0524 -0.6444
  202SOL    HW2 1388   4.953   7.076   5.307  0.5418  0.5925  0.6485
  203SOL     OW 1389   2.746   1.169   1.920  0.0535 -0.6355 -0.3115
  203SOL    HW1 1390   2.826   1.162   1.868 -0.4193 -0.0787 -1.1385
  203SOL    HW2 1391   2.687   1.221   1.865 -0.6315 -0.4598  0.5824
  204SOL     OW 1392   0.057   5.615   2.623 -0.7101 -0.5126  0.1617
  204SOL    HW1 1393  -0.018   5.615   2.683 -0.9963 -2.4953 -0.1159
  204SOL    HW2 1394   0.054   5.529   2.581  3.1682 -1.7409  1.9636
  205SOL     OW 1395   2.698   4.586   0.668  0.0140 -0.1685 -0.0428
  205SOL    HW1 1396   2.688   4.620   0.579  1.3060  0.0457 -0.1196
  205SOL    HW2 1397   2.658   4.654   0.724  1.0128  0.6762 -0.3224
  206SOL     OW 1398   0.429   1.262   5.967  0.0820  0.6667 -0.1312
  206SOL    HW1 1399   0.378   1.309   6.034  0.0871  0.7125 -0.1596
  206SOL    HW2 1400   0.405   1.170   5.980 -0.2081  0.7143 -0.3152
  207SOL     OW 1401   8.044   7.298   3.313 -0.2018 -0.3587 -0.6535
  207SOL    HW1 1402   8.077   7.282   3.401  1.1591 -2.5943 -1.4738
  207SOL    HW2 1403   8.070   7.388   3.294  0.0931 -0.0767  0.9792
  208SOL     OW 1404   1.260   5.319   4.008  0.1613 -0.3868  0.1594
  208SOL    HW1 1405   1.164   5.313   4.005  0.1964 -0.7650 -0.3675
  208SOL    HW2 1406   1.279   5.413   4.003 -0.2162 -0.2112  1.5944
  209SOL     OW 1407   3.378   1.657   0.934 -0.5118  0.9397  0.2268
  209SOL    HW1 1408   3.419   1.613   1.008 -0.5637  0.0071 -0.2920
  209SOL    HW2 1409   3.421   1.743   0.931  1.1054  0.1661 -0.0247
  210SOL     OW 1410   7.036   3.079   3.320  0.1418 -0.3391 -0.1751
  210SOL    HW1 1411   7.083   3.160   3.343 -0.4693 -0.2046  0.6233
  210SOL    HW2 1412   6.956   3.082   3.372  1.2269 -2.6609  1.8457
  211SOL     OW 1413   7.457   0.447   6.927 -0.3760  0.1448 -0.2291
  211SOL    HW1 1414   7.526   0.386   6.954  0.7546  1.8853  1.0446
  211SOL    HW2 1415   7.489   0.485   6.846 -0.0153  0.6177  0.1248
  212SOL     OW 1416   7.346   5.883   8.191  0.2176  0.2581  0.2725
  212SOL    HW1 1417   7.329   5.975   8.170 -0.0702  0.0645 -0.3739
  212SOL    HW2 1418   7.398   5.886   8.271 -0.1678  0.9723  0.5078
  213SOL     OW 1419   0.853   2.923   6.143 -0.2339  0.4848 -0.0097
  213SOL    HW1 1420   0.763   2.890   6.144 -0.9941  2.3989  2.1331
  213SOL    HW2 1421   0.907   2.844   6.147 -1.8985 -0.6647  1.9126
  214SOL     OW 1422   5.465   3.105   6.799  0.1817 -0.9604  0.1320
  214SOL    HW1 1423   5.469   3.128   6.892  1.0170 -1.2414  0.1745
  214SOL    HW2 1424   5.535   3.040   6.788 -1.2071 -2.4384 -0.2720
  215SOL     OW 1425   4.764   3.728   5.625  0.6358 -0.3966 -0.3011
  215SOL    HW1 1426   4.767   3.633   5.627  0.2820 -0.4304 -1.0755
  215SOL    HW2 1427   4.674   3.749   5.600  0.2017  0.1801  1.5747
  216SOL     OW 1428   4.372   7.707   7.734 -0.3169  0.8813 -0.1169
  216SOL    HW1 1429   4.434   7.719   7.806 -0.9388 -1.1034  0.8223
  216SOL    HW2 1430   4.292   7.749   7.765 -0.0957  1.5216 -0.3964
  217SOL     OW 1431   7.605   5.317   4.006 -0.5566 -0.1802 -0.3696
  217SOL    HW1 1432   7.663   5.364   3.947  1.8223 -1.2135  1.0184
  217SOL    HW2 1433   7.524   5.368   4.005 -0.3417  0.3556 -3.7334
  218SOL     OW 1434   1.465   4.127   2.596  0.4345  0.3499  0.1914
  218SOL    HW1 1435   1.496   4.131   2.506 -1.1032  1.2899 -0.3333
  218SOL    HW2 1436   1.522   4.062   2.638  2.5211  1.3821 -0.8937
  219SOL     OW 1437   0.461   6.638   2.561 -0.2622  0.4986  0.3606
  219SOL    HW1 1438   0.493   6.721   2.527 -0.1412 -0.0829 -0.9929
  219SOL    HW2 1439   0.538   6.599   2.603 -0.2968  1.0189  0.9171
  220SOL     OW 1440   3.844   7.018   7.050  0.1545 -0.4750 -0.3500
  220SOL    HW1 1441   3.894   7.093   7.081  0.4469 -0.7734 -0.0862
  220SOL    HW2 1442   3.899   6.979   6.981 -0.2115 -0.1719 -0.8153
  221SOL     OW 1443   3.238   0.839   7.576 -0.4817 -0.2384 -0.2723
  221SOL    HW1 1444   3.332   0.825   7.584 -0.2125 -0.4749 -2.9716
  221SOL    HW2 1445   3.218   0.908   7.640  1.4732 -0.2658  0.4254
  222SOL     OW 1446   6.879   2.928   7.992  1.1327  0.1166 -0.2903
  222SOL    HW1 1447   6.884   2.853   7.932  0.6828  0.2525 -0.5050
  222SOL    HW2 1448   6.840   2.893   8.072  1.5417 -0.0199 -0.1472
  223SOL     OW 1449   4.682   7.943   2.437  0.2670 -0.5776 -0.5461
  223SOL    HW1 1450   4.603   7.993   2.455  1.0557  2.6009 -4.4147
  223SOL    HW2 1451   4.751   7.989   2.486  0.3906 -0.1558 -1.0912
  224SOL     OW 1452   4.301   3.675   2.662  0.2740  0.0573  0.1757
  224SOL    HW1 1453   4.374   3.710   2.712  0.4811 -0.7756  0.4794
  224SOL    HW2 1454   4.233   3.657   2.728 -0.7789  2.1358 -0.2535
  225SOL     OW 1455   1.745   3.475   6.081  0.6488 -0.0815  0.1638
  225SOL    HW1 1456   1.833   3.448   6.106  1.0923 -0.1584 -1.3857
  225SOL    HW2 1457   1.758   3.532   6.005 -0.6923 -1.0707 -0.8503
  226SOL     OW 1458   7.724   5.516   5.848 -0.2227 -0.1720 -0.3762
  226SOL    HW1 1459   7.747   5.423   5.849 -0.2797 -0.2406 -2.2759
  226SOL    HW2 1460   7.700   5.536   5.939  1.0089 -1.6910  0.3217
  227SOL     OW 1461   1.128   3.073   0.610 -0.6252  0.1400 -0.1068
  227SOL    HW1 1462   1.135   2.993   0.558 -1.5227 -0.6550  0.9512
  227SOL    HW2 1463   1.035   3.081   0.629 -0.5099  1.3183  0.0033
  228SOL     OW 1464   2.807   7.631   0.886 -0.0810  0.0784  0.2314
  228SOL    HW1 1465   2.902   7.623   0.887  0.0008  0.9581  0.5880
  228SOL    HW2 1466   2.790   7.720   0.920 -1.0616 -0.5007  1.3458
  229SOL     OW 1467   0.493   4.968   1.078  0.0114 -0.6384 -0.6153
  229SOL    HW1 1468   0.467   4.991   1.167  0.6072 -2.6425  0.1236
  229SOL    HW2 1469   0.494   5.052   1.031 -0.2975  0.4679  1.2506
  230SOL     OW 1470   1.398   0.603   2.332 -0.4005 -0.3691 -0.4630
  230SOL    HW1 1471   1.354   0.606   2.418 -0.9139 -1.6287 -0.6671
  230SOL    HW2 1472   1.387   0.692   2.298  2.7127  1.2556  2.1295
  231SOL     OW 1473   4.194   0.599   5.768 -0.3907  0.2430  0.2414
  231SOL    HW1 1474   4.115   0.547   5.754 -0.6538  0.5348  0.6327
  231SOL    HW2 1475   4.178   0.681   5.720 -1.0656  1.0187  1.7110
  232SOL     OW 1476   1.362   6.630   5.662 -0.4654 -0.1271  0.1662
  232SOL    HW1 1477   1.313   6.571   5.719 -1.7194  1.4146  0.7716
  232SOL    HW2 1478   1.307   6.638   5.584  0.2197 -0.5731 -0.3755
  233SOL     OW 1479   3.534   2.267   3.429 -0.2134 -0.1194 -0.2335
  233SOL    HW1 1480   3.512   2.174   3.432  0.6415 -0.3367 -0.3009
  233SOL    HW2 1481   3.450   2.312   3.431 -0.6259 -0.8199  2.0671
  234SOL     OW 1482   6.871   0.928   4.698  0.2447 -0.2423  0.8934
  234SOL    HW1 1483   6.853   0.964   4.611 -1.9807 -1.0353  0.9712
  234SOL    HW2 1484   6.838   0.994   4.759 -2.6008 -1.6459  1.0391
  235SOL     OW 1485   4.319   3.645   2.147 -0.6711  0.1533  0.2890
  235SOL    HW1 1486   4.273   3.561   2.135 -0.8802  0.1617  1.0008
  235SOL    HW2 1487   4.337   3.649   2.241 -0.2162  0.6782  0.1794
  236SOL     OW 1488   4.834   3.532   0.163  0.2393  0.0362 -0.1681
  236SOL    HW1 1489   4.819   3.464   0.230 -0.8271 -1.8162 -2.1500
  236SOL    HW2 1490   4.751   3.579   0.157  0.7573  1.0994  0.7061
  237SOL     OW 1491   5.498   2.353   5.983 -0.0119 -0.0272  0.3576
  237SOL    HW1 1492   5.556   2.332   6.056  2.1832  1.6513 -0.7812
  237SOL    HW2 1493   5.432   2.412   6.021  1.4858  1.3525  0.9082
  238SOL     OW 1494   1.282   8.313   0.827  0.4241  0.0773 -0.1828
  238SOL    HW1 1495   1.223   8.239   0.811 -0.5707  1.0096 -0.8815
  238SOL    HW2 1496   1.227   8.390   0.820  0.9364  0.8530  2.8491
  239SOL     OW 1497   5.330   1.946   4.279  0.0291  0.2414 -0.1176
  239SOL    HW1 1498   5.268   1.938   4.207 -0.3466 -1.1140  0.3101
  239SOL    HW2 1499   5.354   1.855   4.300 -0.7998  0.4696  2.2174
  240SOL     OW 1500   6.211   3.157   7.003 -0.7413  0.0837  0.2725
  240SOL    HW1 1501   6.299   3.190   7.021 -0.6151 -0.2650  0.2901
  240SOL    HW2 1502   6.154   3.209   7.060 -1.0787  3.3494 -2.6841
  241SOL     OW 1503   7.794   6.759   2.255  0.5222 -0.5286  0.7291
  241SOL    HW1 1504   7.725   6.793   2.313 -1.2846 -1.2796 -0.8621
  241SOL    HW2 1505   7.840   6.837   2.223 -1.8496  0.3379 -0.8258
  242SOL     OW 1506   1.234   2.649   4.430  0.0915 -0.1901  0.4175
  242SOL    HW1 1507   1.258   2.556   4.421  1.1887  0.0674  0.6196
  242SOL    HW2 1508   1.302   2.686   4.485 -0.3878  0.7317  0.3982
  243SOL     OW 1509   6.683   5.917   5.394  0.0026  0.4399 -0.0777
  243SOL    HW1 1510   6.693   5.923   5.299  0.8071  0.5923  0.0040
  243SOL    HW2 1511   6.635   5.836   5.408 -1.8032  1.3602 -0.6985
  244SOL     OW 1512   1.244   7.799   0.391  0.0266 -0.0530 -0.0733
  244SOL    HW1 1513   1.176   7.752   0.343 -1.8261  0.4415  1.9092
  244SOL    HW2 1514   1.271   7.870   0.332 -1.2130 -0.2279 -0.8858
  245SOL     OW 1515   2.870   4.306   8.027 -0.6803 -0.0973 -0.2045
  245SOL    HW1 1516   2.929   4.371   8.065 -1.1090  1.2047 -1.6719
  245SOL    HW2 1517   2.787   4.351   8.016 -0.8577 -0.7147 -1.7073
  246SOL     OW 1518   6.490   5.716   1.394  0.4747  0.3947  0.3982
  246SOL    HW1 1519   6.537   5.786   1.437  1.2173 -0.9488  1.8690
  246SOL    HW2 1520   6.457   5.661   1.465 -0.0489 -0.7690 -0.6856
  247SOL     OW 1521   0.353   4.501   0.635  1.0096 -0.1984 -0.5940
  247SOL    HW1 1522   0.301   4.425   0.608  1.3794 -0.4513 -0.6029
  247SOL    HW2 1523   0.289   4.571   0.648  0.4167 -1.0155  1.2944
  248SOL     OW 1524   4.681   5.017   7.815 -0.4701 -0.2298 -0.3513
  248SOL    HW1 1525   4.627   5.082   7.860  0.5797  0.3400  0.1130
  248SOL    HW2 1526   4.685   4.943   7.875 -1.6991 -0.7745 -0.8966
  249SOL     OW 1527   8.155   1.382   0.005 -0.0595  0.5170 -0.3303
  249SOL    HW1 1528   8.242   1.415   0.032 -0.7595  1.4538  0.9211
  249SOL    HW2 1529   8.108   1.461  -0.022 -0.5044 -0.0016 -1.0674
  250SOL     OW 1530   4.822   6.501   2.395 -0.3783 -0.1704  0.1608
  250SOL    HW1 1531   4.905   6.480   2.438 -0.1286 -1.4570 -0.8997
  250SOL    HW2 1532   4.767   6.535   2.465  2.0241  3.9022  0.3885
  251SOL     OW 1533   1.743   8.098   3.353 -0.4709 -0.0980  0.5295
  251SOL    HW1 1534   1.783   8.016   3.323  0.0237  0.4744 -0.4538
  251SOL    HW2 1535   1.801   8.127   3.423  1.4021  1.1077 -1.3808
  252SOL     OW 1536   7.552   1.561   0.100  0.4197 -0.0515  0.1414
  252SOL    HW1 1537   7.625   1.507   0.131  0.3185 -0.4485 -0.2885
  252SOL    HW2 1538   7.580   1.651   0.116  1.0674 -0.1941 -0.1532
  253SOL     OW 1539   5.487   7.874   6.859 -0.0777 -0.2592 -0.2244
  253SOL    HW1 1540   5.550   7.830   6.801  0.5011  0.1500  0.0765
  253SOL    HW2 1541   5.520   7.857   6.947 -0.0658  0.4350 -0.0876
  254SOL     OW 1542   4.169   1.461   5.446 -0.7108  0.3195  0.2673
  254SOL    HW1 1543   4.115   1.384   5.466  0.0333 -0.9114 -2.0641
  254SOL    HW2 1544   4.114   1.535   5.471 -1.3694 -0.9141  2.8297
  255SOL     OW 1545   6.201   5.601   4.286  0.5001  0.3614  0.1391
  255SOL    HW1 1546   6.196   5.505   4.292  1.2147  0.3477  0.7733
  255SOL    HW2 1547   6.198   5.619   4.193  1.8304 -0.4071 -0.0901
  256SOL     OW 1548   2.017   7.723   6.981  0.0747 -0.4491 -0.3777
  256SOL    HW1 1549   2.005   7.803   7.033 -0.8465 -0.8369  0.0182
  256SOL    HW2 1550   2.071   7.751   6.907 -0.6862  0.6699 -0.5375
  257SOL     OW 1551   0.273   3.388   2.391  0.1760 -0.2488 -0.1066
  257SOL    HW1 1552   0.304   3.472   2.426  0.4761  0.0850 -1.1347
  257SOL    HW2 1553   0.317   3.322   2.445 -0.2921  0.2423  0.9074
  258SOL     OW 1554   3.098   0.280   7.680 -0.5686  0.0210 -0.0394
  258SOL    HW1 1555   3.097   0.376   7.674 -1.4553  0.2684  2.5746
  258SOL    HW2 1556   3.017   0.253   7.637  0.2272  0.3038 -1.7959
  259SOL     OW 1557   7.299   7.758   2.896 -0.1856  0.0758 -0.2255
  259SOL    HW1 1558   7.375   7.811   2.921  0.8348 -1.2479 -0.3889
  259SOL    HW2 1559   7.313   7.738   2.804 -0.3405 -0.7862 -0.0698
  260SOL     OW 1560   7.545   6.594   0.365  0.1715  0.4547 -0.4020
  260SOL    HW1 1561   7.636   6.623   0.354 -0.1055  1.3708 -0.3384
  260SOL    HW2 1562   7.493   6.658   0.316 -0.5364  0.6041  0.5230
  261SOL     OW 1563   0.381   2.561   2.108  0.3541 -0.1069  0.3492
  261SOL    HW1 1564   0.393   2.490   2.171 -1.0462 -0.8681 -0.2127
  261SOL    HW2 1565   0.363   2.638   2.163 -2.0822 -1.0133  0.9025
  262SOL     OW 1566   5.335   2.202   6.577 -0.1660 -0.6279 -0.1645
  262SOL    HW1 1567   5.316   2.285   6.533 -1.1365 -0.7649 -0.0284
  262SOL    HW2 1568   5.260   2.188   6.635  1.3875 -0.1050  2.0955
  263SOL     OW 1569   6.664   0.528   2.997 -0.4725 -0.0083  0.1744
  263SOL    HW1 1570   6.628   0.525   2.909 -1.7201  1.5260  0.5942
  263SOL    HW2 1571   6.605   0.473   3.049 -2.2190  2.3159  0.8134
  264SOL     OW 1572   4.980   6.203   1.109 -0.4126  0.7209 -0.7798
  264SOL    HW1 1573   4.902   6.148   1.113 -0.7408  1.1971  2.6540
  264SOL    HW2 1574   4.948   6.292   1.120  0.4352  1.1864 -1.9149
  265SOL     OW 1575   8.130   6.383   2.450  0.3517  0.1597  0.1087
  265SOL    HW1 1576   8.200   6.388   2.385 -0.4939 -0.2200 -0.8533
  265SOL    HW2 1577   8.050   6.400   2.400 -0.5858 -2.5517  0.5501
  266SOL     OW 1578   1.463   1.767   5.230  0.0476 -0.0579  0.3531
  266SOL    HW1 1579   1.407   1.793   5.303  0.1039  0.7532  0.1226
  266SOL    HW2 1580   1.413   1.794   5.152 -0.7569 -2.3408 -0.0011
  267SOL     OW 1581   5.123   7.063   3.221  0.2961 -0.1751 -0.4020
  267SOL    HW1 1582   5.155   7.141   3.175 -1.2515  1.0591  0.5171
  267SOL    HW2 1583   5.049   7.033   3.168 -0.3497  0.1817  0.2722
  268SOL     OW 1584   6.174   6.982   4.937  0.2622 -0.6885  0.2040
  268SOL    HW1 1585   6.088   6.992   4.896 -1.1386 -1.5143  2.7090
  268SOL    HW2 1586   6.220   6.920   4.881 -1.2785 -1.2675 -0.4839
  269SOL     OW 1587   3.538   8.052   0.849  0.0537 -0.3186 -0.6228
  269SOL    HW1 1588   3.574   7.986   0.790 -1.2521  0.6786 -2.6501
  269SOL    HW2 1589   3.500   8.117   0.791 -2.1167  0.2830  1.3461
  270SOL     OW 1590   2.819   7.545   3.480 -0.4484  0.2234  0.0271
  270SOL    HW1 1591   2.823   7.638   3.503 -1.4554  0.1811  0.4479
  270SOL    HW2 1592   2.781   7.544   3.392  0.2516  0.2339 -0.2819
  271SOL     OW 1593   6.035   7.353   2.829  0.2994 -0.2087 -0.4427
  271SOL    HW1 1594   5.978   7.278   2.845  0.5032 -0.5905 -1.4539
  271SOL    HW2 1595   6.122   7.315   2.817  0.4903  0.2305 -0.4725
  272SOL     OW 1596   1.368   5.262   1.666  0.4260 -0.1445 -0.1306
  272SOL    HW1 1597   1.281   5.232   1.640  0.6075 -1.1662  0.3845
  272SOL    HW2 1598   1.406   5.298   1.586  0.6361 -2.4192 -1.1318
  273SOL     OW 1599   1.354   0.098   6.853  0.0203  0.2427 -0.1691
  273SOL    HW1 1600   1.446   0.117   6.837 -0.2064  0.4780 -1.2826
  273SOL    HW2 1601   1.351   0.004   6.866  0.4572  0.2760  0.2056
  274SOL     OW 1602   6.535   4.122   6.787 -0.0224 -0.1611 -0.1301
  274SOL    HW1 1603   6.499   4.136   6.875  0.4331  0.7692 -0.0862
  274SOL    HW2 1604   6.510   4.200   6.738  1.9876  0.5581 -0.0798
  275SOL     OW 1605   7.549   0.059   3.540  0.1838 -0.2859  0.7959
  275SOL    HW1 1606   7.587   0.016   3.616  0.5824 -0.9972  0.2023
  275SOL    HW2 1607   7.625   0.087   3.488 -0.0859 -0.1327  0.4797
  276SOL     OW 1608   8.239   2.846   6.165  0.4482  0.2346 -0.6389
  276SOL    HW1 1609   8.300   2.774   6.148 -2.0215 -1.7594 -1.5887
  276SOL    HW2 1610   8.220   2.882   6.079 -0.0113  0.5736 -0.3980
  277SOL     OW 1611   0.554   7.435   2.463  0.1467  0.1839 -0.1507
  277SOL    HW1 1612   0.458   7.436   2.456  0.1812  1.8065 -0.8554
  277SOL    HW2 1613   0.584   7.485   2.387  1.6607 -1.7430 -0.9147
  278SOL     OW 1614   6.611   2.168   6.095  0.3360 -0.1106 -0.1888
  278SOL    HW1 1615   6.576   2.229   6.160 -1.1512  0.2741 -1.3142
  278SOL    HW2 1616   6.630   2.223   6.018 -1.3062 -1.0704 -1.3312
  279SOL     OW 1617   0.494   7.588   1.614 -0.2505 -0.2551 -0.2039
  279SOL    HW1 1618   0.462   7.651   1.679  0.7492 -0.2871  0.3336
  279SOL    HW2 1619   0.484   7.634   1.531 -0.7187  0.1287  0.0549
  280SOL     OW 1620   6.818   2.545   2.329 -0.1906 -0.7292 -0.3682
  280SOL    HW1 1621   6.724   2.545   2.341 -0.1766 -0.5185 -0.2515
  280SOL    HW2 1622   6.842   2.453   2.319 -0.3211 -0.8388  0.2843
  281SOL     OW 1623   2.529   7.292   2.048 -0.2337  0.1446 -0.3799
  281SOL    HW1 1624   2.563   7.231   2.113  0.8455  1.4746  0.3779
  281SOL    HW2 1625   2.605   7.346   2.024 -0.7503  0.0641 -2.3269
  282SOL     OW 1626   1.599   0.964   6.481  0.1477  0.0729  0.3627
  282SOL    HW1 1627   1.526   0.948   6.421  1.2533 -0.1240 -0.9803
  282SOL    HW2 1628   1.660   0.892   6.464  2.0870  1.8823 -0.8564
  283SOL     OW 1629   5.645   6.729   2.002 -0.7376 -0.2179 -0.6283
  283SOL    HW1 1630   5.723   6.674   2.015  1.3207  2.9452  2.0307
  283SOL    HW2 1631   5.670   6.789   1.932 -1.4695 -0.2277 -0.9022
  284SOL     OW 1632   2.833   1.544   5.120 -0.3593 -0.2322  0.3075
  284SOL    HW1 1633   2.752   1.498   5.144 -0.6950 -1.0992 -2.1863
  284SOL    HW2 1634   2.804   1.630   5.089  0.0836  0.9439  2.8876
  285SOL     OW 1635   8.096   6.595   0.878  0.4913 -0.2331  0.6421
  285SOL    HW1 1636   8.178   6.545   0.869  0.0172 -1.2775  1.7867
  285SOL    HW2 1637   8.123   6.678   0.917  1.0593 -0.3780  0.5756
  286SOL     OW 1638   4.791   1.280   1.977 -0.0706  0.0669  0.0261
  286SOL    HW1 1639   4.861   1.246   2.033  0.9554  0.2667 -1.0992
  286SOL    HW2 1640   4.822   1.365   1.949 -0.6078  0.0065 -0.7867
  287SOL     OW 1641   6.579   6.642   2.659  0.1999  0.2077 -0.0972
  287SOL    HW1 1642   6.598   6.549   2.644  1.6298  0.9082 -3.6603
  287SOL    HW2 1643   6.577   6.680   2.571  0.5187  3.7155  1.2672
  288SOL     OW 1644   2.535   6.615   3.427 -0.2378  0.2917  0.7509
  288SOL    HW1 1645   2.447   6.577   3.432 -0.4277  0.5772 -0.2133
  288SOL    HW2 1646   2.558   6.609   3.335 -0.0781  2.0674  0.6390
  289SOL     OW 1647   2.930   5.006   3.801  0.0762  0.3806  0.0438
  289SOL    HW1 1648   2.869   4.934   3.783  0.7717 -0.1956 -0.0641
  289SOL    HW2 1649   2.897   5.046   3.881 -2.0990  1.9050 -1.5074
  290SOL     OW 1650   8.037   3.264   7.257  0.2215  0.2776 -0.0279
  290SOL    HW1 1651   8.047   3.172   7.235 -1.5639  0.3037 -1.1426
  290SOL    HW2 1652   7.956   3.269   7.307  1.0844  1.0772  1.3771
  291SOL     OW 1653   4.420   2.644   2.588 -0.3307 -0.1024 -0.0556
  291SOL    HW1 1654   4.451   2.699   2.660  0.9124 -0.7586 -0.0541
  291SOL    HW2 1655   4.381   2.568   2.631 -0.5550  0.0069 -0.0666
  292SOL     OW 1656   0.179   3.174   6.859 -0.5369  0.1241  0.0339
  292SOL    HW1 1657   0.211   3.197   6.947 -1.4804  0.4776  0.2954
  292SOL    HW2 1658   0.225   3.235   6.801 -0.2312  0.1796  0.3279
  293SOL     OW 1659   3.463   5.698   5.768  0.2816 -0.5235  0.2855
  293SOL    HW1 1660   3.507   5.665   5.846 -0.1158 -3.2883 -0.5311
  293SOL    HW2 1661   3.517   5.666   5.695  0.0238  1.0041 -0.6355
  294SOL     OW 1662   6.953   4.632   6.786 -0.1811  0.4259  0.4325
  294SOL    HW1 1663   6.905   4.713   6.772 -0.2707  0.8696  2.8957
  294SOL    HW2 1664   7.009   4.624   6.709 -0.4173  2.6283 -0.0411
  295SOL     OW 1665   7.312   3.532   3.012 -0.4310 -0.1961 -0.9532
  295SOL    HW1 1666   7.370   3.595   3.054 -1.1792 -1.2567  1.9020
  295SOL    HW2 1667   7.237   3.584   2.984 -1.0098  0.2636  1.2925
  296SOL     OW 1668   1.177   4.836   3.200  0.4874 -0.2020 -0.0893
  296SOL    HW1 1669   1.147   4.832   3.291  1.3797 -0.4993  0.2067
  296SOL    HW2 1670   1.200   4.928   3.186 -2.1204  0.4082 -0.8711
  297SOL     OW 1671   3.186   6.505   7.755 -0.9531 -0.0208 -0.3697
  297SOL    HW1 1672   3.230   6.552   7.683 -1.5636 -0.7055 -1.2177
  297SOL    HW2 1673   3.189   6.414   7.728  0.0452 -0.4751  1.1637
  298SOL     OW 1674   7.533   0.142   6.932 -0.5643 -0.4546  0.0407
  298SOL    HW1 1675   7.440   0.140   6.955 -0.1676 -2.0260  1.7817
  298SOL    HW2 1676   7.578   0.145   7.017  0.9782 -2.0728 -0.6596
  299SOL     OW 1677   7.677   6.287   4.719 -0.2918 -0.1866  0.2888
  299SOL    HW1 1678   7.760   6.289   4.767 -0.7239 -1.3956  1.1259
  299SOL    HW2 1679   7.702   6.273   4.628  0.3745 -3.3784  0.8587
  300SOL     OW 1680   7.645   2.426   1.415 -0.0790  0.0610 -0.3287
  300SOL    HW1 1681   7.576   2.483   1.380 -0.8140 -0.1848  0.6446
  300SOL    HW2 1682   7.637   2.345   1.365 -1.1335 -0.3000  0.3849
  301SOL     OW 1683   6.920   4.201   0.774  0.2157  0.4252  0.4076
  301SOL    HW1 1684   6.858   4.210   0.701  0.1505  1.3317  0.5676
  301SOL    HW2 1685   7.005   4.189   0.733  0.1827  0.9660  0.1819
  302SOL     OW 1686   4.445   7.389   6.896  0.2391  0.1463  0.3479
  302SOL    HW1 1687   4.379   7.357   6.958  0.0148 -1.3236 -0.5983
  302SOL    HW2 1688   4.457   7.481   6.919 -1.4855  0.2135  1.1113
  303SOL     OW 1689   0.695   5.672   3.548  0.2206 -0.2912  0.2955
  303SOL    HW1 1690   0.771   5.620   3.523 -0.9110 -1.6176 -0.4761
  303SOL    HW2 1691   0.725   5.763   3.542  1.6443 -0.7805 -0.2710
  304SOL     OW 1692   6.460   5.748   7.170  0.2250  0.2690  0.8569
  304SOL    HW1 1693   6.437   5.672   7.224 -0.5741 -0.4639 -0.4472
  304SOL    HW2 1694   6.380   5.768   7.122  0.7443  1.2660  0.3798
  305SOL     OW 1695   5.776   3.928   7.402  0.2104 -0.0932 -0.3605
  305SOL    HW1 1696   5.837   3.890   7.338  0.0239  0.9525 -1.1903
  305SOL    HW2 1697   5.760   3.858   7.465  1.7235 -0.6102 -0.5187
  306SOL     OW 1698   1.171   3.624   1.036  0.1315  0.2216 -0.4319
  306SOL    HW1 1699   1.261   3.595   1.051  0.0075 -0.5731 -1.2050
  306SOL    HW2 1700   1.128   3.549   0.995 -0.9979  0.4519  0.3093
  307SOL     OW 1701   0.409   1.853   2.973 -0.5708  0.1451 -0.6708
  307SOL    HW1 1702   0.353   1.851   2.896 -1.3171 -0.1882 -0.1298
  307SOL    HW2 1703   0.421   1.762   2.998 -0.1636  0.2360 -0.5074
  308SOL     OW 1704   4.226   2.235   5.401  0.0596 -0.1588 -0.5266
  308SOL    HW1 1705   4.151   2.276   5.443  0.4365  0.4729 -0.4440
  308SOL    HW2 1706   4.302   2.281   5.438  0.6596 -2.3264  1.1257
  309SOL     OW 1707   1.958   5.960   1.454  0.0735  0.3985 -0.0439
  309SOL    HW1 1708   1.880   6.003   1.418 -1.6867 -2.8180 -0.3499
  309SOL    HW2 1709   1.997   5.914   1.379  0.5224 -0.5132  0.7325
  310SOL     OW 1710   7.085   7.845   3.059 -0.0053  0.0173  0.1055
  310SOL    HW1 1711   7.066   7.936   3.034  0.5310  0.3507  0.8410
  310SOL    HW2 1712   7.158   7.820   3.003  0.1130  0.1857  0.1821
  311SOL     OW 1713   1.115   4.007   1.717  0.0689 -0.7064  0.3656
  311SOL    HW1 1714   1.148   3.918   1.702 -0.8614 -0.8208 -1.2070
  311SOL    HW2 1715   1.027   3.994   1.753 -0.5543 -0.4502 -1.0218
  312SOL     OW 1716   3.361   8.201   5.071 -0.5140 -0.1390 -0.2578
  312SOL    HW1 1717   3.403   8.160   5.147 -1.9281 -2.2808 -0.5349
  312SOL    HW2 1718   3.278   8.234   5.106 -0.2828  0.6797 -0.4738
  313SOL     OW 1719   7.607   6.644   2.093  0.1149  0.3564 -0.7637
  313SOL    HW1 1720   7.673   6.674   2.155 -0.9387 -0.5283  0.8860
  313SOL    HW2 1721   7.597   6.715   2.030  3.1410  0.1983 -1.5468
  314SOL     OW 1722   7.425   3.415   1.757  0.2404  0.1983 -0.2355
  314SOL    HW1 1723   7.506   3.457   1.785 -0.3941  1.4655 -0.2433
  314SOL    HW2 1724   7.381   3.481   1.705 -0.4095 -0.7813 -0.9555
  315SOL     OW 1725   1.252   0.488   0.197  0.1968  0.1745 -0.4846
  315SOL    HW1 1726   1.269   0.558   0.134  2.2770 -1.2229 -1.6025
  315SOL    HW2 1727   1.197   0.425   0.150 -0.0503  0.1426 -0.1581
  316SOL     OW 1728   4.853   0.797   3.134 -0.4042  0.5010  0.4814
  316SOL    HW1 1729   4.758   0.797   3.121 -0.3998  2.1175  0.1964
  316SOL    HW2 1730   4.877   0.704   3.140 -2.0973  0.0957  1.4003
  317SOL     OW 1731   1.063   4.109   4.487  0.0920  0.7417 -0.1574
  317SOL    HW1 1732   1.053   4.167   4.563  1.1933 -0.5450  1.0172
  317SOL    HW2 1733   0.973   4.093   4.458 -0.4897  0.2127  1.7374
  318SOL     OW 1734   1.361   0.866   2.238 -0.5204  0.4087 -0.0865
  318SOL    HW1 1735   1.274   0.903   2.229 -0.7836 -0.1809 -0.0137
  318SOL    HW2 1736   1.417   0.923   2.185 -0.6103  1.9178  1.3621
  319SOL     OW 1737   1.739   4.236   2.355  0.8437 -0.0940 -0.1605
  319SOL    HW1 1738   1.778   4.161   2.398  4.2389  1.3394 -0.4608
  319SOL    HW2 1739   1.702   4.201   2.274  0.3830 -1.7164  0.7108
  320SOL     OW 1740   6.020   0.058   1.890 -0.5961 -0.2906 -0.0439
  320SOL    HW1 1741   6.023  -0.026   1.936 -0.1576 -0.6455 -0.6977
  320SOL    HW2 1742   5.941   0.054   1.836 -0.9495  0.0054  0.4410
  321SOL     OW 1743   0.551   7.626   3.920  0.2626 -0.2402 -0.4376
  321SOL    HW1 1744   0.539   7.721   3.915  0.1044 -0.0620  1.9189
  321SOL    HW2 1745   0.526   7.604   4.010  0.0448 -2.5680 -1.0128
  322SOL     OW 1746   0.965   7.575   6.765  0.1962  0.2809  0.4049
  322SOL    HW1 1747   1.031   7.576   6.696  0.5883 -1.8734  0.6746
  322SOL    HW2 1748   1.004   7.627   6.836  0.7410  0.6710 -0.1730
  323SOL     OW 1749   4.436   1.714   6.823  0.0951  0.3716 -0.3790
  323SOL    HW1 1750   4.390   1.791   6.790  0.6476  1.3093  1.0021
  323SOL    HW2 1751   4.447   1.658   6.745 -0.7466  1.4407 -1.2982
  324SOL     OW 1752   6.863   4.632   6.100 -0.7519 -0.0917  0.0372
  324SOL    HW1 1753   6.807   4.612   6.026  0.6496 -0.2631 -1.0107
  324SOL    HW2 1754   6.848   4.561   6.162 -2.7103  0.5953  0.4136
  325SOL     OW 1755   1.840   3.372   1.957 -0.3944 -0.2045 -0.0983
  325SOL    HW1 1756   1.753   3.333   1.949 -0.4420 -0.0498 -0.3748
  325SOL    HW2 1757   1.828   3.462   1.927 -0.1864 -0.1168  0.0793
  326SOL     OW 1758   2.698   5.555   5.847 -0.1545 -0.1197  0.3106
  326SOL    HW1 1759   2.618   5.565   5.899 -0.2492  0.8734  0.0004
  326SOL    HW2 1760   2.739   5.641   5.849  1.5409 -0.8942  1.4357
  327SOL     OW 1761   3.534   1.119   5.763 -0.7148 -0.5173  0.0207
  327SOL    HW1 1762   3.583   1.201   5.766 -0.0723 -0.9170  0.7309
  327SOL    HW2 1763   3.497   1.116   5.675 -0.3719  0.3169 -0.1561
  328SOL     OW 1764   2.717   8.219   7.952 -0.3180  0.0655 -0.2185
  328SOL    HW1 1765   2.783   8.288   7.960  0.5863 -0.7320 -0.6333
  328SOL    HW2 1766   2.644   8.250   8.005  1.0023  0.2454  1.6028
  329SOL     OW 1767   0.726   4.840   4.770  0.3689  0.0625 -0.0122
  329SOL    HW1 1768   0.692   4.925   4.741  1.1775 -0.1960 -1.7911
  329SOL    HW2 1769   0.698   4.835   4.862  0.5714  2.3828  0.2580
  330SOL     OW 1770   1.379   4.014   1.022 -0.6024  0.2596  0.0810
  330SOL    HW1 1771   1.362   4.002   1.115 -0.6437 -0.7431 -0.0524
  330SOL    HW2 1772   1.322   3.951   0.978  0.0372  0.1345 -0.5861
  331SOL     OW 1773   2.320   3.319   4.631  0.4792  0.4498 -0.5369
  331SOL    HW1 1774   2.346   3.227   4.633  0.5279  0.4286 -1.5310
  331SOL    HW2 1775   2.318   3.346   4.723  1.1096 -0.3608 -0.2757
  332SOL     OW 1776   0.771   5.604   8.046  0.5991 -0.3612 -0.5957
  332SOL    HW1 1777   0.718   5.621   7.969 -0.7777  0.4436  0.4926
  332SOL    HW2 1778   0.811   5.518   8.028  0.8305  0.0843 -2.4440
  333SOL     OW 1779   0.455   6.573   1.547  0.1048  0.0392 -0.1576
  333SOL    HW1 1780   0.486   6.504   1.489 -0.8031 -2.1230  1.7981
  333SOL    HW2 1781   0.370   6.599   1.510  0.1768 -0.3029 -0.5673
  334SOL     OW 1782   7.751   2.253   0.012 -0.1164  0.5123 -0.0392
  334SOL    HW1 1783   7.809   2.259  -0.065 -1.3891 -3.2839 -1.5238
  334SOL    HW2 1784   7.798   2.197   0.073 -1.4241 -1.2990 -0.6008
  335SOL     OW 1785   6.205   1.516   6.933  0.3572 -0.1917  0.5066
  335SOL    HW1 1786   6.137   1.575   6.964  0.6257 -0.1477  1.0053
  335SOL    HW2 1787   6.286   1.566   6.940  0.5386 -0.5001  0.6066
  336SOL     OW 1788   1.703   6.825   2.243 -0.4015 -0.0806  0.0035
  336SOL    HW1 1789   1.739   6.827   2.155  0.8610  0.2224  0.4961
  336SOL    HW2 1790   1.746   6.751   2.286 -0.1669  0.4307  0.6833
  337SOL     OW 1791   1.165   3.708   1.776 -0.5430  0.0124  0.0601
  337SOL    HW1 1792   1.103   3.637   1.755  1.0954 -1.2492 -0.7375
  337SOL    HW2 1793   1.204   3.732   1.692  1.3057 -0.4630  0.7304
  338SOL     OW 1794   5.626   4.698   6.717 -0.0018  0.0377  0.2332
  338SOL    HW1 1795   5.627   4.773   6.658  1.9320  0.7356  1.0911
  338SOL    HW2 1796   5.702   4.646   6.693  0.7932  0.2903  1.9888
  339SOL     OW 1797   0.947   4.196   6.378  0.3719  0.2873 -0.2698
  339SOL    HW1 1798   0.870   4.252   6.389  0.8371  0.8433  0.2933
  339SOL    HW2 1799   0.976   4.211   6.288  0.7499  1.3127  0.0103
  340SOL     OW 1800   2.319   2.631   6.333  0.2515  0.2779  0.0471
  340SOL    HW1 1801   2.411   2.657   6.338 -0.0599  1.5591 -0.5844
  340SOL    HW2 1802   2.316   2.545   6.376  1.9450 -0.3331 -0.9726
  341SOL     OW 1803   7.527   2.913   0.256  0.0567  0.4469  0.0320
  341SOL    HW1 1804   7.483   2.858   0.191 -0.2000 -0.3193  0.8275
  341SOL    HW2 1805   7.610   2.869   0.272 -0.4162 -0.0831  1.1376
  342SOL     OW 1806   4.421   0.956   2.467 -0.5938 -0.1029 -0.4490
  342SOL    HW1 1807   4.482   0.888   2.438  1.3136  0.8538  1.0615
  342SOL    HW2 1808   4.355   0.909   2.518 -0.0725 -0.9924 -0.5764
  343SOL     OW 1809   2.476   2.632   0.338  0.3527  0.5826  0.3439
  343SOL    HW1 1810   2.515   2.666   0.257 -0.9196  3.2946  0.7367
  343SOL    HW2 1811   2.389   2.600   0.311  1.9587 -4.0040 -0.2547
  344SOL     OW 1812   3.317   5.107   0.151 -0.3317 -0.4029 -0.0774
  344SOL    HW1 1813   3.258   5.180   0.172 -0.7106 -0.8365  0.4042
  344SOL    HW2 1814   3.388   5.147   0.100 -0.4820  0.3130  0.2622
  345SOL     OW 1815   1.698   3.451   0.856 -0.3775 -0.0220  0.7203
  345SOL    HW1 1816   1.718   3.461   0.763  0.1822 -1.2674  0.6890
  345SOL    HW2 1817   1.783   3.453   0.900 -0.6662  0.9788  1.2653
  346SOL     OW 1818   5.680   4.602   3.568 -0.1013  0.1199  0.3416
  346SOL    HW1 1819   5.669   4.685   3.614 -1.4441 -0.6402  1.4988
  346SOL    HW2 1820   5.775   4.592   3.558  0.1193  1.3302  1.0436
  347SOL     OW 1821   7.824   3.383   7.427  0.0979 -0.0234 -0.0809
  347SOL    HW1 1822   7.741   3.425   7.404  0.1707 -1.3724 -3.2838
  347SOL    HW2 1823   7.886   3.456   7.434 -0.4331  0.7456 -2.3459
  348SOL     OW 1824   6.409   0.970   6.020 -0.1403  0.2884  0.2519
  348SOL    HW1 1825   6.476   0.984   5.953 -0.3134 -1.5601 -0.3942
  348SOL    HW2 1826   6.368   0.887   5.995 -1.6119  0.5806  1.5183
  349SOL     OW 1827   1.362   1.404   7.514  0.0612 -0.8001 -0.2759
  349SOL    HW1 1828   1.389   1.427   7.602  0.9608  0.6305 -0.8868
  349SOL    HW2 1829   1.369   1.309   7.510  1.1169 -0.7780  0.8368
  350SOL     OW 1830   0.264   7.019   2.901 -0.2412  0.7577  0.3614
  350SOL    HW1 1831   0.277   7.019   2.806  1.5168 -1.5681  0.5250
  350SOL    HW2 1832   0.339   7.067   2.936  0.3251 -0.3237  0.6567
  351SOL     OW 1833   2.535   0.518   2.007  0.6208 -0.6459  0.2929
  351SOL    HW1 1834   2.484   0.585   2.052 -1.0776 -1.5675 -0.1639
  351SOL    HW2 1835   2.609   0.566   1.969  0.5233  0.6145  1.5934
  352SOL     OW 1836   8.264   0.689   6.131  0.3925  0.0149 -0.2169
  352SOL    HW1 1837   8.171   0.668   6.123 -0.3020  1.9781  1.7376
  352SOL    HW2 1838   8.308   0.605   6.120 -1.3899 -0.6704 -3.3982
  353SOL     OW 1839   7.532   4.453   2.216  0.3128  0.2190 -0.0756
  353SOL    HW1 1840   7.548   4.547   2.213 -1.3643  0.5418  0.1518
  353SOL    HW2 1841   7.459   4.442   2.276 -0.4963 -1.0749 -1.2091
  354SOL     OW 1842   2.559   6.220   1.080  0.2645 -0.1891 -0.5872
  354SOL    HW1 1843   2.552   6.226   1.175  1.0012  2.0310 -0.6234
  354SOL    HW2 1844   2.608   6.297   1.054  2.8026 -2.2692 -2.5492
  355SOL     OW 1845   0.523   2.441   1.899 -0.0685 -0.3786  0.0476
  355SOL    HW1 1846   0.471   2.366   1.870 -1.1571  0.1716  0.5422
  355SOL    HW2 1847   0.476   2.475   1.975 -0.0801  1.3437 -0.6977
  356SOL     OW 1848   7.137   1.208   2.474 -0.1437  0.0476  0.0807
  356SOL    HW1 1849   7.106   1.118   2.465 -0.5050  0.3251 -1.8528
  356SOL    HW2 1850   7.068   1.252   2.524  0.0451 -0.7221  1.0597
  357SOL     OW 1851   1.287   0.753   6.614 -0.0562 -0.4186 -0.1328
  357SOL    HW1 1852   1.342   0.782   6.541 -0.6065 -0.2680 -0.4972
  357SOL    HW2 1853   1.239   0.678   6.579  0.5870 -1.1277  0.4740
  358SOL     OW 1854   8.029   2.698   2.758  0.3281  0.1725  0.1357
  358SOL    HW1 1855   7.939   2.711   2.787  0.1366 -1.5337  0.4114
  358SOL    HW2 1856   8.038   2.603   2.749  1.9215  0.3484 -0.4721
  359SOL     OW 1857   1.092   1.001   2.595  0.0318  0.8831  0.2245
  359SOL    HW1 1858   1.082   1.096   2.597  0.8238  0.9683  0.2701
  359SOL    HW2 1859   1.169   0.986   2.540 -0.8013  0.2013 -0.7858
  360SOL     OW 1860   2.408   6.775   4.776  0.2746  0.0853  0.2115
  360SOL    HW1 1861   2.331   6.819   4.739 -0.2913 -0.6668  0.4795
  360SOL    HW2 1862   2.461   6.753   4.700 -0.4044 -0.5551 -0.0861
  361SOL     OW 1863   7.085   6.850   2.861  0.3806 -0.2493 -0.9037
  361SOL    HW1 1864   7.158   6.910   2.853  0.7264 -0.3617  1.0432
  361SOL    HW2 1865   7.124   6.763   2.849  0.3962 -0.2529 -0.8288
  362SOL     OW 1866   3.035   3.271   7.695  0.1752  1.0667  0.4902
  362SOL    HW1 1867   3.115   3.225   7.717  0.3598  1.3815  0.4836
  362SOL    HW2 1868   3.038   3.282   7.600 -1.2630 -1.4926  0.0574
  363SOL     OW 1869   2.875   1.671   4.501  0.2409  0.2528 -0.2738
  363SOL    HW1 1870   2.842   1.752   4.463 -0.0865 -0.3578 -1.3478
  363SOL    HW2 1871   2.970   1.681   4.500  0.2352  0.3399 -1.0974
  364SOL     OW 1872   6.152   1.465   0.179 -0.3370 -0.4022  0.0115
  364SOL    HW1 1873   6.140   1.399   0.247  0.5462  0.9258  1.5013
  364SOL    HW2 1874   6.187   1.416   0.104 -2.3158 -2.0598  0.0963
  365SOL     OW 1875   7.382   1.904   0.609 -0.0421 -0.2979  0.2940
  365SOL    HW1 1876   7.436   1.836   0.571 -0.3318 -0.5089  0.2523
  365SOL    HW2 1877   7.294   1.866   0.611 -0.0268 -0.3106  1.2075
  366SOL     OW 1878   3.785   2.306   1.263  0.4677 -0.2261 -0.0553
  366SOL    HW1 1879   3.692   2.299   1.245  0.1573  0.5372  1.1590
  366SOL    HW2 1880   3.808   2.223   1.305 -0.0720  0.2796  1.2771
  367SOL     OW 1881   5.548   3.441   5.141 -0.5954  0.0395 -0.2669
  367SOL    HW1 1882   5.579   3.427   5.052 -2.4499  0.8415 -1.0856
  367SOL    HW2 1883   5.553   3.536   5.153 -1.4509  0.0504  0.0522
  368SOL     OW 1884   6.698   6.782   5.433  0.0273 -0.3732 -0.8858
  368SOL    HW1 1885   6.741   6.772   5.517  0.1358  2.2085 -0.5402
  368SOL    HW2 1886   6.767   6.768   5.368  0.7942  1.0355 -0.4074
  369SOL     OW 1887   1.839   2.626   2.581 -0.1629 -0.1689  0.0399
  369SOL    HW1 1888   1.748   2.596   2.581 -0.4175  0.5813 -0.0185
  369SOL    HW2 1889   1.873   2.599   2.496 -1.2391  2.1457 -1.2313
  370SOL     OW 1890   7.159   6.152   5.116  0.2540  0.0174 -0.3486
  370SOL    HW1 1891   7.160   6.173   5.209 -2.2943 -1.3260  0.0777
  370SOL    HW2 1892   7.162   6.056   5.113  0.4812  0.0429 -1.6660
  371SOL     OW 1893   5.332   3.879   3.870  0.1954  0.2626  0.4133
  371SOL    HW1 1894   5.282   3.956   3.898  0.3785  0.7052 -0.4313
  371SOL    HW2 1895   5.337   3.887   3.774  0.3978 -0.6939  0.3319
  372SOL     OW 1896   7.803   0.903   1.618 -0.4458 -0.0386  0.1061
  372SOL    HW1 1897   7.843   0.986   1.645 -2.4969  0.9329  0.3512
  372SOL    HW2 1898   7.853   0.877   1.541 -0.8910  2.3993 -1.0921
  373SOL     OW 1899   2.921   0.434   1.539 -0.3244  0.1778 -0.4966
  373SOL    HW1 1900   2.852   0.387   1.492 -0.6680 -0.6570  0.7934
  373SOL    HW2 1901   2.901   0.420   1.632  0.6273  1.3397 -0.0842
  374SOL     OW 1902   8.230   2.182   0.521  0.6677  0.0852  0.3763
  374SOL    HW1 1903   8.225   2.094   0.483  0.0978  0.0382  0.5449
  374SOL    HW2 1904   8.275   2.170   0.604  0.1557 -0.1331  0.6289
  375SOL     OW 1905   5.771   0.872   2.692  0.0698  0.4675 -0.1591
  375SOL    HW1 1906   5.714   0.805   2.653 -0.2525  0.7336 -0.1503
  375SOL    HW2 1907   5.762   0.947   2.633  0.0981  0.6467  0.0653
  376SOL     OW 1908   5.754   7.496   7.407 -0.1751 -0.0272 -0.1937
  376SOL    HW1 1909   5.783   7.478   7.318 -0.2843 -1.0000 -0.0404
  376SOL    HW2 1910   5.675   7.443   7.418  0.8612 -1.3972  1.0797
  377SOL     OW 1911   6.697   3.860   6.031 -0.2264 -0.5219 -0.0125
  377SOL    HW1 1912   6.684   3.835   5.940  0.0429 -1.4805  0.1939
  377SOL    HW2 1913   6.620   3.827   6.077 -1.3170  1.6504 -0.1604
  378SOL     OW 1914   7.348   2.741   5.332  0.1997 -0.0220  0.2202
  378SOL    HW1 1915   7.311   2.822   5.296  1.1772 -0.0083 -0.8057
  378SOL    HW2 1916   7.305   2.671   5.283 -0.0126 -0.0813  0.4958
  379SOL     OW 1917   6.514   6.740   2.046  0.0246 -0.2738 -0.4106
  379SOL    HW1 1918   6.491   6.833   2.053 -1.2796 -0.6224  0.2046
  379SOL    HW2 1919   6.523   6.711   2.137 -0.1534 -0.8941 -0.5906
  380SOL     OW 1920   3.026   0.885   1.175 -0.3104  0.3871 -0.1556
  380SOL    HW1 1921   3.035   0.920   1.263 -0.7314  1.7299 -0.6191
  380SOL    HW2 1922   3.116   0.867   1.146 -0.2503 -3.3623  1.7334
  381SOL     OW 1923   7.967   6.806   5.063  0.0535  0.0218  0.7981
  381SOL    HW1 1924   7.972   6.901   5.051 -0.1688 -0.1612 -0.8901
  381SOL    HW2 1925   8.048   6.772   5.024 -0.6042 -0.5992 -0.0676
  382SOL     OW 1926   2.459   5.781   3.474 -0.7498 -0.8525  0.1595
  382SOL    HW1 1927   2.551   5.781   3.449 -1.0107 -0.4996 -0.8586
  382SOL    HW2 1928   2.458   5.745   3.563  0.5079  0.4444  0.7476
  383SOL     OW 1929   2.744   1.808   6.749 -0.0860 -0.3448  0.6035
  383SOL    HW1 1930   2.711   1.875   6.809 -2.2449  0.5588 -1.4474
  383SOL    HW2 1931   2.677   1.801   6.681  1.3064 -2.7534 -0.6656
  384SOL     OW 1932   1.021   3.592   3.300 -0.1278 -0.3058  0.7163
  384SOL    HW1 1933   0.962   3.638   3.241  0.4553  0.0494  0.4069
  384SOL    HW2 1934   0.990   3.501   3.300 -0.6365 -0.1324  0.5181
  385SOL     OW 1935   7.228   5.150   7.390 -0.0716 -0.4174  0.5935
  385SOL    HW1 1936   7.278   5.221   7.352 -0.2043 -1.0651 -0.8547
  385SOL    HW2 1937   7.144   5.153   7.344 -1.1845  0.2751  2.5470
  386SOL     OW 1938   5.125   3.327   3.445  0.3150  0.5152  0.6263
  386SOL    HW1 1939   5.190   3.301   3.510 -1.0223  0.2696  1.9098
  386SOL    HW2 1940   5.153   3.283   3.365  0.1118 -2.0616  1.8626
  387SOL     OW 1941   6.402   6.576   7.188 -0.2072 -0.8442 -0.9247
  387SOL    HW1 1942   6.356   6.659   7.171  0.3241  0.1497  1.8283
  387SOL    HW2 1943   6.338   6.508   7.166 -1.5107  0.3686 -1.0679
  388SOL     OW 1944   0.246   5.654   6.301 -0.1469  0.5104  0.0521
  388SOL    HW1 1945   0.315   5.709   6.265 -0.4346  0.9994  0.2370
  388SOL    HW2 1946   0.165   5.701   6.280 -0.4167 -0.0244 -0.1042
  389SOL     OW 1947   5.213   4.875   8.042  0.0042  0.0660 -0.0300
  389SOL    HW1 1948   5.197   4.854   7.950 -1.7659 -2.5065  0.7209
  389SOL    HW2 1949   5.302   4.846   8.059  0.6336  1.3111 -1.0803
  390SOL     OW 1950   4.240   3.052   2.605  0.0126 -0.1638  0.0460
  390SOL    HW1 1951   4.207   3.007   2.527 -1.2970 -0.2327  0.5988
  390SOL    HW2 1952   4.306   3.113   2.572  1.3099 -1.9676 -0.8019
  391SOL     OW 1953   2.873   6.934   6.615  0.0897  0.2463  0.7390
  391SOL    HW1 1954   2.964   6.945   6.590  0.4717 -2.0103  0.9324
  391SOL    HW2 1955   2.847   7.020   6.649  1.9320  1.1066  0.0978
  392SOL     OW 1956   6.814   7.565   3.405 -0.5323  0.0759  0.1413
  392SOL    HW1 1957   6.784   7.568   3.496  0.3694 -0.4679  0.4755
  392SOL    HW2 1958   6.832   7.656   3.383 -1.4570  0.2896  0.2613
  393SOL     OW 1959   2.653   2.960   2.140  0.3074  0.1848 -0.7806
  393SOL    HW1 1960   2.574   2.990   2.184  0.5271 -0.7164  0.2426
  393SOL    HW2 1961   2.628   2.876   2.101  1.2922 -1.1734  1.3339
  394SOL     OW 1962   2.757   4.564   6.504 -0.1330  0.2180 -0.3916
  394SOL    HW1 1963   2.674   4.516   6.507  0.3453 -0.7522 -1.6003
  394SOL    HW2 1964   2.804   4.534   6.582 -0.9666  0.8909  0.3822
  395SOL     OW 1965   2.260   4.809   4.278 -0.3843  0.4479  0.0718
  395SOL    HW1 1966   2.181   4.789   4.228  0.1100 -1.1154 -0.1424
  395SOL    HW2 1967   2.228   4.833   4.365 -1.1470  1.1614 -0.3860
  396SOL     OW 1968   1.993   6.304   1.709  0.1939  0.5454  0.1250
  396SOL    HW1 1969   1.908   6.261   1.708 -0.5814  1.9627  1.6360
  396SOL    HW2 1970   2.051   6.243   1.755  0.3457 -0.9286 -1.8852
  397SOL     OW 1971   7.246   0.196   2.742 -0.7331 -0.1453 -0.3722
  397SOL    HW1 1972   7.329   0.220   2.700  0.6217 -1.6018  1.3160
  397SOL    HW2 1973   7.189   0.169   2.669  0.6233 -0.1260 -1.4783
  398SOL     OW 1974   1.312   4.978   5.116 -0.4228 -0.3017  0.0274
  398SOL    HW1 1975   1.249   5.024   5.170 -1.0992  0.0907 -1.0573
  398SOL    HW2 1976   1.356   5.047   5.066  1.4186 -0.4974  1.2995
  399SOL     OW 1977   0.584   1.922   8.265  0.1217  0.0990  0.3930
  399SOL    HW1 1978   0.676   1.942   8.247  0.3168  0.2607  1.5329
  399SOL    HW2 1979   0.568   1.839   8.218  0.2468  1.0942 -1.5310
  400SOL     OW 1980   5.098   0.641   5.217  0.3761  0.0265 -0.4190
  400SOL    HW1 1981   5.089   0.561   5.269 -0.3909  0.1363 -0.3765
  400SOL    HW2 1982   5.122   0.709   5.281  0.3897 -0.0397 -0.3535
  401SOL     OW 1983   3.282   6.046   2.674  0.4169  0.2557 -0.7691
  401SOL    HW1 1984   3.230   6.013   2.602  0.5491 -1.5220 -0.0975
  401SOL    HW2 1985   3.371   6.016   2.655  0.5420  0.2164 -0.1477
  402SOL     OW 1986   3.786   5.849   6.335 -0.6920  0.3813  0.2909
  402SOL    HW1 1987   3.863   5.895   6.369  0.8110 -1.2497 -0.6866
  402SOL    HW2 1988   3.767   5.892   6.252 -0.2246  0.2338  0.0976
  403SOL     OW 1989   0.555   6.450   0.878  0.3199 -0.5652  0.2417
  403SOL    HW1 1990   0.594   6.471   0.793 -0.0147  0.0442  0.2355
  403SOL    HW2 1991   0.626   6.410   0.928  0.6404 -0.5051 -0.1618
  404SOL     OW 1992   0.408   4.275   7.833 -0.6382  0.3420 -0.2267
  404SOL    HW1 1993   0.355   4.252   7.757  0.6036 -1.8608 -0.4876
  404SOL    HW2 1994   0.478   4.330   7.799  0.0481 -0.8312 -0.7391
  405SOL     OW 1995   4.873   2.519   1.658 -0.0169  0.3261 -0.0352
  405SOL    HW1 1996   4.875   2.558   1.746  2.9758 -1.0408  0.6277
  405SOL    HW2 1997   4.947   2.559   1.613  0.6740 -1.5623 -0.6745
  406SOL     OW 1998   1.357   5.944   7.604 -0.2704 -0.2971 -0.2718
  406SOL    HW1 1999   1.320   5.866   7.646  0.6415 -1.0428 -0.8261
  406SOL    HW2 2000   1.316   5.946   7.518 -0.7806  0.2158 -0.0254
  407SOL     OW 2001   5.446   3.442   2.747  0.8132  0.0263  0.5483
  407SOL    HW1 2002   5.353   3.417   2.752  0.6289 -0.0682 -1.9770
  407SOL    HW2 2003   5.444   3.538   2.744  0.8802  0.0580  1.2822
  408SOL     OW 2004   7.386   4.792   5.200 -0.2914  0.1723  0.0079
  408SOL    HW1 2005   7.357   4.774   5.111  0.3521  0.3043 -0.2384
  408SOL    HW2 2006   7.319   4.754   5.256  0.0463 -1.2220 -0.5118
  409SOL     OW 2007   6.403   7.331   4.243  0.1318 -0.5545 -0.0360
  409SOL    HW1 2008   6.332   7.294   4.295 -2.3452  0.6422 -2.2961
  409SOL    HW2 2009   6.464   7.258   4.229  0.9546 -0.9533  4.2497
  410SOL     OW 2010   1.040   0.541   1.342  0.5597 -0.2027 -0.7059
  410SOL    HW1 2011   1.038   0.625   1.388  0.8570 -1.4118  1.6871
  410SOL    HW2 2012   1.053   0.565   1.250 -2.5910  2.4933 -0.6545
  411SOL     OW 2013   2.902   6.716   3.926 -0.2020  0.6172 -0.0012
  411SOL    HW1 2014   2.834   6.701   3.861 -0.3224 -3.7954  0.8796
  411SOL    HW2 2015   2.981   6.731   3.874 -1.0515  1.6876 -1.0455
  412SOL     OW 2016   3.839   3.351   5.107 -0.2944  0.0435 -0.3643
  412SOL    HW1 2017   3.888   3.308   5.177 -0.0749  1.0690  0.1296
  412SOL    HW2 2018   3.772   3.288   5.082 -0.6672 -0.1692  1.0908
  413SOL     OW 2019   5.933   7.520   1.924  0.7302  0.0094  0.7764
  413SOL    HW1 2020   5.929   7.591   1.860 -2.8885 -0.2034  0.5286
  413SOL    HW2 2021   6.011   7.538   1.976  0.5341  3.6291  0.0900
  414SOL     OW 2022   2.488   7.751   0.913  0.2881 -0.3771 -0.7991
  414SOL    HW1 2023   2.400   7.713   0.906  0.9859 -1.9909 -1.2573
  414SOL    HW2 2024   2.496   7.808   0.836  0.3843 -1.8599 -1.9190
  415SOL     OW 2025   4.180   4.498   6.529  0.4462  0.1073  0.9516
  415SOL    HW1 2026   4.148   4.570   6.475 -1.0446 -1.0726  0.2303
  415SOL    HW2 2027   4.276   4.501   6.518  0.3678  1.5810  0.4603
  416SOL     OW 2028   4.994   3.338   2.583 -0.2805 -0.2344  0.0422
  416SOL    HW1 2029   5.025   3.421   2.620 -1.0419  0.4445 -0.7784
  416SOL    HW2 2030   4.907   3.326   2.619 -0.1369 -0.7353  0.2312
  417SOL     OW 2031   3.708   3.070   2.660 -0.1774 -0.2319  0.4919
  417SOL    HW1 2032   3.756   3.063   2.743  0.5137 -1.5185  0.0219
  417SOL    HW2 2033   3.630   3.121   2.682 -0.0041 -0.5220  1.9387
  418SOL     OW 2034   3.826   7.808   7.000 -0.7072 -0.0026  0.0008
  418SOL    HW1 2035   3.885   7.820   6.926 -1.2260  0.1755 -0.3927
  418SOL    HW2 2036   3.747   7.855   6.975 -1.2340 -0.7315  0.2651
  419SOL     OW 2037   6.290   2.161   7.420 -0.2386  0.5311 -0.2079
  419SOL    HW1 2038   6.255   2.084   7.375  1.1050 -1.0417  1.2700
  419SOL    HW2 2039   6.216   2.197   7.467 -0.7844 -0.1903 -0.4849
  420SOL     OW 2040   5.461   7.954   6.317 -0.2525 -0.0281 -0.3539
  420SOL    HW1 2041   5.507   7.936   6.399 -0.5807  0.1692 -0.1238
  420SOL    HW2 2042   5.432   8.045   6.326 -0.9114 -0.2323 -0.3858
  421SOL     OW 2043   3.364   4.342   3.658  0.2896  0.2697 -0.2374
  421SOL    HW1 2044   3.329   4.304   3.577 -0.2592 -0.5039  0.3534
  421SOL    HW2 2045   3.452   4.304   3.666  0.8424  1.3067 -1.1036
  422SOL     OW 2046   3.993   1.572   2.075  0.7896  0.2149  0.2446
  422SOL    HW1 2047   3.964   1.520   2.000  1.4430  2.1622 -1.4439
  422SOL    HW2 2048   3.912   1.597   2.120  0.4024 -1.1276  0.3404
  423SOL     OW 2049   1.112   0.593   1.063  0.0902 -0.2415  0.1036
  423SOL    HW1 2050   1.139   0.681   1.089  0.2420 -0.8598  2.3169
  423SOL    HW2 2051   1.194   0.544   1.057 -0.1111 -0.6913  0.8804
  424SOL     OW 2052   2.668   2.131   2.161  0.1126 -0.2678  0.0233
  424SOL    HW1 2053   2.637   2.128   2.070  0.9678  1.6283 -0.3914
  424SOL    HW2 2054   2.761   2.153   2.153  0.1415  0.1606  1.3668
  425SOL     OW 2055   4.150   6.237   4.070 -0.0620 -0.0137  0.1727
  425SOL    HW1 2056   4.193   6.266   4.150  1.7917  0.1946 -0.8533
  425SOL    HW2 2057   4.185   6.150   4.054  1.4238  0.8395 -1.6147
  426SOL     OW 2058   2.441   3.104   4.956 -0.2944  0.3321 -0.2819
  426SOL    HW1 2059   2.362   3.061   4.987  0.8125 -0.5021  1.5071
  426SOL    HW2 2060   2.415   3.195   4.942 -1.8149 -0.1582 -0.7960
  427SOL     OW 2061   6.985   6.502   5.538 -0.0682 -0.2927 -0.3025
  427SOL    HW1 2062   6.909   6.550   5.573 -0.5528 -0.7229 -0.7433
  427SOL    HW2 2063   7.002   6.543   5.453  0.0873 -0.3092 -0.2790
  428SOL     OW 2064   5.181   4.798   3.228  0.6176  0.3166 -0.2358
  428SOL    HW1 2065   5.087   4.789   3.247  0.7933  0.5514  0.8035
  428SOL    HW2 2066   5.188   4.879   3.178  0.1249 -0.3777 -1.4757
  429SOL     OW 2067   1.064   6.577   1.961  0.4254  0.0770 -0.4476
  429SOL    HW1 2068   1.018   6.497   1.987  0.9511 -0.3222 -0.7478
  429SOL    HW2 2069   1.035   6.594   1.871  0.6426 -0.0117 -0.5338
  430SOL     OW 2070   3.173   6.042   2.926 -0.1609  0.5805 -0.0870
  430SOL    HW1 2071   3.082   6.020   2.909 -0.7561  3.6818 -1.6161
  430SOL    HW2 2072   3.213   6.049   2.839  1.0294  1.1310  0.4734
  431SOL     OW 2073   6.872   3.113   0.769  0.3132 -0.3673 -0.0290
  431SOL    HW1 2074   6.872   3.208   0.778  0.6297 -0.4272  0.6724
  431SOL    HW2 2075   6.910   3.081   0.851 -0.5750 -1.1322  0.1075
  432SOL     OW 2076   4.559   0.192   5.371  0.3353 -0.0964 -0.3975
  432SOL    HW1 2077   4.616   0.269   5.367  1.5941 -0.7971  2.2085
  432SOL    HW2 2078   4.480   0.223   5.417  0.8460 -0.3250  0.6598
  433SOL     OW 2079   7.154   7.220   5.266 -0.3632  0.0366 -0.4840
  433SOL    HW1 2080   7.092   7.292   5.257 -0.6482 -0.2544 -0.9442
  433SOL    HW2 2081   7.102   7.142   5.248  0.4098 -0.1233 -2.3147
  434SOL     OW 2082   4.137   0.838   4.400 -0.5460  0.1690  0.1732
  434SOL    HW1 2083   4.200   0.904   4.429  0.4716 -0.8525  0.3559
  434SOL    HW2 2084   4.092   0.879   4.327 -0.2161  1.2154  0.5334
  435SOL     OW 2085   4.798   2.032   0.436  0.8219 -0.0697 -0.1618
  435SOL    HW1 2086   4.728   2.014   0.373  0.9876  1.2429 -0.7614
  435SOL    HW2 2087   4.763   2.002   0.520 -0.1895 -0.0573 -0.5630
  436SOL     OW 2088   2.790   7.082   6.925  0.7978 -0.0646 -0.4264
  436SOL    HW1 2089   2.738   7.096   6.845 -1.4856 -0.8044  0.8533
  436SOL    HW2 2090   2.770   7.158   6.980 -0.1187 -1.0341  0.6427
  437SOL     OW 2091   2.534   2.199   5.962  0.1994 -0.2406  0.1752
  437SOL    HW1 2092   2.583   2.272   5.999  0.4309  0.5280 -1.5873
  437SOL    HW2 2093   2.491   2.159   6.038  2.1877  0.0673  1.5440
  438SOL     OW 2094   6.716   1.599   6.663 -0.1473 -0.0659 -0.2601
  438SOL    HW1 2095   6.705   1.646   6.581 -1.4199  1.2712  0.6232
  438SOL    HW2 2096   6.787   1.645   6.708 -1.4415  1.1418  0.6366
  439SOL     OW 2097   2.762   3.777   8.212  0.2522  0.4268  0.0571
  439SOL    HW1 2098   2.791   3.867   8.208 -0.7178  0.7189 -1.2119
  439SOL    HW2 2099   2.671   3.780   8.181 -0.5346 -0.6801  2.0582
  440SOL     OW 2100   1.531   3.080   7.070  0.7763  0.1162  0.1845
  440SOL    HW1 2101   1.523   3.176   7.068  0.8322  0.1166 -0.0964
  440SOL    HW2 2102   1.455   3.049   7.021  1.3808  0.0591 -0.7535
  441SOL     OW 2103   4.413   2.136   2.199  0.2377 -0.3389  0.6041
  441SOL    HW1 2104   4.366   2.153   2.117 -0.0670  0.9270  1.0149
  441SOL    HW2 2105   4.485   2.078   2.174 -0.7906 -1.2747 -0.2677
  442SOL     OW 2106   2.159   5.020   2.428  0.0698  0.5456  0.0919
  442SOL    HW1 2107   2.142   5.072   2.349 -0.4770  1.9503  1.1045
  442SOL    HW2 2108   2.239   5.058   2.465 -0.0869  0.3812  0.6062
  443SOL     OW 2109   1.878   6.956   1.201  0.3308  0.5770  0.3088
  443SOL    HW1 2110   1.973   6.960   1.207  0.5937 -2.3679 -0.4715
  443SOL    HW2 2111   1.860   6.945   1.107 -1.0293  3.6114  0.0694
  444SOL     OW 2112   6.748   2.413   3.744 -0.5368 -0.2500 -0.3602
  444SOL    HW1 2113   6.754   2.509   3.748  0.5579 -0.3354  0.7853
  444SOL    HW2 2114   6.694   2.396   3.667 -0.4717  1.2810 -0.7900
  445SOL     OW 2115   0.469   0.549   7.497 -0.2463  0.8057 -0.3339
  445SOL    HW1 2116   0.547   0.600   7.516 -0.6135  1.7439 -1.2017
  445SOL    HW2 2117   0.454   0.562   7.403 -1.6667  0.9895 -0.1113
  446SOL     OW 2118   6.330   6.815   3.697 -0.2482 -0.9720  0.0778
  446SOL    HW1 2119   6.312   6.759   3.773 -1.7337 -0.3971  0.1982
  446SOL    HW2 2120   6.317   6.904   3.730  2.3218 -0.4712 -0.0398
  447SOL     OW 2121   8.070   2.730   3.803  0.2426 -0.2220 -0.0303
  447SOL    HW1 2122   8.164   2.715   3.796  0.1648 -1.3347  1.0612
  447SOL    HW2 2123   8.037   2.718   3.714  1.3488  2.1459 -0.8480
  448SOL     OW 2124   8.007   0.093   0.435  0.0489 -0.2874  0.4919
  448SOL    HW1 2125   8.087   0.056   0.472 -0.3071  0.2245  1.8489
  448SOL    HW2 2126   8.016   0.080   0.341  3.0057  2.2058  0.2893
  449SOL     OW 2127   1.962   2.451   8.281 -0.1342 -0.2159  0.3008
  449SOL    HW1 2128   2.057   2.455   8.274  0.1052 -0.7871  2.3712
  449SOL    HW2 2129   1.943   2.498   8.362 -1.4326 -1.4816  0.7778
  450SOL     OW 2130   4.009   4.959   6.963 -0.1509  0.8066 -0.1692
  450SOL    HW1 2131   4.027   4.958   6.869 -0.3326 -1.1904 -0.2338
  450SOL    HW2 2132   3.942   5.026   6.974 -0.0401  1.1545 -1.4364
  451SOL     OW 2133   1.362   7.519   6.424  0.5462  0.1667 -0.7674
  451SOL    HW1 2134   1.455   7.530   6.403  1.0962 -0.3788  1.1155
  451SOL    HW2 2135   1.315   7.561   6.352  2.2748  2.2752 -0.7574
  452SOL     OW 2136   5.357   6.812   3.061 -0.0265  0.3610  0.1524
  452SOL    HW1 2137   5.343   6.842   3.151  1.2526 -0.2882  0.5996
  452SOL    HW2 2138   5.388   6.722   3.071  0.8565  0.5308 -0.8958
  453SOL     OW 2139   1.550   6.603   6.080  0.2894 -0.2600  0.0449
  453SOL    HW1 2140   1.493   6.651   6.020  1.7626 -0.1604 -1.3471
  453SOL    HW2 2141   1.562   6.518   6.038 -0.3331 -0.9805  1.2725
  454SOL     OW 2142   1.486   3.977   4.171 -0.1023  0.3046  0.5475
  454SOL    HW1 2143   1.497   3.970   4.266 -0.5404  2.1954  0.7904
  454SOL    HW2 2144   1.420   4.045   4.160 -0.4034 -0.2132 -1.1221
  455SOL     OW 2145   3.824   3.623   0.102 -0.3917  0.2542 -0.4783
  455SOL    HW1 2146   3.800   3.541   0.144  1.0179  0.8885  1.7783
  455SOL    HW2 2147   3.746   3.678   0.109 -0.4998 -0.0051  0.4470
  456SOL     OW 2148   2.562   3.866   6.678 -0.0257 -0.2046  0.3078
  456SOL    HW1 2149   2.467   3.865   6.688 -0.0714 -0.5183 -0.1530
  456SOL    HW2 2150   2.587   3.955   6.701 -0.3436 -0.3262  1.1944
  457SOL     OW 2151   6.010   4.711   0.739 -0.2214 -0.3146 -0.0461
  457SOL    HW1 2152   5.974   4.682   0.655 -2.5122 -1.6105  1.2904
  457SOL    HW2 2153   5.936   4.754   0.783  0.8365  0.0187  1.4719
  458SOL     OW 2154   3.648   5.723   1.803 -0.0438 -0.2726 -0.3495
  458SOL    HW1 2155   3.721   5.780   1.780  0.4121 -0.6488  0.1328
  458SOL    HW2 2156   3.570   5.774   1.782  0.3309  1.0125  1.1843
  459SOL     OW 2157   6.639   4.255   6.339  0.4078 -0.6653 -0.6559
  459SOL    HW1 2158   6.586   4.210   6.273  0.4667  0.3674 -1.4193
  459SOL    HW2 2159   6.578   4.312   6.385  0.4449 -1.0876 -0.0741
  460SOL     OW 2160   2.585   4.161   1.793  0.1102  0.6123 -0.1007
  460SOL    HW1 2161   2.636   4.217   1.851  3.0133 -1.1913 -0.6981
  460SOL    HW2 2162   2.644   4.142   1.720 -1.9665 -0.4803 -1.6020
  461SOL     OW 2163   7.509   0.575   6.362 -0.2801 -0.0948  0.0855
  461SOL    HW1 2164   7.586   0.520   6.370 -1.4338 -2.8175 -4.2207
  461SOL    HW2 2165   7.436   0.519   6.390 -1.0452  1.3293  1.1019
  462SOL     OW 2166   6.419   6.799   4.100  0.8324  0.5811 -0.0158
  462SOL    HW1 2167   6.342   6.781   4.046  1.7130  0.9443 -1.4158
  462SOL    HW2 2168   6.441   6.714   4.139  2.3156 -0.5871 -3.0795
  463SOL     OW 2169   4.881   8.079   2.587  0.2651  0.5333 -0.3410
  463SOL    HW1 2170   4.901   8.172   2.579  3.5357  0.0219  0.4178
  463SOL    HW2 2171   4.886   8.061   2.681 -3.1648  0.0176 -0.1361
  464SOL     OW 2172   6.114   1.128   3.578 -1.0110  0.5555 -0.1723
  464SOL    HW1 2173   6.020   1.120   3.596 -0.7962  0.4657  1.0132
  464SOL    HW2 2174   6.121   1.199   3.514 -1.9802 -0.3581 -1.3508
  465SOL     OW 2175   3.932   3.619   5.098  0.1875 -0.1680 -0.1114
  465SOL    HW1 2176   4.012   3.611   5.047 -0.8758 -0.8115 -1.7689
  465SOL    HW2 2177   3.900   3.529   5.108 -1.4724  0.2194 -1.4616
  466SOL     OW 2178   7.492   5.059   4.769 -0.4010  0.3229 -0.3282
  466SOL    HW1 2179   7.530   5.068   4.681  0.1783  0.7105 -0.0485
  466SOL    HW2 2180   7.556   5.101   4.826 -0.9624  0.4150  0.2358
  467SOL     OW 2181   2.965   1.433   6.068  0.3027 -0.2087 -0.1554
  467SOL    HW1 2182   2.995   1.384   5.992 -2.9652 -0.9127 -1.1798
  467SOL    HW2 2183   2.972   1.525   6.042 -0.8552 -0.4465 -1.4335
  468SOL     OW 2184   2.192   4.861   3.562 -0.3730 -0.2487  0.1239
  468SOL    HW1 2185   2.103   4.865   3.527 -1.1567  0.0323  2.0494
  468SOL    HW2 2186   2.245   4.831   3.488 -2.3398 -2.2893 -0.5703
  469SOL     OW 2187   3.990   2.217   3.069  0.0198 -0.6294  0.5673
  469SOL    HW1 2188   3.904   2.175   3.058  0.0242 -0.4912 -0.0515
  469SOL    HW2 2189   4.053   2.148   3.052  0.0303 -0.7372  1.0479
  470SOL     OW 2190   5.802   3.087   6.231 -0.8141 -0.4240 -0.4541
  470SOL    HW1 2191   5.772   3.047   6.150 -0.1288 -1.8481 -0.0478
  470SOL    HW2 2192   5.894   3.059   6.239 -0.7907 -0.0976  0.6601
  471SOL     OW 2193   7.967   3.418   6.990 -0.2837 -0.7122  0.3566
  471SOL    HW1 2194   7.917   3.474   7.048  0.7814 -1.2443  1.8378
  471SOL    HW2 2195   8.017   3.361   7.048  1.1905 -0.9512 -1.0595
  472SOL     OW 2196   8.169   8.137   5.236 -0.3534 -0.2564 -0.6346
  472SOL    HW1 2197   8.074   8.127   5.236 -0.1917 -2.0724 -0.7805
  472SOL    HW2 2198   8.203   8.049   5.218  1.3896 -0.2152  1.8947
  473SOL     OW 2199   0.609   5.843   1.083 -0.0988  0.1779  0.3400
  473SOL    HW1 2200   0.675   5.776   1.097 -1.5820 -1.6904 -1.1537
  473SOL    HW2 2201   0.628   5.878   0.996 -0.6617  0.1047  0.1850
  474SOL     OW 2202   5.989   5.135   4.930 -0.0890  0.0575  0.3222
  474SOL    HW1 2203   6.039   5.203   4.886 -0.3174 -0.9790 -1.6816
  474SOL    HW2 2204   5.912   5.180   4.964  0.8815  1.1843  1.1075
  475SOL     OW 2205   0.851   0.668   4.057 -0.2868  0.3821  0.9097
  475SOL    HW1 2206   0.760   0.658   4.081 -1.1103  3.3393 -0.4917
  475SOL    HW2 2207   0.884   0.737   4.114  0.5540  0.5687  0.2192
  476SOL     OW 2208   0.475   8.237   1.894  0.6229 -0.0968 -0.4447
  476SOL    HW1 2209   0.441   8.249   1.983  1.4575  1.1103 -0.2666
  476SOL    HW2 2210   0.569   8.228   1.905  0.5001 -2.9447 -0.9815
  477SOL     OW 2211   7.862   2.571   1.090  0.4450  0.0731 -0.2157
  477SOL    HW1 2212   7.828   2.545   1.004  0.1031 -1.3336  0.3078
  477SOL    HW2 2213   7.932   2.507   1.108 -0.1837 -0.3100  0.9948
  478SOL     OW 2214   0.529   3.106   4.612  0.5992 -0.0737  0.2073
  478SOL    HW1 2215   0.474   3.174   4.651 -2.1345 -2.8927  1.7040
  478SOL    HW2 2216   0.488   3.088   4.528  2.2408  1.0341 -0.9093
  479SOL     OW 2217   1.056   4.363   3.707  0.2379 -0.4502 -0.1383
  479SOL    HW1 2218   1.022   4.378   3.795 -1.0030 -1.3661 -0.4375
  479SOL    HW2 2219   1.106   4.442   3.687  0.1625 -0.0310  1.2001
  480SOL     OW 2220   5.729   3.041   7.404 -0.0921 -0.2211 -0.1793
  480SOL    HW1 2221   5.730   3.061   7.498 -2.8631 -0.2838 -0.0481
  480SOL    HW2 2222   5.679   2.959   7.397  1.0729 -0.8482 -1.6350
  481SOL     OW 2223   1.506   7.272   4.308 -0.1998  0.2997  0.2760
  481SOL    HW1 2224   1.580   7.273   4.247  1.5866  0.5165  2.3161
  481SOL    HW2 2225   1.449   7.342   4.277  1.3690  1.3784 -0.3219
  482SOL     OW 2226   4.672   1.116   3.378  0.0616 -0.0896 -0.5337
  482SOL    HW1 2227   4.663   1.169   3.298  2.1358 -0.3077 -0.9606
  482SOL    HW2 2228   4.597   1.057   3.376 -1.2416  1.5107 -1.0499
  483SOL     OW 2229   5.804   6.480   2.673 -0.0578 -0.2340 -0.1894
  483SOL    HW1 2230   5.870   6.442   2.616 -0.2774 -0.3433 -0.3721
  483SOL    HW2 2231   5.781   6.409   2.734 -0.7866 -0.5376 -0.8094
  484SOL     OW 2232   5.059   7.031   7.903  0.9906  0.6476  0.3205
  484SOL    HW1 2233   5.056   7.024   7.808 -1.4773  0.1128  0.3565
  484SOL    HW2 2234   5.139   6.985   7.929  2.2470  1.6919 -1.5172
  485SOL     OW 2235   0.858   4.233   1.735 -0.0901  0.4118  0.0765
  485SOL    HW1 2236   0.879   4.200   1.822 -0.2977  0.2437  0.0647
  485SOL    HW2 2237   0.856   4.155   1.679 -2.0507  0.2236  0.3365
  486SOL     OW 2238   2.014   7.963   4.175  0.7532 -0.2536 -0.3852
  486SOL    HW1 2239   2.070   8.020   4.123  1.0084 -0.1110  0.0436
  486SOL    HW2 2240   2.074   7.915   4.232  0.3812  0.4876  0.6527
  487SOL     OW 2241   4.518   0.704   7.917  0.0691  0.5674 -0.8722
  487SOL    HW1 2242   4.543   0.661   7.835 -1.1225 -0.0928 -0.9273
  487SOL    HW2 2243   4.578   0.668   7.983  0.4737  0.4497 -1.3008
  488SOL     OW 2244   0.800   1.552   3.337 -0.3079 -0.7486  0.3688
  488SOL    HW1 2245   0.868   1.606   3.295 -1.4169  0.7274  0.3700
  488SOL    HW2 2246   0.832   1.538   3.426  0.0105 -0.0631  0.3697
  489SOL     OW 2247   5.408   5.456   2.647 -0.3279  0.3704 -0.6066
  489SOL    HW1 2248   5.422   5.548   2.670  0.5425  0.5268 -1.7082
  489SOL    HW2 2249   5.336   5.458   2.584 -0.6423  0.2278 -0.2638
  490SOL     OW 2250   6.613   1.092   6.534  0.0872 -0.0403  0.3045
  490SOL    HW1 2251   6.666   1.168   6.556  0.2457 -0.6074  2.0205
  490SOL    HW2 2252   6.664   1.046   6.468  0.3633  0.9174 -0.1619
  491SOL     OW 2253   7.050   5.681   1.719 -0.0554 -0.4186 -0.2495
  491SOL    HW1 2254   7.032   5.592   1.751 -0.8058  0.0809  0.7831
  491SOL    HW2 2255   7.132   5.706   1.762 -0.0703 -0.4490 -0.2040
  492SOL     OW 2256   3.859   6.062   3.865  0.0821 -0.2251  0.2381
  492SOL    HW1 2257   3.832   6.138   3.917 -0.6503  0.9015 -1.6580
  492SOL    HW2 2258   3.834   5.986   3.917 -3.4596  0.7816  0.2860
  493SOL     OW 2259   2.729   0.671   2.826  0.8150 -0.0150  0.2864
  493SOL    HW1 2260   2.664   0.692   2.893  0.2537 -2.7949  0.7137
  493SOL    HW2 2261   2.721   0.743   2.762 -1.5170  0.5880  1.1468
  494SOL     OW 2262   8.209   6.927   4.312  0.4810 -0.3121  0.0530
  494SOL    HW1 2263   8.288   6.913   4.260 -0.2705 -0.9791 -0.9394
  494SOL    HW2 2264   8.194   6.843   4.355 -0.4363 -0.6194 -0.8356
  495SOL     OW 2265   0.522   4.155   2.260  0.1446 -0.3502 -0.2554
  495SOL    HW1 2266   0.567   4.185   2.340 -0.2772  0.0570 -0.1687
  495SOL    HW2 2267   0.549   4.064   2.251  0.3272 -0.3530  0.2664
  496SOL     OW 2268   3.338   6.723   4.463 -0.3292 -0.1682 -0.5182
  496SOL    HW1 2269   3.336   6.628   4.447  0.3350 -0.2962  0.1143
  496SOL    HW2 2270   3.414   6.736   4.518 -0.5427  0.7191 -0.4251
  497SOL     OW 2271   0.766   0.836   0.836 -0.1915 -0.1160  0.0045
  497SOL    HW1 2272   0.769   0.823   0.741 -0.2853  1.8261 -0.2949
  497SOL    HW2 2273   0.674   0.829   0.858 -0.4358  1.4809 -0.3991
  498SOL     OW 2274   7.217   1.421   0.236  0.2991  0.0967  0.0212
  498SOL    HW1 2275   7.124   1.403   0.225  0.4671 -1.0524  0.3825
  498SOL    HW2 2276   7.233   1.497   0.180 -1.2127  1.4443  1.3122
  499SOL     OW 2277   8.033   6.489   4.991  0.2349 -0.0558  0.6556
  499SOL    HW1 2278   8.004   6.423   5.054 -1.3241 -0.0063  0.0315
  499SOL    HW2 2279   7.994   6.462   4.908  0.9773  0.7318  0.0271
  500SOL     OW 2280   0.149   2.495   4.274 -0.2322  0.1054  0.3165
  500SOL    HW1 2281   0.075   2.549   4.244 -1.0467 -0.5961  1.0196
  500SOL    HW2 2282   0.153   2.423   4.211  2.1327  1.9323 -1.8417
  501SOL     OW 2283   2.418   5.585   3.673 -0.3903 -0.1117  0.0918
  501SOL    HW1 2284   2.364   5.519   3.716  0.5610 -0.9715  0.0003
  501SOL    HW2 2285   2.499   5.588   3.723 -0.4319  1.0509  0.1321
  502SOL     OW 2286   3.421   0.638   4.604 -0.2753 -0.0653 -0.4824
  502SOL    HW1 2287   3.345   0.581   4.616 -0.5036  0.2778 -0.2687
  502SOL    HW2 2288   3.443   0.630   4.511  0.3303 -1.2868 -0.2426
  503SOL     OW 2289   7.338   5.708   2.652 -0.2214  0.0179  0.3009
  503SOL    HW1 2290   7.276   5.637   2.667 -0.8805  0.4437 -0.2933
  503SOL    HW2 2291   7.315   5.741   2.564 -0.6091  1.6140  0.9578
  504SOL     OW 2292   5.402   7.991   1.775  0.1543  0.3533 -0.1727
  504SOL    HW1 2293   5.464   7.962   1.707  0.8411 -1.9073  1.2838
  504SOL    HW2 2294   5.320   8.007   1.727  0.8226 -0.3759 -1.6553
  505SOL     OW 2295   4.445   8.291   7.232  0.2385 -0.1556 -0.0557
  505SOL    HW1 2296   4.403   8.207   7.251  0.8397 -0.3134  0.5957
  505SOL    HW2 2297   4.448   8.294   7.136  0.4443 -0.9976 -0.0877
  506SOL     OW 2298   5.426   6.210   2.936 -0.2393  0.6435  0.1770
  506SOL    HW1 2299   5.358   6.244   2.879 -1.6028 -4.1338 -1.5099
  506SOL    HW2 2300   5.379   6.172   3.010  0.7722 -0.2538  0.3953
  507SOL     OW 2301   6.613   5.159   3.950 -0.0188 -0.3440 -0.4568
  507SOL    HW1 2302   6.527   5.148   3.911 -0.3970 -0.7801  0.4621
  507SOL    HW2 2303   6.595   5.174   4.043  0.7940  1.6788 -0.5878
  508SOL     OW 2304   3.412   7.349   6.989 -0.3393  0.7545 -0.3247
  508SOL    HW1 2305   3.472   7.406   6.942  0.7832  1.1562  1.5286
  508SOL    HW2 2306   3.406   7.386   7.077 -0.4516 -1.3240  0.6123
  509SOL     OW 2307   7.629   0.771   7.879  0.5953  0.1659  0.0316
  509SOL    HW1 2308   7.683   0.850   7.872  2.3981 -0.8879  1.3210
  509SOL    HW2 2309   7.640   0.743   7.969 -2.4292  0.0401  0.4470
  510SOL     OW 2310   6.179   5.999   5.147  0.5189  0.3204  0.5039
  510SOL    HW1 2311   6.235   5.996   5.069  1.4428 -0.6860  1.1864
  510SOL    HW2 2312   6.091   5.982   5.114  0.6902  1.2498 -0.4925
  511SOL     OW 2313   5.238   5.691   0.062 -0.2289  0.5736 -0.0073
  511SOL    HW1 2314   5.229   5.782   0.032 -1.9383 -0.2963 -2.4299
  511SOL    HW2 2315   5.168   5.681   0.127 -2.3932  0.1442 -2.2494
  512SOL     OW 2316   5.273   6.617   7.232  0.1375  0.0025 -0.0578
  512SOL    HW1 2317   5.221   6.697   7.222  1.0307  0.6682  0.3975
  512SOL    HW2 2318   5.272   6.576   7.146  0.2141  0.8605 -0.4789
  513SOL     OW 2319   1.884   0.393   4.422  0.5400 -0.1657 -0.3030
  513SOL    HW1 2320   1.949   0.326   4.406  0.9355  0.3514 -0.8970
  513SOL    HW2 2321   1.805   0.362   4.378  0.1749 -1.0964  0.9483
  514SOL     OW 2322   1.419   5.700   4.213  0.1782 -0.1939 -0.2244
  514SOL    HW1 2323   1.459   5.762   4.153  1.4742 -1.8013 -1.0739
  514SOL    HW2 2324   1.353   5.655   4.160  0.6948 -0.9824 -0.2047
  515SOL     OW 2325   0.551   1.108   4.374 -0.2961 -0.0654 -0.1226
  515SOL    HW1 2326   0.638   1.108   4.415  0.3563 -3.2928 -1.2351
  515SOL    HW2 2327   0.556   1.177   4.308  0.9026  0.7478  0.7743
  516SOL     OW 2328   5.172   3.018   0.797 -0.6082 -0.4325 -0.7018
  516SOL    HW1 2329   5.087   2.987   0.766 -1.2557  1.0542 -0.5121
  516SOL    HW2 2330   5.186   2.972   0.879 -0.8652 -1.2604 -1.1169
  517SOL     OW 2331   6.825   7.030   0.756 -0.2674  0.2581 -0.3053
  517SOL    HW1 2332   6.843   6.981   0.836  0.3838  0.0096 -0.6019
  517SOL    HW2 2333   6.733   7.054   0.764 -0.2569  0.0862  0.4375
  518SOL     OW 2334   4.342   7.750   5.078  0.2833  0.3003  0.3273
  518SOL    HW1 2335   4.410   7.796   5.127 -0.0085 -1.2778  2.3589
  518SOL    HW2 2336   4.260   7.777   5.119  0.0158 -0.8912  0.6185
  519SOL     OW 2337   0.360   2.135   3.699 -0.3023  0.2846  0.0706
  519SOL    HW1 2338   0.282   2.079   3.698 -0.1743  0.0757  0.7606
  519SOL    HW2 2339   0.434   2.074   3.700 -0.0006  0.4433 -2.9575
  520SOL     OW 2340   4.625   8.022   0.534  0.3711 -0.0326  0.2083
  520SOL    HW1 2341   4.648   8.091   0.597 -1.9680  0.8525  0.2048
  520SOL    HW2 2342   4.676   8.044   0.456 -0.5185  1.9147  0.1082
  521SOL     OW 2343   0.039   0.586   7.908 -0.6094 -0.1897  0.0510
  521SOL    HW1 2344   0.046   0.679   7.931 -0.2865 -0.8010  2.7254
  521SOL    HW2 2345   0.112   0.545   7.953  1.3874 -1.3942 -3.8465
  522SOL     OW 2346   5.726   3.456   0.988 -0.0973 -0.8799  0.0466
  522SOL    HW1 2347   5.710   3.419   0.901 -1.2901  1.0652 -0.6288
  522SOL    HW2 2348   5.726   3.551   0.974  1.0757 -0.5454  1.9676
  523SOL     OW 2349   1.602   3.833   1.522  0.4790 -0.4891  0.7851
  523SOL    HW1 2350   1.623   3.742   1.503  1.2531 -0.6972  2.4638
  523SOL    HW2 2351   1.609   3.877   1.437 -1.6011 -2.2422 -0.4183
  524SOL     OW 2352   8.031   5.918   5.699 -0.2548 -0.3232  1.4830
  524SOL    HW1 2353   8.025   5.999   5.749  2.6902  0.8074  0.2652
  524SOL    HW2 2354   8.048   5.947   5.609  2.1880 -2.1891  1.2303
  525SOL     OW 2355   3.757   3.593   7.482  0.5533  0.2471 -0.3855
  525SOL    HW1 2356   3.665   3.621   7.479  0.5833  0.3257 -0.6013
  525SOL    HW2 2357   3.798   3.637   7.407  0.9000  0.6687  0.0453
  526SOL     OW 2358   7.661   6.788   3.362  0.0888  0.5630 -0.1020
  526SOL    HW1 2359   7.689   6.701   3.390  1.7111  2.1033  3.6759
  526SOL    HW2 2360   7.576   6.800   3.403 -1.0377  0.2130 -2.1542
  527SOL     OW 2361   7.752   3.402   3.829  0.6204 -0.0680  0.2135
  527SOL    HW1 2362   7.730   3.441   3.744  2.2451  0.3600 -0.0499
  527SOL    HW2 2363   7.745   3.308   3.814 -0.3815  0.0265 -0.0069
  528SOL     OW 2364   2.681   7.086   6.248 -0.2929 -0.0709  0.4244
  528SOL    HW1 2365   2.627   7.027   6.195  0.3897 -0.9668  0.6995
  528SOL    HW2 2366   2.757   7.104   6.193  0.2213 -0.6735  0.9227
  529SOL     OW 2367   0.885   2.509   6.807  0.1623 -0.1336 -0.1608
  529SOL    HW1 2368   0.906   2.500   6.900 -1.2888  0.4961  0.2748
  529SOL    HW2 2369   0.959   2.556   6.769  1.2538 -1.3280  0.4439
  530SOL     OW 2370   6.393   6.425   0.678 -0.0030  0.3842  0.2228
  530SOL    HW1 2371   6.300   6.407   0.663 -0.5568  2.9703  0.1049
  530SOL    HW2 2372   6.419   6.480   0.604  1.6480 -0.3372  0.2297
  531SOL     OW 2373   6.969   7.621   3.880 -0.3944 -0.2300 -0.0541
  531SOL    HW1 2374   6.985   7.546   3.938 -0.8243 -0.6505 -0.4757
  531SOL    HW2 2375   6.976   7.585   3.792  1.2210  0.6037 -0.3081
  532SOL     OW 2376   4.544   6.498   2.942 -0.4605  0.1662 -0.3029
  532SOL    HW1 2377   4.525   6.405   2.930 -2.3435  0.1896  1.7519
  532SOL    HW2 2378   4.457   6.540   2.941  0.1223  1.5277  1.2387
  533SOL     OW 2379   0.604   4.483   2.314  0.0599 -0.3541 -0.6352
  533SOL    HW1 2380   0.669   4.473   2.245  0.6855  0.4096 -0.1785
  533SOL    HW2 2381   0.653   4.468   2.395 -0.4983 -0.5129 -0.3220
  534SOL     OW 2382   2.985   3.359   6.195 -0.1167 -0.5202  0.3591
  534SOL    HW1 2383   2.898   3.321   6.207  0.3379 -1.6024  0.3040
  534SOL    HW2 2384   2.968   3.452   6.180 -1.2157 -0.5849  1.0607
  535SOL     OW 2385   4.143   0.584   4.134  0.2041 -1.0336  0.1128
  535SOL    HW1 2386   4.164   0.676   4.115 -1.0076 -0.7359  0.1693
  535SOL    HW2 2387   4.229   0.543   4.146  0.7656  0.3439  1.2540
  536SOL     OW 2388   7.889   2.069   1.950  0.1051 -0.0351 -0.3676
  536SOL    HW1 2389   7.825   2.131   1.985  0.6150 -0.3137  1.1571
  536SOL    HW2 2390   7.947   2.050   2.024 -0.9400 -3.5452 -0.2449
  537SOL     OW 2391   0.185   3.960   5.059  0.3287 -0.3969 -0.0528
  537SOL    HW1 2392   0.221   4.016   4.990  0.4479 -0.0980  0.2478
  537SOL    HW2 2393   0.257   3.949   5.120  0.2520 -0.7431 -0.0244
  538SOL     OW 2394   0.816   2.328   2.221  0.1207 -0.2774 -0.1805
  538SOL    HW1 2395   0.764   2.251   2.197 -1.1683  0.5571 -0.1568
  538SOL    HW2 2396   0.803   2.389   2.149 -1.3295  1.0780  1.1664
  539SOL     OW 2397   4.906   6.815   4.409 -0.4141  0.0118  0.3142
  539SOL    HW1 2398   4.934   6.790   4.497  1.2682  1.4570  0.2277
  539SOL    HW2 2399   4.986   6.812   4.356 -0.2040  4.3247  0.0641
  540SOL     OW 2400   0.639   4.026   0.020 -0.1699  0.0416 -0.5142
  540SOL    HW1 2401   0.653   4.116   0.050  0.5966  0.0607 -0.9006
  540SOL    HW2 2402   0.597   4.036  -0.065  0.9197  0.0751 -1.0694
  541SOL     OW 2403   8.197   5.322   8.052  0.1799 -0.0588  0.2590
  541SOL    HW1 2404   8.219   5.290   8.139  0.1876  0.0092  0.2827
  541SOL    HW2 2405   8.248   5.268   7.992  0.4708  0.1476  0.3160
  542SOL     OW 2406   2.131   2.237   2.212 -0.5761 -0.0608  0.2496
  542SOL    HW1 2407   2.150   2.247   2.305 -1.1047 -0.9948  0.4686
  542SOL    HW2 2408   2.042   2.271   2.201  0.4373  2.5585 -0.4304
  543SOL     OW 2409   5.788   0.805   3.020 -0.2869  0.1282 -0.3762
  543SOL    HW1 2410   5.743   0.852   2.950 -1.9717 -0.7838  0.0305
  543SOL    HW2 2411   5.755   0.845   3.101  0.9131  0.5378 -0.0724
  544SOL     OW 2412   6.064   6.573   0.509 -0.0831 -0.3078 -0.2236
  544SOL    HW1 2413   6.081   6.479   0.515  2.6108  0.1769  1.8861
  544SOL    HW2 2414   6.129   6.604   0.445 -0.9361  0.1666 -0.8814
  545SOL     OW 2415   2.406   3.994   8.133 -0.0672  0.0108  0.3570
  545SOL    HW1 2416   2.348   4.053   8.085  1.2769  1.7989  0.8124
  545SOL    HW2 2417   2.480   4.049   8.159  0.9844 -1.7603  1.3300
  546SOL     OW 2418   4.641   3.828   0.360  0.2402  0.6628  0.1737
  546SOL    HW1 2419   4.554   3.867   0.363 -0.7866 -1.4998 -0.0015
  546SOL    HW2 2420   4.629   3.739   0.394  2.5696  0.6124  1.0780
  547SOL     OW 2421   0.773   0.132   2.716  0.4303  0.3954 -0.1402
  547SOL    HW1 2422   0.685   0.107   2.687  1.1068  0.6642 -2.5546
  547SOL    HW2 2423   0.798   0.204   2.660  1.9564  0.7888  0.9789
  548SOL     OW 2424   2.938   2.121   2.175  0.3302 -0.0008  0.3315
  548SOL    HW1 2425   2.994   2.080   2.110 -2.6627 -0.2955 -2.2725
  548SOL    HW2 2426   2.959   2.215   2.170  0.6819 -0.1207 -0.4951
  549SOL     OW 2427   0.499   0.230   5.930  0.2188 -0.5181  0.1597
  549SOL    HW1 2428   0.545   0.312   5.948  2.4262 -1.1548 -2.0454
  549SOL    HW2 2429   0.453   0.246   5.848 -0.9331 -0.9175  0.7065
  550SOL     OW 2430   7.584   7.294   8.053 -0.4641 -0.0196  0.0121
  550SOL    HW1 2431   7.548   7.206   8.043 -1.1035  0.0888  1.1176
  550SOL    HW2 2432   7.609   7.321   7.965 -1.8916 -0.6260 -0.5976
  551SOL     OW 2433   0.991   4.713   2.013  0.1951 -0.0196 -0.3640
  551SOL    HW1 2434   1.042   4.784   1.974 -0.1133 -0.2932 -1.3026
  551SOL    HW2 2435   1.053   4.667   2.070  0.7656  0.1696 -0.8186
  552SOL     OW 2436   1.374   4.118   5.127  0.1634 -0.1830 -0.9258
  552SOL    HW1 2437   1.311   4.138   5.058  1.0150 -1.0166 -1.9787
  552SOL    HW2 2438   1.338   4.041   5.171 -0.6592  0.6816 -0.0582
  553SOL     OW 2439   5.087   3.643   5.730  0.0879 -0.0599  0.5818
  553SOL    HW1 2440   5.025   3.589   5.780 -0.2197  0.7214  1.0567
  553SOL    HW2 2441   5.169   3.594   5.735 -0.2426 -0.6148  0.7845
  554SOL     OW 2442   4.932   2.118   2.996  0.3910  0.0783  0.1824
  554SOL    HW1 2443   4.967   2.207   2.998 -1.4874  0.8961 -0.8166
  554SOL    HW2 2444   4.917   2.100   2.903 -1.1413 -0.4778  0.5121
  555SOL     OW 2445   5.421   6.335   7.762  0.1249  0.0591  0.2367
  555SOL    HW1 2446   5.349   6.292   7.808 -1.7455  1.3280 -1.3070
  555SOL    HW2 2447   5.438   6.278   7.687 -1.6201  1.3242 -1.2152
  556SOL     OW 2448   1.556   0.708   3.766  0.7249  0.4152 -0.0102
  556SOL    HW1 2449   1.480   0.740   3.814  0.4344  0.7716 -0.6975
  556SOL    HW2 2450   1.582   0.781   3.710  0.5007 -0.2985 -1.0654
  557SOL     OW 2451   1.110   5.466   6.547 -0.3568 -0.1737  0.3921
  557SOL    HW1 2452   1.069   5.552   6.557  0.0140 -0.0148  0.5823
  557SOL    HW2 2453   1.195   5.475   6.590  0.0369 -0.3802 -0.3398
  558SOL     OW 2454   0.814   2.204   0.062 -0.4501  0.4797 -0.1505
  558SOL    HW1 2455   0.752   2.244   0.123  0.1898  0.8913  0.2357
  558SOL    HW2 2456   0.899   2.237   0.089 -0.0035 -0.4704 -0.3730
  559SOL     OW 2457   4.983   1.874   1.164  0.0508  0.5488  0.8736
  559SOL    HW1 2458   4.951   1.888   1.074  1.2856 -0.3035  0.2798
  559SOL    HW2 2459   5.028   1.955   1.186  0.5356  0.4246  0.3642
  560SOL     OW 2460   1.317   3.029   6.910 -0.2194 -0.0556  0.0043
  560SOL    HW1 2461   1.292   3.108   6.862 -0.3228  0.0267  0.1920
  560SOL    HW2 2462   1.234   2.988   6.934 -0.1649 -0.2864 -0.1966
  561SOL     OW 2463   6.655   3.010   7.744 -0.1728 -0.3764 -0.2122
  561SOL    HW1 2464   6.744   3.005   7.779  0.4048  0.3550 -1.5121
  561SOL    HW2 2465   6.662   2.974   7.655 -1.4347 -1.4223  0.0743
  562SOL     OW 2466   1.548   3.898   4.427 -0.2855  0.0663 -0.1067
  562SOL    HW1 2467   1.635   3.895   4.466 -1.1377  2.7772  2.2713
  562SOL    HW2 2468   1.488   3.874   4.497 -1.6367  0.9583 -0.8979
  563SOL     OW 2469   2.531   0.502   5.532  0.4544  0.0017 -0.7675
  563SOL    HW1 2470   2.527   0.571   5.467 -0.5673 -0.2246 -0.9627
  563SOL    HW2 2471   2.615   0.515   5.576  0.3235  1.3078 -0.8594
  564SOL     OW 2472   1.408   4.731   1.738  1.0286 -0.1563  0.2640
  564SOL    HW1 2473   1.322   4.696   1.716  1.0072 -0.9682  1.5180
  564SOL    HW2 2474   1.391   4.793   1.809  1.4350 -0.1058  0.3193
  565SOL     OW 2475   7.490   5.973   2.625  0.4424 -0.4032  0.5552
  565SOL    HW1 2476   7.562   5.910   2.627 -0.5475 -1.5852  0.2837
  565SOL    HW2 2477   7.417   5.929   2.669 -0.0097  0.9289  1.2110
  566SOL     OW 2478   0.365   5.074   3.839 -0.3003 -0.5352 -0.2046
  566SOL    HW1 2479   0.382   5.110   3.752  0.4597  0.3491  0.2895
  566SOL    HW2 2480   0.423   5.124   3.897 -1.1768 -0.7405  0.8786
  567SOL     OW 2481   7.887   3.639   5.525  0.4890 -0.4911 -0.0296
  567SOL    HW1 2482   7.922   3.711   5.473 -0.1679  0.9902  1.4720
  567SOL    HW2 2483   7.923   3.653   5.612 -3.0276  0.6912  1.4336
  568SOL     OW 2484   1.181   6.049   1.817  0.1505 -0.6894 -0.3526
  568SOL    HW1 2485   1.210   5.960   1.796 -0.9724 -1.1662  0.0348
  568SOL    HW2 2486   1.155   6.045   1.909  0.4086  0.1315 -0.2359
  569SOL     OW 2487   4.113   0.672   6.350  0.0014  0.4308  0.2983
  569SOL    HW1 2488   4.155   0.729   6.416  2.5488 -0.6195 -0.2956
  569SOL    HW2 2489   4.184   0.618   6.317 -1.4169  0.1416 -2.5582
  570SOL     OW 2490   4.893   7.072   4.236  0.0517 -0.1077  0.3395
  570SOL    HW1 2491   4.894   7.088   4.142  2.1744 -0.5647  0.2328
  570SOL    HW2 2492   4.887   6.977   4.244 -0.3848 -0.0537  0.6734
  571SOL     OW 2493   6.464   6.599   5.530  0.1123  0.1061  0.7999
  571SOL    HW1 2494   6.554   6.627   5.516  0.4877 -1.2387  0.3757
  571SOL    HW2 2495   6.419   6.621   5.448  0.1393  0.3911  0.8582
  572SOL     OW 2496   2.678   6.037   4.732  0.0538  0.1894  0.1548
  572SOL    HW1 2497   2.716   6.107   4.679  2.4702 -0.0258  1.4652
  572SOL    HW2 2498   2.599   6.077   4.771  0.5603  1.6979 -0.2806
  573SOL     OW 2499   3.380   1.306   5.308  0.2744 -0.0740 -0.4161
  573SOL    HW1 2500   3.327   1.368   5.357 -1.1484 -0.8535 -0.9312
  573SOL    HW2 2501   3.320   1.236   5.282  1.3104 -0.4724 -1.9221
  574SOL     OW 2502   4.547   5.690   3.338  0.7024 -0.4630 -0.1940
  574SOL    HW1 2503   4.540   5.686   3.433  1.6623  0.9326 -0.0296
  574SOL    HW2 2504   4.639   5.714   3.322  0.2439  0.5938 -1.4102
  575SOL     OW 2505   2.034   5.313   0.416  0.7226  0.0136 -0.3345
  575SOL    HW1 2506   1.986   5.230   0.413  0.7579 -0.0134 -0.1686
  575SOL    HW2 2507   2.094   5.304   0.491 -0.6290  0.9218  0.9190
  576SOL     OW 2508   0.448   7.577   4.176 -0.8374  0.7983  0.3776
  576SOL    HW1 2509   0.368   7.630   4.184 -0.8372  1.0559 -1.1300
  576SOL    HW2 2510   0.467   7.550   4.266 -2.4752  0.9403  0.8009
  577SOL     OW 2511   1.825   4.475   6.369  0.1665  0.6699 -0.1371
  577SOL    HW1 2512   1.799   4.386   6.391  0.1413  0.6024 -0.4275
  577SOL    HW2 2513   1.777   4.494   6.288  0.6221  0.7354 -0.3970
  578SOL     OW 2514   3.241   7.917   1.755 -1.0290  0.1393  0.1476
  578SOL    HW1 2515   3.230   8.005   1.719  1.7826  0.7426  0.5020
  578SOL    HW2 2516   3.269   7.932   1.845 -0.0673 -1.0771  0.0733
  579SOL     OW 2517   5.394   5.989   0.133  0.4877  0.0939  0.3143
  579SOL    HW1 2518   5.459   5.919   0.137  0.0908 -0.2496  0.7613
  579SOL    HW2 2519   5.314   5.951   0.168 -0.1850  0.2751 -0.9877
  580SOL     OW 2520   8.176   5.172   4.808 -0.3583 -0.2622 -0.0214
  580SOL    HW1 2521   8.179   5.257   4.852 -4.0406 -0.1172  0.3180
  580SOL    HW2 2522   8.208   5.188   4.720  1.8449  0.7270  0.9001
  581SOL     OW 2523   6.685   3.900   0.739 -0.1753  0.0586 -0.0895
  581SOL    HW1 2524   6.701   3.978   0.685 -0.2016 -0.1179 -0.3557
  581SOL    HW2 2525   6.603   3.864   0.706 -0.7378  0.5322  0.7635
  582SOL     OW 2526   6.383   5.411   2.773  0.2163  0.4837 -0.4102
  582SOL    HW1 2527   6.346   5.334   2.816  1.2830 -0.6292 -1.4040
  582SOL    HW2 2528   6.372   5.395   2.680  2.9002  0.1780 -0.7609
  583SOL     OW 2529   1.629   8.011   6.890  0.1878  0.3077  0.0952
  583SOL    HW1 2530   1.678   7.966   6.820 -1.9967 -1.6406 -0.2833
  583SOL    HW2 2531   1.680   8.091   6.906  1.7033  0.0016 -2.5226
  584SOL     OW 2532   4.986   1.085   1.030  0.0426 -0.4364  0.5193
  584SOL    HW1 2533   5.030   1.139   1.095 -1.6871  1.4128  0.2474
  584SOL    HW2 2534   5.011   0.995   1.053  0.8145  0.2646  2.7017
  585SOL     OW 2535   2.038   4.134   8.302 -0.1610 -0.4867  0.0167
  585SOL    HW1 2536   1.984   4.199   8.348  0.6887 -1.0464  1.9210
  585SOL    HW2 2537   2.115   4.183   8.273  0.7487 -0.6651  1.9415
  586SOL     OW 2538   5.720   3.609   6.776 -0.5152 -0.5329 -0.1965
  586SOL    HW1 2539   5.706   3.702   6.794 -0.2939 -0.4378 -0.5068
  586SOL    HW2 2540   5.768   3.607   6.693  0.5445 -0.8804  0.3996
  587SOL     OW 2541   0.690   3.696   3.355  0.1102 -0.4048  0.0286
  587SOL    HW1 2542   0.748   3.734   3.288 -0.1516  0.4062  0.2485
  587SOL    HW2 2543   0.750   3.666   3.423  0.3253 -0.2873 -0.1053
  588SOL     OW 2544   5.973   6.069   1.940  0.3731  0.3938  0.7132
  588SOL    HW1 2545   6.058   6.073   1.983  0.6316  3.5596  0.1198
  588SOL    HW2 2546   5.911   6.097   2.008  0.2944  1.6579  0.1334
  589SOL     OW 2547   5.688   4.884   6.972  0.1014 -0.1027 -0.0587
  589SOL    HW1 2548   5.659   4.970   6.941 -1.7390 -0.1588  1.3418
  589SOL    HW2 2549   5.666   4.824   6.901 -0.9341  0.2411 -0.0390
  590SOL     OW 2550   4.817   0.308   5.693  0.0093  0.0768 -0.1232
  590SOL    HW1 2551   4.873   0.232   5.710  0.6485  0.6912  0.5775
  590SOL    HW2 2552   4.728   0.273   5.692  0.3908 -0.9256 -1.2963
  591SOL     OW 2553   5.878   5.957   5.366 -0.0788 -0.5793  0.3189
  591SOL    HW1 2554   5.924   5.883   5.327  1.0900 -0.2130  0.9522
  591SOL    HW2 2555   5.873   6.022   5.297 -0.4132 -0.9489 -0.0083
  592SOL     OW 2556   2.066   0.522   7.095 -0.0933 -0.0208  0.1679
  592SOL    HW1 2557   2.114   0.544   7.015  0.2475 -0.9619  0.1038
  592SOL    HW2 2558   2.076   0.600   7.151 -0.3299  0.6347 -0.6926
  593SOL     OW 2559   0.487   3.897   6.573  0.0072 -0.3813  0.5285
  593SOL    HW1 2560   0.499   3.819   6.518  0.4695  0.8564 -1.2470
  593SOL    HW2 2561   0.407   3.880   6.622 -0.2824 -1.6841 -0.3398
  594SOL     OW 2562   3.290   1.190   0.659 -0.2236  0.2225  0.2314
  594SOL    HW1 2563   3.203   1.230   0.668 -0.7266 -0.1590 -2.3054
  594SOL    HW2 2564   3.272   1.097   0.645  0.5141  0.3024 -1.3958
  595SOL     OW 2565   3.877   2.938   8.232 -0.1770 -0.3544  0.2883
  595SOL    HW1 2566   3.907   2.848   8.242  4.0346  0.9158  1.0893
  595SOL    HW2 2567   3.875   2.973   8.321 -0.3114  0.7217 -0.1178
  596SOL     OW 2568   6.961   5.381   0.818  0.0183  0.1084 -0.0130
  596SOL    HW1 2569   6.961   5.435   0.738  1.4644 -0.3809 -0.3762
  596SOL    HW2 2570   6.909   5.431   0.880  1.2845  1.9649 -0.3314
  597SOL     OW 2571   3.441   1.114   4.990 -0.3206 -0.3322  0.6576
  597SOL    HW1 2572   3.389   1.086   4.915 -0.1721 -0.0150  0.4321
  597SOL    HW2 2573   3.511   1.048   4.997  1.0993  0.8998 -0.9868
  598SOL     OW 2574   6.574   1.242   0.011  0.0612 -0.0635 -0.1884
  598SOL    HW1 2575   6.586   1.329   0.049 -1.9102 -0.5734  1.8011
  598SOL    HW2 2576   6.586   1.182   0.084  2.6787 -1.6495 -1.7732
  599SOL     OW 2577   7.684   5.062   6.748 -0.0072 -0.0592 -0.3633
  599SOL    HW1 2578   7.665   5.024   6.662 -1.3617  0.9851 -0.5658
  599SOL    HW2 2579   7.609   5.038   6.802 -0.4554  1.4912 -0.2462
  600SOL     OW 2580   2.779   7.101   1.860 -0.5234  0.0363 -0.3295
  600SOL    HW1 2581   2.741   7.123   1.774  0.1518 -0.6302 -0.8054
  600SOL    HW2 2582   2.848   7.038   1.841  0.8093  1.1757  0.5296
  601SOL     OW 2583   0.584   2.129   5.303  0.3212 -0.3243 -0.9521
  601SOL    HW1 2584   0.498   2.166   5.326  0.0629 -0.9385 -0.9228
  601SOL    HW2 2585   0.630   2.122   5.386 -0.2715 -1.6822 -0.7183
  602SOL     OW 2586   5.760   0.347   1.794  0.0854  0.0413 -0.5520
  602SOL    HW1 2587   5.695   0.355   1.864 -0.1944 -0.1252 -0.7883
  602SOL    HW2 2588   5.709   0.323   1.716  0.5610 -1.2895 -0.4817
  603SOL     OW 2589   1.657   0.788   7.164 -0.0785 -0.3715 -0.7110
  603SOL    HW1 2590   1.648   0.832   7.248  0.6340 -1.8236  0.1695
  603SOL    HW2 2591   1.592   0.830   7.107  1.6172  2.9292 -0.4942
  604SOL     OW 2592   6.236   6.206   5.302  0.6315  0.0362  0.0213
  604SOL    HW1 2593   6.219   6.146   5.229  1.4425  0.7197 -0.7634
  604SOL    HW2 2594   6.328   6.231   5.290  0.9098 -0.2012  1.5624
  605SOL     OW 2595   1.989   5.542   5.699 -0.1159 -0.3733 -0.4583
  605SOL    HW1 2596   1.960   5.485   5.769 -1.7771  2.2237  1.1136
  605SOL    HW2 2597   2.011   5.483   5.627 -2.8483 -2.9090  0.6284
  606SOL     OW 2598   3.355   3.869   0.255  0.3699 -0.3631 -0.0861
  606SOL    HW1 2599   3.276   3.856   0.202  0.7230  1.0142 -0.9747
  606SOL    HW2 2600   3.333   3.941   0.314 -0.2781 -2.3289  2.2503
  607SOL     OW 2601   0.639   7.460   3.714  0.2724 -0.4159  0.2458
  607SOL    HW1 2602   0.727   7.496   3.726  1.0434 -2.1105 -0.0892
  607SOL    HW2 2603   0.592   7.484   3.794  1.4394 -0.6319  1.0052
  608SOL     OW 2604   2.756   5.337   3.716  0.5528  0.5773 -0.0267
  608SOL    HW1 2605   2.738   5.424   3.750 -0.5176 -0.0377  1.0406
  608SOL    HW2 2606   2.673   5.307   3.680  0.8737 -0.0770 -0.2535
  609SOL     OW 2607   5.950   4.155   7.371 -0.0334 -0.1233  0.0395
  609SOL    HW1 2608   5.945   4.156   7.467 -0.3413  0.4776  0.0220
  609SOL    HW2 2609   5.867   4.114   7.344 -0.5802  0.9600  0.0049
  610SOL     OW 2610   3.477   2.043   4.707  0.5131 -0.1031  0.1287
  610SOL    HW1 2611   3.466   2.040   4.802 -0.1712  1.1286  0.1216
  610SOL    HW2 2612   3.539   2.115   4.693 -2.0542  2.1839 -0.4518
  611SOL     OW 2613   5.577   1.235   3.276 -0.0024 -0.0715 -0.1538
  611SOL    HW1 2614   5.554   1.301   3.341 -0.9534 -0.0845 -0.4548
  611SOL    HW2 2615   5.667   1.211   3.296  0.4243  1.4354 -0.1417
  612SOL     OW 2616   5.235   2.294   7.069  1.0538  0.0206  0.4049
  612SOL    HW1 2617   5.224   2.347   7.148 -0.1341 -0.3198  0.4775
  612SOL    HW2 2618   5.173   2.222   7.079  0.8403  0.0043 -0.8796
  613SOL     OW 2619   7.658   6.222   3.591 -0.2356 -0.3231 -0.3252
  613SOL    HW1 2620   7.723   6.292   3.581 -0.9721  0.3160 -0.7939
  613SOL    HW2 2621   7.626   6.231   3.680  1.0103 -1.2735  0.2428
  614SOL     OW 2622   4.164   5.183   5.831  0.0479  0.4830  0.4647
  614SOL    HW1 2623   4.170   5.261   5.885  0.7037  1.6383 -1.1982
  614SOL    HW2 2624   4.105   5.207   5.760 -0.4668 -0.8552  0.3984
  615SOL     OW 2625   0.081   0.249   0.601  0.0119  0.6316  0.2271
  615SOL    HW1 2626   0.061   0.318   0.665  1.3923  0.2178  1.1379
  615SOL    HW2 2627   0.164   0.212   0.630 -1.0735 -2.0219  0.2876
  616SOL     OW 2628   6.652   0.411   5.812  0.1375  0.0246  0.6256
  616SOL    HW1 2629   6.713   0.472   5.853 -1.6620  1.2069  1.6659
  616SOL    HW2 2630   6.624   0.353   5.882 -0.8656  0.2841  0.4536
  617SOL     OW 2631   4.366   7.662   1.761  0.2865 -0.2827  0.4086
  617SOL    HW1 2632   4.425   7.692   1.830 -0.9999 -0.5732  1.6706
  617SOL    HW2 2633   4.282   7.650   1.804 -0.7233  0.1047 -1.3395
  618SOL     OW 2634   7.651   4.369   3.506 -0.1766 -0.0988 -0.0670
  618SOL    HW1 2635   7.566   4.346   3.544 -0.5571 -0.0490 -0.8561
  618SOL    HW2 2636   7.664   4.305   3.436 -0.5901  1.2057 -1.3719
  619SOL     OW 2637   2.633   7.363   5.104  0.4260 -0.0876  0.1069
  619SOL    HW1 2638   2.707   7.308   5.079  0.3943  1.0152 -2.6892
  619SOL    HW2 2639   2.645   7.376   5.198  3.4011 -0.5068 -0.1006
  620SOL     OW 2640   2.024   6.764   5.039 -0.1458  0.9606  0.0024
  620SOL    HW1 2641   2.117   6.765   5.064 -0.0451  1.0409 -0.3669
  620SOL    HW2 2642   2.025   6.775   4.944 -0.3732 -1.9577 -0.4370
  621SOL     OW 2643   7.953   5.475   1.364  0.1048  0.8190  0.2914
  621SOL    HW1 2644   7.940   5.388   1.401 -1.4294  1.0414  0.3755
  621SOL    HW2 2645   8.016   5.463   1.293 -0.2006 -0.3924  0.2022
  622SOL     OW 2646   2.342   3.058   5.548 -0.0013  0.1435  0.3663
  622SOL    HW1 2647   2.378   3.108   5.475 -1.6548 -0.2418 -0.7675
  622SOL    HW2 2648   2.294   3.123   5.600 -0.1442  0.1488  0.2287
  623SOL     OW 2649   5.293   1.198   0.433 -0.1074 -0.2950 -0.2421
  623SOL    HW1 2650   5.341   1.212   0.351  0.2519  0.8950  0.1526
  623SOL    HW2 2651   5.211   1.246   0.422  0.5238  1.0394  0.5879
  624SOL     OW 2652   4.136   1.403   7.190  0.5715  0.0793 -0.0354
  624SOL    HW1 2653   4.141   1.476   7.129  1.1909  0.1345  0.0748
  624SOL    HW2 2654   4.155   1.325   7.137  2.0267  0.2149  0.2399
  625SOL     OW 2655   1.123   0.610   1.800 -0.1648 -0.2379  0.2935
  625SOL    HW1 2656   1.186   0.571   1.861  0.7808 -0.8933 -1.0597
  625SOL    HW2 2657   1.052   0.545   1.795 -0.0259 -0.3957  0.3471
  626SOL     OW 2658   0.752   2.713   0.211 -0.5319  0.2921 -0.0953
  626SOL    HW1 2659   0.845   2.719   0.231 -0.7532  0.4037  0.9672
  626SOL    HW2 2660   0.708   2.721   0.296 -1.4659 -0.7772 -0.4421
  627SOL     OW 2661   5.677   2.778   7.868  0.0167 -0.2861  0.1022
  627SOL    HW1 2662   5.669   2.693   7.912  0.2143 -0.5209 -0.3126
  627SOL    HW2 2663   5.768   2.803   7.881  0.1638 -0.5209 -0.4747
  628SOL     OW 2664   8.116   3.007   6.643  0.0456  0.2894 -0.0708
  628SOL    HW1 2665   8.117   3.017   6.738 -0.5207 -0.3640  0.0145
  628SOL    HW2 2666   8.125   2.912   6.629 -3.0383 -0.0115 -0.5661
  629SOL     OW 2667   3.364   1.417   1.563  0.3976 -0.0052  0.2536
  629SOL    HW1 2668   3.279   1.412   1.606  0.0374  0.1169 -0.4281
  629SOL    HW2 2669   3.366   1.504   1.523  1.0925  0.2254  0.7600
  630SOL     OW 2670   3.512   1.305   8.152  0.5951  0.3169 -0.3711
  630SOL    HW1 2671   3.488   1.231   8.208  0.9285  0.2618 -0.3019
  630SOL    HW2 2672   3.492   1.382   8.206 -0.8679  0.3253 -0.8720
  631SOL     OW 2673   1.149   4.421   4.427  0.1846 -0.5100  0.7851
  631SOL    HW1 2674   1.181   4.375   4.505 -1.5374 -3.1773  0.0481
  631SOL    HW2 2675   1.225   4.427   4.370  0.5493 -2.2726  1.0244
  632SOL     OW 2676   3.108   0.441   7.258 -0.2015  0.6275 -0.6636
  632SOL    HW1 2677   3.026   0.456   7.304  0.5380 -0.0408  0.9551
  632SOL    HW2 2678   3.161   0.518   7.277  0.4105 -0.0230  0.3313
  633SOL     OW 2679   4.644   0.159   2.642  0.4688 -0.3139 -0.2761
  633SOL    HW1 2680   4.569   0.215   2.662  0.0140 -1.2554  0.7650
  633SOL    HW2 2681   4.698   0.212   2.583 -0.5943  0.6993 -0.3813
  634SOL     OW 2682   0.381   1.072   2.977  0.4077 -0.1003  0.5134
  634SOL    HW1 2683   0.388   1.093   2.884  1.8859  2.4849  1.1303
  634SOL    HW2 2684   0.433   0.992   2.987  0.1840 -0.4390 -0.8745
  635SOL     OW 2685   3.820   1.123   5.830 -0.2581  0.8400 -0.4817
  635SOL    HW1 2686   3.766   1.068   5.888 -0.5942 -0.3107 -1.8201
  635SOL    HW2 2687   3.783   1.210   5.838 -1.6292  0.2855 -0.5032
  636SOL     OW 2688   2.205   4.048   4.675 -0.5829 -0.0244  0.1429
  636SOL    HW1 2689   2.249   4.030   4.592 -0.0254  0.4896  0.3122
  636SOL    HW2 2690   2.216   4.143   4.687  0.5043 -0.2797  1.4276
  637SOL     OW 2691   7.509   2.506   4.125 -0.4657  0.1321  0.3976
  637SOL    HW1 2692   7.592   2.535   4.086  0.5132 -1.7229  0.9526
  637SOL    HW2 2693   7.446   2.510   4.054  0.3130  0.7321 -0.2803
  638SOL     OW 2694   7.065   6.502   4.710  0.2925  0.1053 -0.6937
  638SOL    HW1 2695   7.098   6.482   4.622  1.0015 -0.3196 -0.3428
  638SOL    HW2 2696   7.143   6.505   4.764 -0.2690 -1.5764  0.2946
  639SOL     OW 2697   5.408   3.476   1.854  0.1807  0.6986  0.5811
  639SOL    HW1 2698   5.482   3.500   1.910  0.7928  1.8693 -0.6622
  639SOL    HW2 2699   5.331   3.509   1.900  0.4505 -0.1827  1.7029
  640SOL     OW 2700   4.298   7.219   3.227 -0.3791 -0.3989 -0.1061
  640SOL    HW1 2701   4.352   7.182   3.297 -0.2935  1.0685  0.6467
  640SOL    HW2 2702   4.234   7.273   3.273 -2.0035 -1.4599 -1.0271
  641SOL     OW 2703   4.493   6.455   5.809  0.1183 -0.0294 -0.0222
  641SOL    HW1 2704   4.444   6.391   5.757  0.9119  0.4699 -1.4321
  641SOL    HW2 2705   4.457   6.540   5.783 -0.7330  0.1612  1.6304
  642SOL     OW 2706   6.457   2.461   7.924 -0.3271  0.0815  0.5452
  642SOL    HW1 2707   6.400   2.385   7.934  1.3522 -1.1812  0.8321
  642SOL    HW2 2708   6.398   2.536   7.934 -1.6458 -1.1418  2.5972
  643SOL     OW 2709   6.825   7.238   6.354 -0.0833 -0.4224 -0.1566
  643SOL    HW1 2710   6.777   7.163   6.319  1.8733 -1.9742  0.3104
  643SOL    HW2 2711   6.832   7.221   6.448  1.5208 -0.3774 -0.2344
  644SOL     OW 2712   7.292   7.923   2.199 -0.3274  0.8770  0.1233
  644SOL    HW1 2713   7.227   7.945   2.265  0.0541 -0.3110  0.9204
  644SOL    HW2 2714   7.267   7.836   2.168  1.4399 -0.0800  1.2188
  645SOL     OW 2715   6.402   5.110   3.755 -0.6082 -0.2958 -0.0998
  645SOL    HW1 2716   6.461   5.165   3.704 -0.5690 -0.5277 -0.3030
  645SOL    HW2 2717   6.314   5.135   3.726 -0.8158  2.1191  2.2013
  646SOL     OW 2718   1.719   3.426   1.654  0.6649  0.1620  0.4794
  646SOL    HW1 2719   1.696   3.459   1.567  0.6191 -1.3186 -0.0971
  646SOL    HW2 2720   1.778   3.493   1.689  0.4329  0.9458 -0.5567
  647SOL     OW 2721   0.727   6.984   4.623 -0.2731  0.3256 -0.1158
  647SOL    HW1 2722   0.641   6.943   4.622 -0.8602  1.4605  1.2479
  647SOL    HW2 2723   0.783   6.921   4.669 -0.2843 -0.5293 -1.2292
  648SOL     OW 2724   8.029   0.416   5.043  0.2305  0.0764  0.7217
  648SOL    HW1 2725   7.992   0.330   5.062 -0.2006 -0.3549 -1.6822
  648SOL    HW2 2726   7.963   0.458   4.987  0.5134  1.9221  1.6988
  649SOL     OW 2727   4.302   8.045   8.038 -0.3271 -0.0191 -0.3202
  649SOL    HW1 2728   4.302   8.044   8.134  2.0685 -0.4872 -0.2861
  649SOL    HW2 2729   4.231   7.984   8.014 -1.0165  0.1645  1.1241
  650SOL     OW 2730   3.139   5.394   0.540 -0.1717  0.0497  0.0047
  650SOL    HW1 2731   3.227   5.421   0.518 -0.4574  0.6055 -0.4716
  650SOL    HW2 2732   3.146   5.300   0.555  0.5133  0.1049  0.0555
  651SOL     OW 2733   3.644   0.779   3.541  0.0113  0.1073 -0.1003
  651SOL    HW1 2734   3.687   0.701   3.506  1.1215  0.5510  0.2389
  651SOL    HW2 2735   3.553   0.772   3.510 -0.8037 -2.8975  2.4450
  652SOL     OW 2736   6.280   4.604   6.109  0.0240 -0.2421 -0.2830
  652SOL    HW1 2737   6.375   4.604   6.124 -0.0439 -0.0802  0.1766
  652SOL    HW2 2738   6.250   4.521   6.147 -0.0447 -0.2067 -0.2600
  653SOL     OW 2739   7.164   3.717   8.284  0.0552  0.1681 -0.4547
  653SOL    HW1 2740   7.128   3.675   8.206  0.8875  2.1714 -1.9981
  653SOL    HW2 2741   7.225   3.653   8.320 -0.1274 -0.6828 -1.6024
  654SOL     OW 2742   8.301   1.710   7.297  0.3161  0.4308  0.3548
  654SOL    HW1 2743   8.319   1.803   7.303  0.0604  0.4646  0.5834
  654SOL    HW2 2744   8.331   1.685   7.209 -1.8684  1.2134 -0.6827
  655SOL     OW 2745   2.064   3.314   0.374  0.4139 -0.1094  0.5072
  655SOL    HW1 2746   2.118   3.261   0.433  0.7753 -1.0050 -0.5835
  655SOL    HW2 2747   2.047   3.256   0.299 -2.1731  0.0899  0.8416
  656SOL     OW 2748   2.994   4.575   5.493 -0.2113 -0.3627 -0.0244
  656SOL    HW1 2749   3.087   4.567   5.515 -0.1442 -1.1126 -0.5665
  656SOL    HW2 2750   2.990   4.645   5.429 -0.0696 -0.0700  0.2836
  657SOL     OW 2751   4.353   5.010   0.641  0.6215  0.0555 -0.2941
  657SOL    HW1 2752   4.311   4.992   0.725 -0.6077  1.7453 -0.4799
  657SOL    HW2 2753   4.441   4.975   0.650  0.2288 -0.6185  1.3580
  658SOL     OW 2754   4.792   7.368   0.838 -0.3448  0.4137 -0.3764
  658SOL    HW1 2755   4.801   7.336   0.927 -2.3770 -1.0841 -0.6331
  658SOL    HW2 2756   4.879   7.359   0.800  0.4162  0.5442  1.2590
  659SOL     OW 2757   2.050   0.584   4.251 -0.6499  0.5450  0.2762
  659SOL    HW1 2758   2.037   0.489   4.256  1.4055  0.1272 -1.0903
  659SOL    HW2 2759   2.089   0.607   4.335 -0.8773  0.1315  0.4994
  660SOL     OW 2760   2.509   4.693   6.190 -0.0602  0.3753  0.0785
  660SOL    HW1 2761   2.511   4.599   6.176  2.1247  0.5674 -1.4098
  660SOL    HW2 2762   2.467   4.704   6.275  0.7926 -2.0242  0.8862
  661SOL     OW 2763   7.249   0.087   3.002  0.0320  0.8228 -0.0778
  661SOL    HW1 2764   7.254   0.141   2.923  0.1837 -1.4957 -1.7689
  661SOL    HW2 2765   7.324   0.028   2.996 -0.7625 -0.3643  1.0333
  662SOL     OW 2766   3.482   0.511   7.669  0.3820  0.9057  0.5364
  662SOL    HW1 2767   3.554   0.513   7.732  0.1513  1.0053  0.7941
  662SOL    HW2 2768   3.410   0.469   7.715  0.8503 -0.9732 -0.3383
  663SOL     OW 2769   2.400   1.500   3.451  0.2875 -0.1002  0.3406
  663SOL    HW1 2770   2.407   1.412   3.415  1.5065  0.7087 -1.5280
  663SOL    HW2 2771   2.373   1.555   3.377  0.4921  1.2535  1.2298
  664SOL     OW 2772   1.996   3.800   2.396  0.4065  0.4147 -0.0756
  664SOL    HW1 2773   1.974   3.715   2.434  0.1726  0.9099  0.9212
  664SOL    HW2 2774   1.918   3.824   2.347  0.3264  0.2364 -0.0382
  665SOL     OW 2775   3.827   0.064   7.018  0.1512 -0.7764  0.2145
  665SOL    HW1 2776   3.819   0.140   7.075  0.1199 -0.4111 -0.2740
  665SOL    HW2 2777   3.778  -0.005   7.063 -0.4324 -0.3059  0.3073
  666SOL     OW 2778   2.753   6.066   8.188 -0.5046  0.5902  0.0031
  666SOL    HW1 2779   2.801   6.137   8.231  1.0436  0.9599 -2.1485
  666SOL    HW2 2780   2.696   6.110   8.126 -0.2698 -0.0105 -0.6489
  667SOL     OW 2781   7.114   1.603   0.025  0.4060 -0.3264 -0.6527
  667SOL    HW1 2782   7.066   1.685   0.031  1.9222  0.5408 -0.1050
  667SOL    HW2 2783   7.168   1.612  -0.053  1.8774 -0.0775  0.3663
  668SOL     OW 2784   1.878   4.542   5.179  0.9120 -0.2868  0.1580
  668SOL    HW1 2785   1.968   4.572   5.191  1.3930 -1.0661 -1.2150
  668SOL    HW2 2786   1.885   4.447   5.170 -0.0124 -0.3300 -0.2684
  669SOL     OW 2787   5.883   7.669   6.578  0.0456  0.8340 -0.3148
  669SOL    HW1 2788   5.932   7.712   6.508  0.6199 -1.1065 -1.1541
  669SOL    HW2 2789   5.949   7.646   6.643  0.2491 -1.3583 -1.2291
  670SOL     OW 2790   7.388   8.266   4.168  0.6741 -0.0883 -0.5650
  670SOL    HW1 2791   7.461   8.304   4.218  1.3034 -1.6259 -0.2643
  670SOL    HW2 2792   7.314   8.324   4.187  1.6631  1.2036 -0.4409
  671SOL     OW 2793   6.337   7.082   3.282 -0.0018  0.0052  0.1444
  671SOL    HW1 2794   6.247   7.110   3.298  0.2286  0.2962  0.9774
  671SOL    HW2 2795   6.389   7.163   3.288  0.4290 -0.2993  0.6108
  672SOL     OW 2796   2.347   3.697   6.293  0.5429 -0.4528  0.2250
  672SOL    HW1 2797   2.327   3.631   6.359  1.4500 -0.7992  0.1744
  672SOL    HW2 2798   2.353   3.779   6.342 -2.8278  0.0589 -0.0133
  673SOL     OW 2799   5.298   2.339   3.824  0.4675 -0.6300  0.4912
  673SOL    HW1 2800   5.340   2.276   3.765 -0.3134 -0.5338 -0.1924
  673SOL    HW2 2801   5.360   2.411   3.829  0.6101 -0.6996 -0.1247
  674SOL     OW 2802   0.315   1.567   1.761  0.0383 -0.0151 -0.2653
  674SOL    HW1 2803   0.384   1.509   1.791  0.9619  0.1109 -1.9962
  674SOL    HW2 2804   0.353   1.655   1.767 -0.3497  0.1554 -0.2432
  675SOL     OW 2805   6.512   0.782   6.295 -0.4965  0.3919  0.5694
  675SOL    HW1 2806   6.517   0.819   6.207 -1.0618 -2.7126 -0.9143
  675SOL    HW2 2807   6.462   0.701   6.284 -1.1071  0.1806  3.8895
  676SOL     OW 2808   4.636   0.036   6.788  0.0620 -0.1569  0.0294
  676SOL    HW1 2809   4.675   0.029   6.701 -0.9795  0.1720 -0.4749
  676SOL    HW2 2810   4.708   0.014   6.848  1.2854  1.3344 -0.8137
  677SOL     OW 2811   1.974   1.281   1.455  0.3958 -0.4526 -0.4307
  677SOL    HW1 2812   2.035   1.270   1.382  0.9486  0.1468 -0.0701
  677SOL    HW2 2813   1.999   1.213   1.518  0.2850 -0.6088 -0.5556
  678SOL     OW 2814   2.388   8.101   5.945  0.3789  0.3776 -0.6381
  678SOL    HW1 2815   2.422   8.022   5.987 -0.1424 -0.2884 -1.4214
  678SOL    HW2 2816   2.463   8.161   5.942  0.7759 -0.0777 -0.0178
  679SOL     OW 2817   6.287   1.848   3.875  0.0517  0.1084 -0.1772
  679SOL    HW1 2818   6.345   1.900   3.932 -0.5043 -0.1194  0.6115
  679SOL    HW2 2819   6.287   1.761   3.915 -0.8076  0.1037 -0.1868
  680SOL     OW 2820   6.338   2.375   6.509 -0.3684 -0.5008 -0.2591
  680SOL    HW1 2821   6.270   2.442   6.507 -0.6944 -0.7938  0.5281
  680SOL    HW2 2822   6.308   2.312   6.574  0.5671 -0.7367 -0.0318
  681SOL     OW 2823   3.097   0.704   3.263  0.2793  0.3201 -0.3708
  681SOL    HW1 2824   3.085   0.611   3.243  1.0367 -0.2908  1.7605
  681SOL    HW2 2825   3.191   0.719   3.251  0.3733  0.4778  0.5592
  682SOL     OW 2826   0.661   3.393   4.320 -0.1240  0.0586  0.4075
  682SOL    HW1 2827   0.607   3.453   4.269 -2.2948 -2.2614 -0.2480
  682SOL    HW2 2828   0.615   3.384   4.403 -1.6689 -2.9301 -0.6194
  683SOL     OW 2829   7.206   8.029   6.989 -0.3059 -0.3987 -0.5736
  683SOL    HW1 2830   7.245   8.060   6.907 -0.6597 -0.6176 -0.8281
  683SOL    HW2 2831   7.269   7.967   7.024  0.0394  0.0064 -0.4670
  684SOL     OW 2832   6.813   6.231   3.718 -0.3713  0.0480 -0.3136
  684SOL    HW1 2833   6.824   6.302   3.655 -0.7602 -0.8460 -1.4238
  684SOL    HW2 2834   6.807   6.152   3.664 -0.3221 -0.7908  0.8728
  685SOL     OW 2835   8.259   2.895   0.578  0.1043 -0.3366  0.4680
  685SOL    HW1 2836   8.204   2.827   0.538 -0.6105  0.3913  0.1775
  685SOL    HW2 2837   8.280   2.860   0.664 -0.8598 -0.6262  0.6046
  686SOL     OW 2838   8.083   8.078   2.668 -0.0729 -0.7217  0.6828
  686SOL    HW1 2839   8.138   8.001   2.652  1.9750  1.1004 -2.1248
  686SOL    HW2 2840   8.144   8.145   2.699 -0.7645  1.0825 -1.5370
  687SOL     OW 2841   4.050   4.406   3.900  0.7180 -0.3324 -0.3233
  687SOL    HW1 2842   3.963   4.412   3.861  1.1321 -2.0326 -1.6128
  687SOL    HW2 2843   4.034   4.385   3.992 -0.2339  0.6458 -0.2539
  688SOL     OW 2844   6.212   6.680   3.953 -0.5543 -1.1614 -0.5516
  688SOL    HW1 2845   6.142   6.619   3.928 -1.2830 -0.9288  0.8194
  688SOL    HW2 2846   6.167   6.763   3.967  0.4761 -0.1805 -2.7029
  689SOL     OW 2847   7.743   5.099   7.937  0.1603  0.5223  0.0493
  689SOL    HW1 2848   7.827   5.110   7.982 -0.8138  2.2485  1.5862
  689SOL    HW2 2849   7.744   5.009   7.906  1.1352 -0.6923  3.1829
  690SOL     OW 2850   6.093   3.467   1.442  0.2796 -1.1753 -0.2936
  690SOL    HW1 2851   6.084   3.506   1.355 -1.4255 -3.0228 -1.0296
  690SOL    HW2 2852   6.139   3.384   1.426  0.8070 -1.0808  0.7091
  691SOL     OW 2853   6.407   1.450   0.512  0.1247  0.1765  0.2777
  691SOL    HW1 2854   6.342   1.388   0.547 -1.0221  1.1637 -0.0485
  691SOL    HW2 2855   6.467   1.465   0.585 -0.1676 -0.5346  0.6786
  692SOL     OW 2856   4.741   4.208   6.226  0.5064 -0.6227  0.0595
  692SOL    HW1 2857   4.756   4.256   6.308  0.5718 -0.6201  0.0465
  692SOL    HW2 2858   4.704   4.272   6.166 -1.7862 -1.1569  0.7988
  693SOL     OW 2859   5.009   5.838   3.295  0.1499 -0.4264  0.2108
  693SOL    HW1 2860   5.096   5.860   3.329  0.1738 -0.0402 -0.0939
  693SOL    HW2 2861   5.026   5.804   3.207  0.0309 -0.7836  0.3254
  694SOL     OW 2862   5.792   2.658   7.542  0.4636 -0.4165  0.4360
  694SOL    HW1 2863   5.701   2.688   7.536  0.3974 -0.8552 -1.1137
  694SOL    HW2 2864   5.840   2.735   7.574 -0.2428  0.2582 -0.0766
  695SOL     OW 2865   3.660   6.396   7.220 -0.0241  0.1266  0.1922
  695SOL    HW1 2866   3.665   6.419   7.313 -0.6767  2.3264 -0.2507
  695SOL    HW2 2867   3.578   6.435   7.190 -1.7107 -3.5823 -0.6004
  696SOL     OW 2868   6.247   1.212   5.541  0.0707  0.2074 -0.0357
  696SOL    HW1 2869   6.186   1.168   5.481  0.3961  1.2352 -1.1712
  696SOL    HW2 2870   6.192   1.265   5.598 -0.1139  1.3384 -1.2274
  697SOL     OW 2871   8.141   4.484   4.966  0.0560  0.6486 -0.4467
  697SOL    HW1 2872   8.229   4.448   4.957 -0.0100  0.6441 -1.1727
  697SOL    HW2 2873   8.108   4.488   4.876 -1.0820 -0.3431 -0.1049
  698SOL     OW 2874   5.978   6.317   2.560 -0.2746 -0.3472  0.3722
  698SOL    HW1 2875   6.036   6.293   2.632 -1.2647 -0.8664  1.0289
  698SOL    HW2 2876   5.949   6.233   2.524 -2.5459 -0.2052  1.6750
  699SOL     OW 2877   3.242   6.989   8.072  0.3510 -0.6641  0.6936
  699SOL    HW1 2878   3.241   6.907   8.023  1.0628  0.0813 -0.6228
  699SOL    HW2 2879   3.314   7.040   8.033 -1.8591  1.7674 -0.5196
  700SOL     OW 2880   3.521   7.022   7.489  0.5164 -0.1690  0.0165
  700SOL    HW1 2881   3.534   7.115   7.509  0.0327 -0.1776  0.3936
  700SOL    HW2 2882   3.512   6.981   7.575 -0.9263 -0.3167 -0.1853
  701SOL     OW 2883   2.384   5.539   1.020 -0.1700 -0.0836  0.2525
  701SOL    HW1 2884   2.466   5.581   0.994 -0.3849 -0.3726 -0.9466
  701SOL    HW2 2885   2.391   5.528   1.115  0.6093  1.0968  0.3447
  702SOL     OW 2886   4.522   0.377   1.633  0.1551  0.0249  0.1846
  702SOL    HW1 2887   4.612   0.353   1.655  0.4593  1.3249  0.4118
  702SOL    HW2 2888   4.526   0.470   1.615 -0.8681 -0.2079 -1.3719
  703SOL     OW 2889   7.943   0.483   0.962 -0.1856  0.2616  0.9328
  703SOL    HW1 2890   7.867   0.441   0.921  1.0924 -0.2604 -1.0370
  703SOL    HW2 2891   7.980   0.415   1.018  0.4910 -0.5158 -0.3984
  704SOL     OW 2892   7.652   5.286   6.362  0.4298 -0.0453  0.0102
  704SOL    HW1 2893   7.601   5.206   6.378  1.2479 -0.2102  2.1549
  704SOL    HW2 2894   7.716   5.260   6.295  0.5907 -1.1728  0.5714
  705SOL     OW 2895   6.254   0.760   4.492 -0.2637  0.5568 -0.2011
  705SOL    HW1 2896   6.344   0.758   4.524 -0.7039 -0.6505  1.0861
  705SOL    HW2 2897   6.234   0.669   4.472 -1.4267  0.6927  0.2615
  706SOL     OW 2898   0.694   0.929   2.178 -0.4310 -0.2717 -0.0001
  706SOL    HW1 2899   0.642   0.871   2.234 -2.4079  0.9602 -0.4689
  706SOL    HW2 2900   0.711   0.878   2.099 -0.4946 -0.8657  0.3678
  707SOL     OW 2901   8.290   1.968   1.483 -0.0750 -0.5895 -0.0887
  707SOL    HW1 2902   8.340   1.917   1.546  0.2152 -0.6919 -0.3954
  707SOL    HW2 2903   8.201   1.971   1.519  0.3241  0.2996  0.8809
  708SOL     OW 2904   7.833   3.066   0.050 -0.2865 -0.4183 -0.4400
  708SOL    HW1 2905   7.891   3.003   0.008  1.5450  1.6064 -1.1196
  708SOL    HW2 2906   7.879   3.090   0.131 -0.6266  0.5226 -0.5175
  709SOL     OW 2907   0.799   1.844   7.549 -0.1129 -0.2247  0.0982
  709SOL    HW1 2908   0.871   1.804   7.596 -0.3244 -0.4113  0.2635
  709SOL    HW2 2909   0.841   1.896   7.480  0.1755 -0.3427  0.1856
  710SOL     OW 2910   7.424   6.436   1.667  0.1134 -0.4638  0.2706
  710SOL    HW1 2911   7.467   6.457   1.750  1.5631  2.1131 -1.0125
  710SOL    HW2 2912   7.482   6.370   1.628  0.6264 -0.0872  0.3764
  711SOL     OW 2913   2.909   3.340   2.812 -0.4719  0.0902 -0.0889
  711SOL    HW1 2914   2.821   3.368   2.836 -0.5761 -0.5722  0.3387
  711SOL    HW2 2915   2.958   3.340   2.894 -0.2923 -0.3081 -0.1899
  712SOL     OW 2916   6.314   1.867   5.672 -0.0606  0.1373 -0.4481
  712SOL    HW1 2917   6.308   1.935   5.739  0.3132  1.3711 -1.6187
  712SOL    HW2 2918   6.388   1.813   5.699 -0.2508  0.2871  0.4012
  713SOL     OW 2919   1.641   2.461   5.309  0.0422  0.1868 -0.0417
  713SOL    HW1 2920   1.652   2.446   5.403 -0.1346 -0.7281 -0.1549
  713SOL    HW2 2921   1.586   2.539   5.303  0.1548  0.3232  0.6082
  714SOL     OW 2922   2.138   4.391   5.439 -0.4445 -0.4320  0.3097
  714SOL    HW1 2923   2.089   4.473   5.448 -1.9772 -1.2664 -0.0936
  714SOL    HW2 2924   2.071   4.325   5.420  1.0061 -1.1891 -2.9504
  715SOL     OW 2925   5.395   3.406   5.799  0.0585 -0.2737 -0.5110
  715SOL    HW1 2926   5.354   3.384   5.715 -0.4988  0.2548 -0.3868
  715SOL    HW2 2927   5.390   3.501   5.803  0.0177 -0.3036  0.1554
  716SOL     OW 2928   5.797   0.942   5.466  0.4324 -0.2284 -0.5792
  716SOL    HW1 2929   5.709   0.979   5.458  1.5742  2.7836 -0.7105
  716SOL    HW2 2930   5.796   0.864   5.412 -2.1554 -0.2930 -0.5445
  717SOL     OW 2931   2.283   4.233   7.776 -0.3006 -0.3252 -0.7357
  717SOL    HW1 2932   2.266   4.246   7.869  0.9480 -0.3050 -0.4866
  717SOL    HW2 2933   2.289   4.322   7.740 -0.1379 -0.3208 -0.7001
  718SOL     OW 2934   6.505   1.029   7.467 -0.1999 -0.2724 -0.0326
  718SOL    HW1 2935   6.486   0.965   7.399 -1.5350 -0.3391  0.3668
  718SOL    HW2 2936   6.544   0.978   7.538 -0.7239 -0.5552  0.0571
  719SOL     OW 2937   8.310   7.746   0.436  0.5176  0.2529  0.6562
  719SOL    HW1 2938   8.388   7.705   0.399  0.0035 -0.4948  0.3778
  719SOL    HW2 2939   8.324   7.840   0.424  1.1723  0.1000  0.2032
  720SOL     OW 2940   1.155   7.523   4.916 -1.0755  0.1418  0.4749
  720SOL    HW1 2941   1.090   7.573   4.965  0.0627  1.2542  0.9332
  720SOL    HW2 2942   1.183   7.582   4.846  1.5221  0.9334  2.0172
  721SOL     OW 2943   3.114   0.551   7.712 -0.1849 -0.7889 -0.1748
  721SOL    HW1 2944   3.061   0.622   7.675  0.2060 -0.9318 -1.0257
  721SOL    HW2 2945   3.179   0.595   7.767 -0.6410 -0.5639  0.1952
  722SOL     OW 2946   0.504   3.836   3.696  0.5870  0.1702 -0.2551
  722SOL    HW1 2947   0.595   3.865   3.690  1.1089 -1.3622 -0.1128
  722SOL    HW2 2948   0.507   3.743   3.676 -1.2196  0.4475 -2.1249
  723SOL     OW 2949   7.078   2.133   0.686 -0.0310 -0.0566  0.7363
  723SOL    HW1 2950   7.154   2.101   0.636 -0.7500 -1.5978  0.5605
  723SOL    HW2 2951   7.091   2.227   0.692  0.9366 -0.0450 -0.9267
  724SOL     OW 2952   7.908   3.977   3.511 -0.4063  0.4190  0.5414
  724SOL    HW1 2953   7.971   3.923   3.559 -0.2264 -0.0689 -0.2237
  724SOL    HW2 2954   7.961   4.041   3.464 -0.3614 -0.6203 -0.9049
  725SOL     OW 2955   8.103   1.214   1.416  0.1802  0.2375 -0.2594
  725SOL    HW1 2956   8.183   1.198   1.365 -1.1311 -1.9680 -1.8076
  725SOL    HW2 2957   8.036   1.231   1.350 -2.0069 -4.5566  0.3022
  726SOL     OW 2958   2.356   8.073   7.374 -1.0762 -0.6126 -0.1912
  726SOL    HW1 2959   2.319   8.016   7.441 -2.3639  0.6168  0.2126
  726SOL    HW2 2960   2.392   8.147   7.422  1.0691 -1.2700 -0.6643
  727SOL     OW 2961   2.590   5.250   3.503 -0.1038  0.1993  0.9441
  727SOL    HW1 2962   2.569   5.264   3.411  1.5203  2.7582  0.8836
  727SOL    HW2 2963   2.661   5.185   3.502  1.2782  1.6518  0.1797
  728SOL     OW 2964   4.324   5.157   3.589 -0.6993  0.1540 -0.5328
  728SOL    HW1 2965   4.359   5.079   3.632 -1.9697  0.5347  1.3313
  728SOL    HW2 2966   4.263   5.124   3.524  2.5567 -0.5069 -3.5415
  729SOL     OW 2967   7.199   2.457   2.846  0.3062  0.1508 -0.0521
  729SOL    HW1 2968   7.122   2.481   2.795  0.3210  0.9676  0.2881
  729SOL    HW2 2969   7.228   2.374   2.808 -0.0884  0.3877 -0.9054
  730SOL     OW 2970   5.788   5.143   6.309  0.4097  0.3650  0.5204
  730SOL    HW1 2971   5.781   5.049   6.326  0.7800  0.2005 -0.2145
  730SOL    HW2 2972   5.804   5.149   6.215  1.3307  1.1149  0.7091
  731SOL     OW 2973   5.615   3.149   8.043 -0.5092  0.2847 -0.3024
  731SOL    HW1 2974   5.572   3.234   8.053 -1.4406 -0.2402  0.2904
  731SOL    HW2 2975   5.546   3.091   8.010 -0.7869 -1.0099  2.2902
  732SOL     OW 2976   2.662   1.694   1.868 -0.3582  0.2577  0.0746
  732SOL    HW1 2977   2.581   1.738   1.895 -0.9259 -0.0304 -1.1020
  732SOL    HW2 2978   2.732   1.750   1.901 -1.0577  1.2766 -0.1277
  733SOL     OW 2979   4.308   6.227   7.585 -0.1927 -0.0705  0.3812
  733SOL    HW1 2980   4.400   6.204   7.599  0.5045  2.6011  0.6679
  733SOL    HW2 2981   4.310   6.320   7.560 -2.7915 -0.0656 -0.0607
  734SOL     OW 2982   6.347   0.108   3.937  0.7416 -0.0886 -0.3669
  734SOL    HW1 2983   6.395   0.168   3.881  0.8634 -0.9607 -1.2150
  734SOL    HW2 2984   6.341   0.027   3.887  0.2490 -0.6730  0.5984
  735SOL     OW 2985   1.309   4.660   4.699 -0.4371 -0.3315 -0.3442
  735SOL    HW1 2986   1.391   4.629   4.661  0.1320  1.7802 -0.9995
  735SOL    HW2 2987   1.306   4.622   4.786  2.1288  0.8724  0.3644
  736SOL     OW 2988   2.392   2.466   5.433  0.3656  0.6110 -0.2280
  736SOL    HW1 2989   2.444   2.392   5.402  0.5194  1.0298 -0.9987
  736SOL    HW2 2990   2.376   2.447   5.526 -0.9262 -1.1611 -0.7547
  737SOL     OW 2991   3.277   4.222   0.905 -0.1665  0.0089 -0.8430
  737SOL    HW1 2992   3.279   4.317   0.913  2.7608 -0.0463 -0.0171
  737SOL    HW2 2993   3.257   4.207   0.812  0.4627  1.4523 -1.2430
  738SOL     OW 2994   6.625   3.721   6.379 -0.4928  0.0507 -0.3404
  738SOL    HW1 2995   6.561   3.717   6.308 -0.2695  1.0890 -0.6123
  738SOL    HW2 2996   6.585   3.669   6.450 -1.0127 -0.4357 -0.9776
  739SOL     OW 2997   5.932   7.599   6.107 -0.1814  0.2594 -0.2537
  739SOL    HW1 2998   5.908   7.574   6.017  2.2399 -1.5482 -0.5257
  739SOL    HW2 2999   5.882   7.679   6.124 -0.3758  0.9562 -3.4008
  740SOL     OW 3000   5.060   3.752   3.818  0.2916  0.5374  0.0371
  740SOL    HW1 3001   5.155   3.756   3.821  0.5341 -1.8673 -1.3671
  740SOL    HW2 3002   5.034   3.828   3.766  1.4359  1.1800  0.3786
  741SOL     OW 3003   0.581   0.144   4.750 -0.4074  0.0686 -0.0109
  741SOL    HW1 3004   0.672   0.117   4.763  0.2230  2.2064  0.3480
  741SOL    HW2 3005   0.531   0.063   4.756  1.5563 -1.3424 -1.3053
  742SOL     OW 3006   5.795   5.710   4.985  0.4562 -0.0252  0.3047
  742SOL    HW1 3007   5.762   5.725   5.073  1.9157  0.6875  0.7597
  742SOL    HW2 3008   5.737   5.762   4.929  0.8631  1.3397  1.1005
  743SOL     OW 3009   7.243   1.286   1.147  0.8086  0.1248  0.8439
  743SOL    HW1 3010   7.180   1.322   1.084  1.9478 -1.3982 -1.2924
  743SOL    HW2 3011   7.236   1.343   1.223 -0.5690  2.1579 -0.6954
  744SOL     OW 3012   1.635   0.632   4.141 -0.2578  0.1900  0.1919
  744SOL    HW1 3013   1.603   0.616   4.230 -0.2509  0.1264  0.1831
  744SOL    HW2 3014   1.557   0.652   4.090 -0.1810  1.0248  0.3853
  745SOL     OW 3015   0.198   7.676   2.758 -0.0999 -0.0589 -0.2490
  745SOL    HW1 3016   0.222   7.751   2.812  2.5443 -0.2190 -1.0927
  745SOL    HW2 3017   0.181   7.605   2.821  0.0065  0.5267  0.4471
  746SOL     OW 3018   6.553   2.950   5.226  0.1543 -0.3810  0.2760
  746SOL    HW1 3019   6.577   3.038   5.196 -1.6294  0.2842  0.6713
  746SOL    HW2 3020   6.557   2.955   5.321 -1.8860 -0.0897  0.3846
  747SOL     OW 3021   0.984   2.568   3.738 -0.3326 -0.9398  0.0143
  747SOL    HW1 3022   0.892   2.592   3.748  0.1672  1.0204  0.3285
  747SOL    HW2 3023   1.031   2.627   3.798  1.2427 -0.9347 -1.1544
  748SOL     OW 3024   7.576   2.962   8.211  0.0261  0.3024  0.5719
  748SOL    HW1 3025   7.638   2.997   8.275  1.0808 -0.5748  0.0782
  748SOL    HW2 3026   7.506   3.026   8.207  0.7156  1.1362  1.4502
  749SOL     OW 3027   6.898   5.247   8.248 -0.5199  0.1658 -0.3932
  749SOL    HW1 3028   6.966   5.184   8.225 -1.6405 -2.3359  2.3496
  749SOL    HW2 3029   6.931   5.291   8.327 -0.5136  1.7653 -1.2623
  750SOL     OW 3030   6.613   4.798   6.578  0.4255  0.3295  0.2181
  750SOL    HW1 3031   6.660   4.814   6.497  0.4594 -1.0528 -0.0529
  750SOL    HW2 3032   6.654   4.857   6.642  0.3993  1.4305 -0.7430
  751SOL     OW 3033   5.738   6.161   7.419 -0.4826  0.0144 -0.1668
  751SOL    HW1 3034   5.680   6.127   7.351  0.9961  0.4184 -1.6803
  751SOL    HW2 3035   5.751   6.253   7.396  1.8845 -0.4093 -0.7205
  752SOL     OW 3036   5.236   5.845   3.896  0.7915  0.1419 -0.1260
  752SOL    HW1 3037   5.327   5.859   3.919  1.3841 -0.5690 -1.8758
  752SOL    HW2 3038   5.239   5.807   3.808 -1.1058 -1.7619  0.5555
  753SOL     OW 3039   8.135   3.281   0.370 -0.0692  0.1564  0.6462
  753SOL    HW1 3040   8.055   3.334   0.368  0.8455  1.5760 -0.7548
  753SOL    HW2 3041   8.182   3.305   0.290  1.7670 -0.6150  1.4330
  754SOL     OW 3042   4.536   3.393   8.041 -0.0375 -0.2926  0.0219
  754SOL    HW1 3043   4.618   3.407   7.994  0.2761 -0.3242  0.5579
  754SOL    HW2 3044   4.474   3.368   7.973 -0.5506  3.1252 -0.9731
  755SOL     OW 3045   2.371   2.952   3.744  0.2214  0.3059  0.7087
  755SOL    HW1 3046   2.454   2.914   3.716 -1.6053 -2.6957 -1.1843
  755SOL    HW2 3047   2.345   3.009   3.672 -0.8806 -1.4035 -0.2898
  756SOL     OW 3048   4.051   1.336   3.240 -0.4648  0.4977 -0.3667
  756SOL    HW1 3049   4.077   1.428   3.239 -0.5327  0.5249  0.2057
  756SOL    HW2 3050   4.006   1.323   3.157  0.5282  0.6975 -0.9507
  757SOL     OW 3051   6.447   1.560   5.036 -0.1103 -0.2991 -0.2828
  757SOL    HW1 3052   6.487   1.538   5.119  0.3001  2.7567  0.4347
  757SOL    HW2 3053   6.358   1.589   5.059 -0.2237 -0.0787 -0.9670
  758SOL     OW 3054   6.044   7.518   4.369  0.0442 -0.4147 -0.0092
  758SOL    HW1 3055   6.032   7.561   4.453  0.6053 -1.0406  0.4043
  758SOL    HW2 3056   5.965   7.540   4.319 -1.6300 -2.2315  1.6477
  759SOL     OW 3057   6.064   7.572   6.760 -0.4930 -0.2919 -0.2139
  759SOL    HW1 3058   6.058   7.498   6.700 -0.6006  0.1170 -0.7168
  759SOL    HW2 3059   6.131   7.546   6.824  0.1246 -0.4545 -0.9137
  760SOL     OW 3060   1.253   5.298   7.323 -0.2488 -0.0832  0.0219
  760SOL    HW1 3061   1.299   5.241   7.384 -0.3478  1.1405  1.2874
  760SOL    HW2 3062   1.323   5.343   7.275 -0.1659 -0.4924 -0.2481
  761SOL     OW 3063   2.555   6.950   4.469  0.3604  0.0553  0.7154
  761SOL    HW1 3064   2.558   6.938   4.374  0.9431 -0.9553  0.8501
  761SOL    HW2 3065   2.608   7.028   4.486 -1.1004  1.2365  0.0752
  762SOL     OW 3066   2.486   2.583   0.634  0.4250 -0.2700 -0.0181
  762SOL    HW1 3067   2.508   2.491   0.650 -0.8244 -0.5082  0.4707
  762SOL    HW2 3068   2.497   2.593   0.540  2.6691 -0.3106  0.1888
  763SOL     OW 3069   5.240   7.627   5.598  0.2116 -0.0892  0.0873
  763SOL    HW1 3070   5.161   7.674   5.623  0.1597 -1.2848  2.4668
  763SOL    HW2 3071   5.215   7.534   5.603  1.7194 -0.4882  0.8847
  764SOL     OW 3072   2.715   8.286   5.402  0.4438 -0.3353  0.7207
  764SOL    HW1 3073   2.760   8.274   5.318 -1.4882  1.8954 -0.7563
  764SOL    HW2 3074   2.718   8.380   5.417 -1.3453 -0.4258  1.9155
  765SOL     OW 3075   6.284   0.072   1.204 -0.0015 -0.0605  0.2766
  765SOL    HW1 3076   6.220   0.001   1.202 -0.1135  0.0493 -0.9232
  765SOL    HW2 3077   6.271   0.118   1.121  0.6595  0.8371  0.6556
  766SOL     OW 3078   6.869   3.279   1.612 -0.3093  0.3060 -0.2421
  766SOL    HW1 3079   6.905   3.353   1.564  1.0889 -0.6969 -0.8018
  766SOL    HW2 3080   6.841   3.316   1.696  0.8652  1.3718 -0.2934
  767SOL     OW 3081   0.912   7.639   0.857 -0.1399 -0.1444  0.1701
  767SOL    HW1 3082   0.943   7.640   0.767  0.8972 -2.7610  0.3971
  767SOL    HW2 3083   0.993   7.632   0.909 -0.6421  2.2488  1.4180
  768SOL     OW 3084   1.346   8.242   0.176 -0.6004  0.2235 -0.3236
  768SOL    HW1 3085   1.315   8.314   0.121 -0.7106  1.1309  0.8911
  768SOL    HW2 3086   1.311   8.261   0.263  0.6144 -0.4980  0.3590
  769SOL     OW 3087   1.111   3.439   6.222 -0.4616  0.0999  0.1947
  769SOL    HW1 3088   1.109   3.359   6.170 -0.2858  1.0638 -1.3640
  769SOL    HW2 3089   1.194   3.434   6.270  0.0139 -0.2249 -0.6342
  770SOL     OW 3090   0.074   6.017   1.396 -0.4045  0.0713 -0.1438
  770SOL    HW1 3091   0.112   5.943   1.347 -2.1436 -0.4066 -0.8639
  770SOL    HW2 3092   0.029   5.976   1.470 -2.5320  0.1920 -1.2776
  771SOL     OW 3093   4.074   2.250   4.572  0.3788 -0.3722 -0.1898
  771SOL    HW1 3094   3.990   2.206   4.573 -0.4606  1.1395  1.5492
  771SOL    HW2 3095   4.136   2.186   4.607 -0.4938 -0.7501  0.7007
  772SOL     OW 3096   0.178   5.450   0.067 -0.2010 -0.0192 -0.1144
  772SOL    HW1 3097   0.114   5.472   0.135  0.8481  1.1199  0.5516
  772SOL    HW2 3098   0.163   5.516  -0.001 -2.1149 -1.9059 -1.6859
  773SOL     OW 3099   3.394   6.966   5.076 -0.2582 -0.1388 -0.3307
  773SOL    HW1 3100   3.344   6.922   5.145  0.6159 -1.2217 -0.3586
  773SOL    HW2 3101   3.456   7.021   5.123 -2.4073  2.4416 -0.2820
  774SOL     OW 3102   3.172   2.840   7.571  0.2037  0.0990  0.2506
  774SOL    HW1 3103   3.229   2.890   7.513 -0.8547  1.2829  0.1723
  774SOL    HW2 3104   3.198   2.865   7.659 -0.2821  0.7741  0.2119
  775SOL     OW 3105   2.693   7.538   7.466  0.1294  0.0684 -0.0294
  775SOL    HW1 3106   2.600   7.551   7.482 -0.0416  0.4602 -1.2547
  775SOL    HW2 3107   2.704   7.443   7.462 -0.4187  0.0330 -0.9486
  776SOL     OW 3108   5.664   2.279   6.197 -0.0707 -0.0509 -0.3220
  776SOL    HW1 3109   5.624   2.288   6.284  1.9462 -1.6373  0.8632
  776SOL    HW2 3110   5.693   2.368   6.175 -1.1664  0.4860  0.3197
  777SOL     OW 3111   5.626   1.961   1.749  0.1443  0.2213 -0.2400
  777SOL    HW1 3112   5.604   1.887   1.805 -2.1847  0.9721 -0.0722
  777SOL    HW2 3113   5.649   2.031   1.810  1.8738 -0.1594 -0.3913
  778SOL     OW 3114   4.120   4.553   1.620  0.3774  0.3633 -0.1815
  778SOL    HW1 3115   4.135   4.482   1.558  1.4001 -0.6729  1.1743
  778SOL    HW2 3116   4.057   4.517   1.683  0.0333  1.0674 -0.1206
  779SOL     OW 3117   7.708   7.401   3.432 -0.3065 -0.0289  0.2789
  779SOL    HW1 3118   7.709   7.486   3.477  0.8178  0.3862 -0.4843
  779SOL    HW2 3119   7.779   7.351   3.474  2.2540  1.1240 -2.3063
  780SOL     OW 3120   2.286   0.081   0.488 -0.2534 -0.4219  0.4007
  780SOL    HW1 3121   2.361   0.058   0.434 -1.5733 -1.0015 -1.3062
  780SOL    HW2 3122   2.300   0.033   0.570  1.3606 -0.2486  0.2567
  781SOL     OW 3123   3.247   7.429   6.555 -0.6637 -0.0035 -0.3309
  781SOL    HW1 3124   3.208   7.365   6.495 -1.5027 -0.6643  0.8652
  781SOL    HW2 3125   3.227   7.514   6.517 -0.7298 -0.4242 -1.2485
  782SOL     OW 3126   2.115   0.678   4.504 -0.3980 -0.3907 -0.3455
  782SOL    HW1 3127   2.025   0.668   4.537 -0.4096 -0.7266 -0.4769
  782SOL    HW2 3128   2.139   0.767   4.527  0.0493 -0.9979  1.7124
  783SOL     OW 3129   6.064   1.025   2.261 -0.0161 -0.2429 -0.3801
  783SOL    HW1 3130   6.152   1.013   2.227  1.4193 -3.3977  3.6915
  783SOL    HW2 3131   6.013   0.955   2.221  0.5599 -1.2656  0.6325
  784SOL     OW 3132   1.670   3.628   4.709  0.6284  0.1080  0.2097
  784SOL    HW1 3133   1.678   3.642   4.804 -1.8395  1.7144  0.2664
  784SOL    HW2 3134   1.758   3.644   4.675  0.9324  2.6171  1.9210
  785SOL     OW 3135   0.642   2.974   0.071 -0.0330 -0.0500 -0.0888
  785SOL    HW1 3136   0.576   2.954   0.137 -0.2691 -0.6847 -0.5059
  785SOL    HW2 3137   0.597   2.958  -0.013 -0.1409  1.9260 -0.4653
  786SOL     OW 3138   6.167   2.622   2.376 -0.0100  0.6485 -0.1170
  786SOL    HW1 3139   6.071   2.625   2.382 -0.1314 -2.2470  0.7404
  786SOL    HW2 3140   6.186   2.652   2.287 -1.4983  3.0699  0.2702
  787SOL     OW 3141   4.221   2.741   1.812 -0.3042  0.1244 -0.1933
  787SOL    HW1 3142   4.138   2.704   1.782 -1.4499  2.3017  0.1152
  787SOL    HW2 3143   4.203   2.834   1.826  1.9108  0.4632  0.9265
  788SOL     OW 3144   6.555   1.540   5.308 -0.3233 -0.7779  0.4048
  788SOL    HW1 3145   6.619   1.602   5.343  0.8495 -1.6488 -0.1149
  788SOL    HW2 3146   6.536   1.481   5.381 -0.7810 -0.3190  0.6553
  789SOL     OW 3147   7.388   4.993   2.809  0.0712 -0.5122 -0.3314
  789SOL    HW1 3148   7.396   4.903   2.842  1.1830 -0.4313 -0.3424
  789SOL    HW2 3149   7.297   5.016   2.825  0.0855 -1.1837  0.8482
  790SOL     OW 3150   4.445   6.395   4.930 -0.4926 -0.3994 -0.2287
  790SOL    HW1 3151   4.444   6.475   4.878 -1.4982  0.7730  1.5051
  790SOL    HW2 3152   4.363   6.350   4.908 -3.0578  2.0930  3.0781
  791SOL     OW 3153   4.059   4.462   4.563  0.3295 -0.0878  0.1707
  791SOL    HW1 3154   4.137   4.432   4.609  0.8489 -1.0244 -1.2404
  791SOL    HW2 3155   3.990   4.461   4.629  1.1471 -0.8861  1.0440
  792SOL     OW 3156   5.021   1.544   6.692 -0.1627  0.0614  0.4971
  792SOL    HW1 3157   5.082   1.483   6.651  0.2078  1.3855 -1.0335
  792SOL    HW2 3158   4.978   1.494   6.761  2.3361 -1.0578  1.3413
  793SOL     OW 3159   4.766   0.774   3.882 -0.4536 -0.5698  0.3672
  793SOL    HW1 3160   4.685   0.805   3.841 -0.4388 -1.9880 -0.8180
  793SOL    HW2 3161   4.739   0.745   3.969 -0.6230  1.8290  1.1682
  794SOL     OW 3162   6.962   8.006   4.664 -0.1272  0.1131  0.5912
  794SOL    HW1 3163   6.981   7.941   4.597 -0.7582  2.1936 -1.7504
  794SOL    HW2 3164   7.037   8.065   4.663 -1.3255  1.6945 -0.2811
  795SOL     OW 3165   1.767   1.562   8.143 -0.5570  0.1262 -0.1437
  795SOL    HW1 3166   1.794   1.586   8.231 -1.9525 -1.9587  0.9133
  795SOL    HW2 3167   1.770   1.467   8.141 -0.1978  0.1044 -2.4954
  796SOL     OW 3168   0.726   6.620   5.041  0.3953  0.0611 -0.4273
  796SOL    HW1 3169   0.800   6.569   5.075  0.0039  0.8998  1.8292
  796SOL    HW2 3170   0.757   6.710   5.040 -0.1930  0.2635 -0.6445
  797SOL     OW 3171   8.106   8.281   2.423  0.1848 -0.4546  0.4922
  797SOL    HW1 3172   8.050   8.230   2.482 -0.3848  0.1873  0.5074
  797SOL    HW2 3173   8.064   8.366   2.416 -0.4069 -0.8520 -1.7436
  798SOL     OW 3174   3.976   6.407   6.694  0.1532 -0.4421  0.1119
  798SOL    HW1 3175   3.981   6.413   6.790 -2.8113 -1.1096  0.4211
  798SOL    HW2 3176   3.928   6.486   6.668 -0.6871 -1.1574 -0.5813
  799SOL     OW 3177   1.282   6.527   6.481  0.2506 -0.2623  0.2737
  799SOL    HW1 3178   1.223   6.595   6.449  0.1887  0.2176  1.3765
  799SOL    HW2 3179   1.364   6.541   6.433  0.7601  1.5999  1.5978
  800SOL     OW 3180   5.947   7.089   4.211 -0.7737  0.7163  0.0050
  800SOL    HW1 3181   5.857   7.119   4.211 -1.0151  0.0851  1.6225
  800SOL    HW2 3182   5.943   6.999   4.176 -0.4300  1.4383 -2.0617
  801SOL     OW 3183   0.858   4.823   5.919  0.2041 -0.3511 -0.4188
  801SOL    HW1 3184   0.829   4.739   5.956 -0.4697  0.9996  2.3935
  801SOL    HW2 3185   0.805   4.834   5.840 -0.7587 -1.9054 -0.0379
  802SOL     OW 3186   7.124   3.797   5.505  0.3941 -0.1446 -0.3435
  802SOL    HW1 3187   7.212   3.792   5.468  0.7084 -0.1902  0.3828
  802SOL    HW2 3188   7.090   3.708   5.496  0.7536 -0.3380  0.1419
  803SOL     OW 3189   3.618   4.393   5.025  0.3998  0.3083 -0.5164
  803SOL    HW1 3190   3.589   4.445   4.949 -0.8050  0.8035  0.2464
  803SOL    HW2 3191   3.617   4.455   5.098 -0.7824 -0.6825  0.3539
  804SOL     OW 3192   7.226   6.500   0.179  0.7203  0.6603 -0.0301
  804SOL    HW1 3193   7.164   6.438   0.140 -0.0008  0.2997  1.6344
  804SOL    HW2 3194   7.171   6.563   0.226  1.5118  1.8439 -0.6376
  805SOL     OW 3195   0.158   5.150   4.287  0.5043  0.2058 -0.2760
  805SOL    HW1 3196   0.099   5.182   4.219 -0.6388 -1.1419  0.0285
  805SOL    HW2 3197   0.129   5.060   4.304  2.5448 -0.4725  0.0068
  806SOL     OW 3198   4.906   2.286   4.973  0.0140  0.7572  0.4965
  806SOL    HW1 3199   4.878   2.370   4.939 -1.2837 -0.3680 -1.3826
  806SOL    HW2 3200   4.839   2.262   5.037 -1.5578 -0.3325 -1.4522
  807SOL     OW 3201   0.316   7.739   1.773 -0.2891  0.3268 -0.0576
  807SOL    HW1 3202   0.367   7.818   1.792  0.9365 -0.4337 -0.0351
  807SOL    HW2 3203   0.248   7.737   1.840 -1.2445  2.1025 -0.9245
  808SOL     OW 3204   1.826   1.094   5.879  0.1284  0.2106 -0.6153
  808SOL    HW1 3205   1.817   1.117   5.971  0.8422  1.3159 -0.8057
  808SOL    HW2 3206   1.836   1.177   5.834  1.2840 -0.3813 -1.5189
  809SOL     OW 3207   6.885   5.403   2.931  0.0790  0.8500 -0.3148
  809SOL    HW1 3208   6.818   5.380   2.867 -0.1197 -1.9485  0.7830
  809SOL    HW2 3209   6.837   5.422   3.011  0.4909 -2.2705  0.8028
  810SOL     OW 3210   6.613   1.890   7.390  0.0136  0.1868 -0.1754
  810SOL    HW1 3211   6.604   1.955   7.321 -0.9546 -0.4157 -0.6370
  810SOL    HW2 3212   6.554   1.819   7.364  0.3514 -0.4655  0.7857
  811SOL     OW 3213   4.907   4.589   5.913 -0.7046 -0.3163  0.3319
  811SOL    HW1 3214   4.909   4.684   5.903 -0.3941 -0.5533 -2.9213
  811SOL    HW2 3215   4.991   4.568   5.955  0.7497  0.6852 -1.8828
  812SOL     OW 3216   1.963   2.198   3.410  0.1963 -0.5166  0.1375
  812SOL    HW1 3217   1.875   2.236   3.409 -0.5050 -2.0372  0.4232
  812SOL    HW2 3218   1.948   2.104   3.425  1.9333 -0.6256  1.4293
  813SOL     OW 3219   4.466   4.080   7.709 -0.0543 -0.4943 -0.2454
  813SOL    HW1 3220   4.526   4.143   7.748 -0.9950  0.1509  0.2078
  813SOL    HW2 3221   4.396   4.133   7.672  0.1246 -1.1740 -1.6192
  814SOL     OW 3222   1.132   4.269   7.365  0.1565  0.6001  0.0735
  814SOL    HW1 3223   1.170   4.199   7.312 -0.2112 -0.1028  0.7396
  814SOL    HW2 3224   1.093   4.329   7.300  1.4123  0.7693 -0.5599
  815SOL     OW 3225   5.881   0.559   0.007 -0.0917  0.1377  0.1219
  815SOL    HW1 3226   5.944   0.521  -0.054 -0.3483  0.7840 -0.5522
  815SOL    HW2 3227   5.894   0.654  -0.000  0.3302  0.2167  1.5637
  816SOL     OW 3228   3.341   1.765   4.111  0.0626 -0.0920  0.4858
  816SOL    HW1 3229   3.373   1.698   4.051 -0.7100 -1.4637  1.5548
  816SOL    HW2 3230   3.334   1.721   4.195  0.7309  1.6721  1.5254
  817SOL     OW 3231   1.025   2.829   1.239  0.0190 -0.5904 -0.1245
  817SOL    HW1 3232   1.068   2.876   1.310 -1.6752  0.6465  0.1429
  817SOL    HW2 3233   1.084   2.839   1.164 -0.2953  2.0966 -0.1037
  818SOL     OW 3234   7.263   7.455   5.780  0.0785 -0.6609 -0.0273
  818SOL    HW1 3235   7.203   7.398   5.829 -1.1103  1.0846  0.6430
  818SOL    HW2 3236   7.341   7.401   5.766 -0.1133 -1.7381  2.4743
  819SOL     OW 3237   7.822   6.550   6.081  0.2022  0.4751 -0.2092
  819SOL    HW1 3238   7.909   6.537   6.043  0.0062 -0.8545 -0.2596
  819SOL    HW2 3239   7.764   6.554   6.005  0.3125  2.4106 -0.2273
  820SOL     OW 3240   5.149   4.260   0.451 -0.0172  0.5887 -0.3491
  820SOL    HW1 3241   5.207   4.285   0.379 -0.0453  0.6507 -0.3502
  820SOL    HW2 3242   5.087   4.332   0.458 -1.9509 -0.7207 -2.2964
  821SOL     OW 3243   4.195   0.284   4.023  0.3869  0.0165 -0.2445
  821SOL    HW1 3244   4.215   0.316   4.110  1.2692 -1.1812  0.0171
  821SOL    HW2 3245   4.182   0.363   3.970  0.7875  0.7557  0.7419
  822SOL     OW 3246   0.048   4.567   2.731 -0.9112  0.6066  0.2365
  822SOL    HW1 3247   0.089   4.651   2.753  1.5258 -0.3374 -0.3191
  822SOL    HW2 3248  -0.032   4.590   2.685  0.4887  2.6600 -1.3395
  823SOL     OW 3249   0.422   0.869   2.625 -0.1196  0.3020 -0.2178
  823SOL    HW1 3250   0.503   0.826   2.599 -0.3102 -0.2109  0.0290
  823SOL    HW2 3251   0.378   0.806   2.682 -0.7381  0.5328 -0.4290
  824SOL     OW 3252   5.028   4.035   1.104  0.0472  0.0377 -0.1615
  824SOL    HW1 3253   5.096   4.100   1.115  0.3598 -0.1049 -1.1773
  824SOL    HW2 3254   5.075   3.952   1.091 -0.3408 -0.3794  0.9508
  825SOL     OW 3255   0.812   0.120   3.397 -0.2320 -0.2503 -0.2191
  825SOL    HW1 3256   0.824   0.099   3.304 -0.8492 -0.7252 -0.2020
  825SOL    HW2 3257   0.734   0.175   3.399  0.9497  1.5245 -0.1813
  826SOL     OW 3258   7.440   3.378   7.972  0.1856  0.4097  0.0446
  826SOL    HW1 3259   7.478   3.320   7.905  0.8162 -0.7588  1.3591
  826SOL    HW2 3260   7.345   3.369   7.960  0.2874 -0.2483 -0.3113
  827SOL     OW 3261   1.030   1.714   3.936 -0.1161 -0.5082 -0.1117
  827SOL    HW1 3262   1.111   1.663   3.936 -1.3287 -2.5844  0.2695
  827SOL    HW2 3263   1.026   1.753   4.023  1.0445  0.6314 -0.5512
  828SOL     OW 3264   5.134   6.716   5.440  0.4139  1.1628  0.1577
  828SOL    HW1 3265   5.208   6.724   5.379 -0.2775  0.1176 -0.8744
  828SOL    HW2 3266   5.167   6.663   5.512  0.7561  0.9165 -0.1764
  829SOL     OW 3267   2.099   4.311   0.709  0.2187 -0.2447 -0.3401
  829SOL    HW1 3268   2.062   4.230   0.675 -1.3666  0.5582 -0.6332
  829SOL    HW2 3269   2.082   4.307   0.804  0.3335 -0.3428 -0.3231
  830SOL     OW 3270   2.856   2.075   3.510  0.3463  0.5185  0.0645
  830SOL    HW1 3271   2.828   2.141   3.573 -1.2915 -1.3455  1.3944
  830SOL    HW2 3272   2.775   2.033   3.481  1.2863 -0.4315 -1.3093
  831SOL     OW 3273   4.079   5.698   5.730  0.1647 -0.2120  0.1295
  831SOL    HW1 3274   4.101   5.612   5.694  1.9991  0.4715 -0.4543
  831SOL    HW2 3275   4.097   5.759   5.659  0.1762  0.8016  0.9855
  832SOL     OW 3276   8.063   2.724   0.193 -0.4572  0.0281  0.3045
  832SOL    HW1 3277   8.051   2.630   0.178  2.1337 -0.3033 -0.1747
  832SOL    HW2 3278   8.071   2.762   0.105  0.5831  0.3259  0.5064
  833SOL     OW 3279   5.276   0.113   5.527  0.1151 -0.7454  0.1321
  833SOL    HW1 3280   5.250   0.022   5.543 -1.0439 -0.2784  1.0335
  833SOL    HW2 3281   5.354   0.106   5.473  0.1912 -2.2888  0.3897
  834SOL     OW 3282   2.728   0.935   7.934 -0.4442  0.1728  0.1409
  834SOL    HW1 3283   2.770   0.851   7.952  0.1802  0.4143 -0.1668
  834SOL    HW2 3284   2.637   0.913   7.913 -0.7302 -0.2816  1.7267
  835SOL     OW 3285   8.267   4.138   6.177  0.6619  0.5641 -0.0400
  835SOL    HW1 3286   8.213   4.212   6.205 -1.6228 -1.0264 -0.0428
  835SOL    HW2 3287   8.301   4.165   6.091  0.8375  2.0452  0.4676
  836SOL     OW 3288   1.469   1.320   6.006 -0.1955  0.2636 -0.5794
  836SOL    HW1 3289   1.411   1.350   6.076  0.9531  3.1543 -0.7030
  836SOL    HW2 3290   1.547   1.287   6.051 -0.2576  0.3000 -0.4463
  837SOL     OW 3291   2.689   5.840   5.061 -0.0767  0.0260  0.0176
  837SOL    HW1 3292   2.645   5.755   5.058 -0.3491  0.1846 -0.9070
  837SOL    HW2 3293   2.619   5.904   5.047 -0.0858  0.4973  2.0129
  838SOL     OW 3294   3.264   0.175   4.821 -0.4327  0.1746 -0.1207
  838SOL    HW1 3295   3.191   0.148   4.877  1.3244 -1.7283  1.4011
  838SOL    HW2 3296   3.266   0.109   4.751  0.7045 -0.7073  0.7031
  839SOL     OW 3297   3.068   4.980   7.991 -0.5991  0.1854  0.0033
  839SOL    HW1 3298   3.116   4.978   7.909  0.4182 -0.4172  0.5996
  839SOL    HW2 3299   3.092   5.064   8.031 -1.1894  0.5345 -0.3458
  840SOL     OW 3300   6.930   0.318   3.599 -0.0520 -0.1569 -0.1967
  840SOL    HW1 3301   6.887   0.252   3.654 -0.7850 -0.4230 -1.0589
  840SOL    HW2 3302   6.901   0.401   3.636 -1.7012 -0.3235 -0.9967
  841SOL     OW 3303   6.065   0.454   7.848  0.8334  0.5049 -0.4573
  841SOL    HW1 3304   5.993   0.450   7.911  1.5272  0.0332  0.3354
  841SOL    HW2 3305   6.092   0.546   7.848  0.9030  0.4886  0.0343
  842SOL     OW 3306   7.040   7.535   5.346 -0.5623 -0.1650 -0.0246
  842SOL    HW1 3307   7.126   7.520   5.385 -0.4009 -0.5731 -0.5332
  842SOL    HW2 3308   6.978   7.505   5.413 -0.2977 -0.3657  0.1305
  843SOL     OW 3309   2.068   6.163   0.908  0.1158  0.6627  0.1008
  843SOL    HW1 3310   2.124   6.091   0.938 -0.7407 -1.0156 -2.0498
  843SOL    HW2 3311   2.010   6.180   0.981  0.5946 -0.5881  0.8073
  844SOL     OW 3312   1.868   5.195   1.388  0.2839  0.3932  0.0125
  844SOL    HW1 3313   1.960   5.180   1.369  0.5912  1.3729  0.6157
  844SOL    HW2 3314   1.828   5.108   1.388  1.3850 -0.1327  0.6212
  845SOL     OW 3315   1.874   4.035   1.004 -0.3919 -0.8101  0.0601
  845SOL    HW1 3316   1.785   4.068   0.995 -0.6244 -1.5424 -0.3532
  845SOL    HW2 3317   1.926   4.113   1.027 -0.6895  0.1358 -2.2344
  846SOL     OW 3318   7.769   6.194   5.938 -0.0093 -0.0116 -0.3940
  846SOL    HW1 3319   7.772   6.161   6.028 -1.6819 -1.8657 -0.9428
  846SOL    HW2 3320   7.782   6.116   5.884 -2.5835  0.3801 -1.7560
  847SOL     OW 3321   1.049   7.004   5.092 -0.2563  0.1263 -0.3825
  847SOL    HW1 3322   1.029   7.069   5.025  1.5423  1.4030  0.2140
  847SOL    HW2 3323   1.004   7.035   5.170 -0.1121  0.1728 -0.3172
  848SOL     OW 3324   3.295   5.299   1.739  0.0218  0.3713 -0.1089
  848SOL    HW1 3325   3.354   5.227   1.763  0.3861  1.0765  1.1728
  848SOL    HW2 3326   3.352   5.365   1.701 -0.4605 -0.4370 -2.3632
  849SOL     OW 3327   0.837   6.671   7.506 -0.2454 -0.3422 -0.0554
  849SOL    HW1 3328   0.813   6.602   7.568  1.9971 -0.6006  0.6495
  849SOL    HW2 3329   0.863   6.624   7.427  2.4145 -0.5356  0.8064
  850SOL     OW 3330   6.696   3.842   1.063 -0.5094 -0.3069 -0.2754
  850SOL    HW1 3331   6.626   3.779   1.079 -0.6627 -0.4352 -1.3456
  850SOL    HW2 3332   6.657   3.905   1.002  0.3373 -0.4511 -0.9791
  851SOL     OW 3333   4.671   2.393   3.550 -0.0144 -0.9913  0.3295
  851SOL    HW1 3334   4.629   2.456   3.608  0.7556  0.5262 -0.6834
  851SOL    HW2 3335   4.601   2.366   3.490 -0.4758 -1.5108  1.0930
  852SOL     OW 3336   2.779   4.110   7.668  1.2842  0.0689  0.1958
  852SOL    HW1 3337   2.713   4.099   7.599  3.2629 -2.0834 -1.4955
  852SOL    HW2 3338   2.752   4.049   7.737  0.8508  0.0833  0.0404
  853SOL     OW 3339   4.752   0.133   2.104  0.0471  0.3537 -0.4669
  853SOL    HW1 3340   4.839   0.143   2.142  0.1396  1.7522 -0.9829
  853SOL    HW2 3341   4.759   0.170   2.016 -0.8839 -0.1795 -0.7835
  854SOL     OW 3342   1.081   0.055   6.739  0.3428  0.0875  0.3497
  854SOL    HW1 3343   1.155   0.076   6.681  0.7510 -0.1101  0.7903
  854SOL    HW2 3344   1.122   0.014   6.815 -0.3676 -2.1926 -0.3939
  855SOL     OW 3345   8.249   3.800   1.807  0.3156 -0.0513  0.3193
  855SOL    HW1 3346   8.193   3.878   1.807  0.4560  0.0585  0.9832
  855SOL    HW2 3347   8.322   3.823   1.865 -1.0620 -1.6514  2.8744
  856SOL     OW 3348   4.917   5.843   3.831  0.6601 -0.1507  0.1732
  856SOL    HW1 3349   4.897   5.825   3.922 -0.7777 -2.5061 -0.5352
  856SOL    HW2 3350   4.985   5.780   3.808 -0.6248 -1.1740 -0.9527
  857SOL     OW 3351   3.557   0.448   2.867  0.5906  0.2043 -0.1651
  857SOL    HW1 3352   3.630   0.509   2.856  0.5603  0.1292 -0.8080
  857SOL    HW2 3353   3.480   0.498   2.839  0.3083  0.4620  1.0068
  858SOL     OW 3354   5.710   3.185   3.529  0.1568 -0.1778  0.2944
  858SOL    HW1 3355   5.676   3.097   3.547  1.7634 -0.8446  0.1895
  858SOL    HW2 3356   5.714   3.227   3.615 -1.4564  0.1469  0.2469
  859SOL     OW 3357   0.826   2.374   4.264  0.3554 -0.1922 -0.0158
  859SOL    HW1 3358   0.747   2.321   4.270 -0.4762  1.0522  0.4129
  859SOL    HW2 3359   0.814   2.443   4.330  0.1875  2.0954 -2.2851
  860SOL     OW 3360   6.224   0.744   2.893 -0.0839  0.0916  0.1172
  860SOL    HW1 3361   6.144   0.727   2.944  0.1019  1.3542  0.8768
  860SOL    HW2 3362   6.212   0.833   2.859  0.6370 -0.0321 -0.4707
  861SOL     OW 3363   6.340   4.891   1.178  0.3349  0.2508  0.6245
  861SOL    HW1 3364   6.294   4.819   1.220 -1.5910  1.3102  0.4403
  861SOL    HW2 3365   6.272   4.939   1.131  2.2244 -0.5605 -3.3856
  862SOL     OW 3366   7.720   6.226   4.424  0.1364  0.0872  0.0406
  862SOL    HW1 3367   7.667   6.238   4.345  0.2269  0.8469  0.0859
  862SOL    HW2 3368   7.736   6.132   4.428 -2.9514 -0.5053  1.1515
  863SOL     OW 3369   3.009   4.953   4.367 -0.3971 -0.9984  0.7877
  863SOL    HW1 3370   2.916   4.946   4.344 -0.6969 -3.4484  2.3586
  863SOL    HW2 3371   3.010   4.991   4.455  0.2520  0.7718  0.0600
  864SOL     OW 3372   1.269   2.097   0.225  0.4845 -0.2584  0.2987
  864SOL    HW1 3373   1.265   2.079   0.131 -0.2726 -0.0117  0.2752
  864SOL    HW2 3374   1.330   2.171   0.232  0.0736  0.1268 -0.0675
  865SOL     OW 3375   0.580   6.151   6.515 -0.2293 -0.3843  0.2025
  865SOL    HW1 3376   0.566   6.159   6.420 -0.1449 -0.5873  0.1742
  865SOL    HW2 3377   0.664   6.193   6.530  0.4749 -1.6687 -0.0243
  866SOL     OW 3378   3.472   2.247   5.735  0.7261 -0.3201 -0.3304
  866SOL    HW1 3379   3.463   2.327   5.683  0.9471 -0.4385 -0.5539
  866SOL    HW2 3380   3.526   2.189   5.681  0.0969 -0.8314 -0.4135
  867SOL     OW 3381   8.176   2.435   7.871 -1.0703  0.1221  0.6672
  867SOL    HW1 3382   8.084   2.454   7.890 -0.9397  0.9619  0.4751
  867SOL    HW2 3383   8.205   2.384   7.947 -2.2825 -2.1294 -0.2712
  868SOL     OW 3384   8.160   6.189   7.171  0.0393 -0.0870 -0.1320
  868SOL    HW1 3385   8.145   6.096   7.191 -2.5785  0.1728 -0.5590
  868SOL    HW2 3386   8.237   6.212   7.223 -0.2165 -2.0983  1.2763
  869SOL     OW 3387   0.992   7.164   2.013  0.3008 -0.0199  0.2433
  869SOL    HW1 3388   0.914   7.136   1.965  0.1955  1.1572 -0.3181
  869SOL    HW2 3389   0.972   7.145   2.105 -0.6655  0.2791  0.1099
  870SOL     OW 3390   0.229   6.273   5.662  0.1846  0.4045 -0.1575
  870SOL    HW1 3391   0.317   6.291   5.627 -0.1470  0.3777 -1.0463
  870SOL    HW2 3392   0.174   6.338   5.619  0.1215  2.0632  2.2477
  871SOL     OW 3393   3.089   5.677   3.890 -0.2259  0.4342 -0.0828
  871SOL    HW1 3394   3.058   5.684   3.800  0.2222  0.1538 -0.2614
  871SOL    HW2 3395   3.162   5.616   3.886  0.0247  0.6921  0.4163
  872SOL     OW 3396   1.648   6.118   4.554  0.7334  0.1737  0.3495
  872SOL    HW1 3397   1.622   6.173   4.628  0.6895 -1.2659  1.4659
  872SOL    HW2 3398   1.568   6.105   4.504  0.8386  1.4552 -0.1782
  873SOL     OW 3399   8.269   3.922   7.218  0.1571  0.5358 -0.4616
  873SOL    HW1 3400   8.201   3.863   7.184  0.1226 -0.0176  0.5322
  873SOL    HW2 3401   8.344   3.864   7.236 -0.1408  0.6251  1.2633
  874SOL     OW 3402   8.308   4.852   8.288  0.0538 -0.4248  0.3872
  874SOL    HW1 3403   8.380   4.915   8.283 -1.4244  1.3401  0.1512
  874SOL    HW2 3404   8.242   4.895   8.342 -0.6647 -2.1783  0.9688
  875SOL     OW 3405   3.054   7.204   0.378 -0.4847 -0.0549  0.3968
  875SOL    HW1 3406   3.123   7.139   0.362  0.3074  1.1481 -1.4759
  875SOL    HW2 3407   2.974   7.153   0.385 -0.2003 -1.2377 -3.0064
  876SOL     OW 3408   2.575   4.082   3.699 -0.1919  0.1804 -0.5465
  876SOL    HW1 3409   2.667   4.075   3.725 -0.1791 -0.9586 -0.8630
  876SOL    HW2 3410   2.578   4.082   3.603 -0.5779 -0.9860 -0.5742
  877SOL     OW 3411   5.375   3.501   7.007  0.2328 -0.2932 -0.2867
  877SOL    HW1 3412   5.360   3.522   6.915 -1.6596 -0.3394 -0.0314
  877SOL    HW2 3413   5.319   3.563   7.055  1.6226  0.1237  0.8775
  878SOL     OW 3414   7.785   2.962   6.287  0.3609 -0.2106  0.3829
  878SOL    HW1 3415   7.854   3.019   6.321  0.2788 -0.6478  1.2995
  878SOL    HW2 3416   7.832   2.892   6.242  0.4527  1.3919 -2.1956
  879SOL     OW 3417   6.459   2.192   2.765 -0.3730 -0.3615  0.4380
  879SOL    HW1 3418   6.437   2.273   2.811 -0.0897  0.4977 -0.8762
  879SOL    HW2 3419   6.531   2.154   2.816  0.9689  1.3539 -0.0746
  880SOL     OW 3420   3.264   3.679   1.145  0.5872  0.2184  0.2790
  880SOL    HW1 3421   3.197   3.725   1.093 -0.1636  0.8729  1.7593
  880SOL    HW2 3422   3.229   3.679   1.234  2.0616 -0.4456  0.8866
  881SOL     OW 3423   7.260   5.331   4.446  0.4419  0.7041 -0.0769
  881SOL    HW1 3424   7.207   5.373   4.378  0.1832  3.1301  1.5170
  881SOL    HW2 3425   7.348   5.329   4.408  0.2895  1.9151 -0.5452
  882SOL     OW 3426   5.256   2.483   6.872  0.1668  0.1814 -0.1388
  882SOL    HW1 3427   5.238   2.416   6.938  1.7543  1.0437  1.2545
  882SOL    HW2 3428   5.351   2.490   6.871  0.0659  1.7644 -0.9158
  883SOL     OW 3429   4.112   3.847   5.668  0.0794 -0.0546  0.1332
  883SOL    HW1 3430   4.017   3.858   5.664  0.0735  0.1233  0.7102
  883SOL    HW2 3431   4.126   3.753   5.654 -0.2086 -0.1470  0.4620
  884SOL     OW 3432   2.412   0.991   0.585  0.0223 -0.7890 -0.0738
  884SOL    HW1 3433   2.343   0.971   0.648 -0.3043  0.6195  0.0576
  884SOL    HW2 3434   2.485   1.023   0.638 -0.7163  1.6690 -0.4155
  885SOL     OW 3435   6.064   2.211   7.556 -0.2347  0.7047  0.0594
  885SOL    HW1 3436   5.991   2.196   7.496 -0.4619 -0.1927  0.5464
  885SOL    HW2 3437   6.023   2.223   7.642  0.1469  0.9218  0.2131
  886SOL     OW 3438   2.082   3.942   0.627  0.0763 -0.7619 -0.5891
  886SOL    HW1 3439   2.030   3.864   0.646  0.4891 -1.3612 -1.8212
  886SOL    HW2 3440   2.151   3.912   0.567 -0.8170  0.8616 -2.5762
  887SOL     OW 3441   6.816   0.971   6.771  0.1834 -0.2606  0.2508
  887SOL    HW1 3442   6.771   1.036   6.825  0.3963  0.2528 -0.1821
  887SOL    HW2 3443   6.799   0.887   6.814 -0.5375  0.0204  0.5162
  888SOL     OW 3444   7.950   0.643   1.359 -0.2002 -0.2834  0.2258
  888SOL    HW1 3445   7.915   0.567   1.406 -1.0156 -0.5746 -0.8286
  888SOL    HW2 3446   7.875   0.702   1.348  0.4369  0.7423  1.1043
  889SOL     OW 3447   5.210   2.647   7.478 -0.1003 -0.1681  0.8987
  889SOL    HW1 3448   5.275   2.621   7.544 -0.1461 -0.2704  0.9032
  889SOL    HW2 3449   5.169   2.725   7.515  0.2489  0.0932  0.7476
  890SOL     OW 3450   2.029   1.744   0.222 -0.3838 -0.7034  0.3055
  890SOL    HW1 3451   2.064   1.707   0.141 -0.2070  1.6061 -0.7304
  890SOL    HW2 3452   2.102   1.741   0.283  0.4318  0.3126 -0.5808
  891SOL     OW 3453   7.208   5.771   6.560  0.0350 -0.5449 -0.4151
  891SOL    HW1 3454   7.295   5.793   6.527  0.8833  1.8308  2.8763
  891SOL    HW2 3455   7.151   5.840   6.528 -0.9180 -2.3674 -2.9916
  892SOL     OW 3456   4.615   2.225   1.782  0.4954 -0.7831  0.4093
  892SOL    HW1 3457   4.558   2.291   1.821 -0.8001 -2.0495  0.7573
  892SOL    HW2 3458   4.581   2.214   1.693  1.0684 -0.5859  0.1628
  893SOL     OW 3459   5.966   7.486   2.534 -0.0725  0.0212  0.0084
  893SOL    HW1 3460   5.927   7.409   2.577 -0.7412  0.1439 -0.3669
  893SOL    HW2 3461   6.024   7.523   2.600 -0.0621 -0.5713  0.3405
  894SOL     OW 3462   1.669   4.354   4.450 -0.9113  0.3124  0.0349
  894SOL    HW1 3463   1.671   4.372   4.356 -1.7735  0.3500  0.0194
  894SOL    HW2 3464   1.598   4.292   4.462 -1.5539  1.1595  0.7949
  895SOL     OW 3465   1.319   1.850   5.765  0.2142  0.4379  0.1488
  895SOL    HW1 3466   1.364   1.766   5.775  1.5439  1.2694  1.6595
  895SOL    HW2 3467   1.226   1.827   5.761  0.5775 -1.1308 -0.0173
  896SOL     OW 3468   2.527   8.279   2.671 -0.4657  0.0043 -0.6155
  896SOL    HW1 3469   2.569   8.339   2.733 -1.0161 -0.9526  0.7373
  896SOL    HW2 3470   2.592   8.264   2.603  0.4004  0.5896  0.0713
  897SOL     OW 3471   0.283   5.175   6.331 -0.2157 -0.2631 -0.8844
  897SOL    HW1 3472   0.335   5.244   6.291 -0.7566 -0.0518 -1.2295
  897SOL    HW2 3473   0.326   5.094   6.303  0.5961 -0.0688 -0.2336
  898SOL     OW 3474   3.450   4.805   0.136 -0.0300 -0.6007 -0.1739
  898SOL    HW1 3475   3.444   4.864   0.061 -0.9634 -1.2735 -0.6568
  898SOL    HW2 3476   3.475   4.861   0.209  0.1623  0.2006 -0.8347
  899SOL     OW 3477   0.236   0.487   2.894 -0.5040  0.0572  0.2373
  899SOL    HW1 3478   0.157   0.450   2.855  0.3400 -0.4902 -1.0271
  899SOL    HW2 3479   0.227   0.469   2.988 -0.4287 -2.9607 -0.2231
  900SOL     OW 3480   1.215   6.437   5.789  0.1026  0.1611 -0.2913
  900SOL    HW1 3481   1.238   6.348   5.761 -3.7697 -1.0992 -0.0143
  900SOL    HW2 3482   1.158   6.424   5.864 -1.2804  2.8418 -0.7697
  901SOL     OW 3483   5.991   0.102   2.912  0.0023 -0.1368  0.0195
  901SOL    HW1 3484   5.918   0.070   2.860  0.0994  0.1725 -0.3103
  901SOL    HW2 3485   6.031   0.023   2.949 -0.9888 -0.2618  0.8735
  902SOL     OW 3486   6.855   7.444   7.875  0.1185 -0.2813 -0.0606
  902SOL    HW1 3487   6.760   7.456   7.867 -0.0205 -0.2658  1.3437
  902SOL    HW2 3488   6.892   7.501   7.808 -0.8204  1.0604  0.5064
  903SOL     OW 3489   3.685   0.875   8.196  0.3108  0.2822 -0.2112
  903SOL    HW1 3490   3.660   0.786   8.169 -1.7934  0.7410  0.0918
  903SOL    HW2 3491   3.757   0.898   8.138  0.8763 -1.5894 -0.3316
  904SOL     OW 3492   2.147   1.750   4.695 -0.0325 -0.5457 -0.1758
  904SOL    HW1 3493   2.189   1.831   4.665  0.8621 -0.3210  1.5581
  904SOL    HW2 3494   2.131   1.764   4.788 -0.3862 -2.1666  0.0435
  905SOL     OW 3495   4.572   2.382   7.868  0.3969 -0.3418  0.1805
  905SOL    HW1 3496   4.616   2.392   7.952 -0.1832 -0.1770  0.4657
  905SOL    HW2 3497   4.487   2.343   7.889 -1.2153  2.8517  0.0957
  906SOL     OW 3498   0.248   6.553   5.370  0.0663 -0.3330 -0.6666
  906SOL    HW1 3499   0.339   6.572   5.349  0.4858 -2.4432 -0.9923
  906SOL    HW2 3500   0.209   6.528   5.286 -0.4620 -0.7477 -0.3003
  907SOL     OW 3501   2.912   2.550   8.271  0.1580  0.5967  0.0418
  907SOL    HW1 3502   2.898   2.502   8.190  0.5014 -0.5848  0.6626
  907SOL    HW2 3503   3.005   2.538   8.290 -0.0570  0.3086  0.9531
  908SOL     OW 3504   7.875   1.015   0.224  0.1718  0.4066  0.6261
  908SOL    HW1 3505   7.878   1.076   0.297 -0.6352  1.3325 -0.0806
  908SOL    HW2 3506   7.916   1.062   0.152  2.2930 -1.0360  0.8061
  909SOL     OW 3507   6.502   0.482   8.258 -0.1604 -0.4845 -0.4378
  909SOL    HW1 3508   6.580   0.477   8.202  0.3875 -0.4990  0.3205
  909SOL    HW2 3509   6.434   0.517   8.200  0.4081 -0.4497 -1.1030
  910SOL     OW 3510   1.381   8.276   7.911  0.3998 -0.2286  0.1829
  910SOL    HW1 3511   1.369   8.202   7.971 -4.8652 -2.0901 -2.5487
  910SOL    HW2 3512   1.349   8.352   7.960  3.1502 -0.0943  2.0063
  911SOL     OW 3513   3.249   2.468   4.463 -0.3987 -0.3281 -0.4058
  911SOL    HW1 3514   3.179   2.423   4.511 -1.2384  0.6818 -0.6392
  911SOL    HW2 3515   3.209   2.550   4.434  0.9978  0.4432 -0.2422
  912SOL     OW 3516   5.531   5.247   0.402 -0.7759 -0.6236 -0.2692
  912SOL    HW1 3517   5.492   5.332   0.423  0.4018 -0.1440  0.0880
  912SOL    HW2 3518   5.555   5.211   0.487 -0.6141 -0.9789 -0.4654
  913SOL     OW 3519   5.933   2.434   5.310 -0.0644 -0.5263 -0.1431
  913SOL    HW1 3520   5.893   2.387   5.384 -0.3871 -2.5196 -1.4947
  913SOL    HW2 3521   5.859   2.464   5.258  0.1355  1.6598  0.7173
  914SOL     OW 3522   5.329   2.841   0.480  0.0307  0.1710  0.0238
  914SOL    HW1 3523   5.278   2.912   0.439 -0.3127 -0.1641 -0.1353
  914SOL    HW2 3524   5.273   2.810   0.551 -0.4094 -0.8316 -0.7389
  915SOL     OW 3525   7.507   6.105   5.325  0.1424  0.0852 -0.2059
  915SOL    HW1 3526   7.538   6.136   5.240  0.2546 -0.7967 -0.5056
  915SOL    HW2 3527   7.452   6.029   5.304 -0.1467  0.0916  0.4873
  916SOL     OW 3528   5.347   1.670   4.328  0.3397 -0.6427 -0.0869
  916SOL    HW1 3529   5.421   1.626   4.286  0.9027 -0.0573  0.2751
  916SOL    HW2 3530   5.317   1.607   4.393 -0.2195 -1.3516 -1.0017
  917SOL     OW 3531   5.612   1.352   0.009 -0.6355  0.0702 -0.0525
  917SOL    HW1 3532   5.583   1.433  -0.033 -0.1588 -1.2021 -3.1542
  917SOL    HW2 3533   5.668   1.381   0.080  2.0538  2.6250 -2.8903
  918SOL     OW 3534   8.160   5.479   3.627 -0.2993  0.6347  0.1615
  918SOL    HW1 3535   8.147   5.446   3.716  1.0594  1.6387  0.7671
  918SOL    HW2 3536   8.161   5.400   3.573 -2.5860  0.0917  0.7923
  919SOL     OW 3537   5.288   6.800   1.861  0.1134  0.2569 -0.0949
  919SOL    HW1 3538   5.317   6.848   1.783  2.1810 -1.4540 -0.4527
  919SOL    HW2 3539   5.345   6.831   1.931  1.0016 -1.1272 -0.1784
  920SOL     OW 3540   3.266   7.368   6.267  0.1486 -0.0320  0.4884
  920SOL    HW1 3541   3.294   7.370   6.175  0.3432 -0.8295  0.5232
  920SOL    HW2 3542   3.307   7.289   6.302 -2.1118 -1.2538  0.5553
  921SOL     OW 3543   0.047   2.956   4.682  0.0326 -0.0017  0.1032
  921SOL    HW1 3544   0.023   3.010   4.757 -1.1098 -0.7115  0.2722
  921SOL    HW2 3545   0.034   2.866   4.711 -1.2443 -0.2780 -1.1754
  922SOL     OW 3546   1.793   5.421   4.873  0.2740  0.4414  0.3741
  922SOL    HW1 3547   1.839   5.502   4.852 -2.0862  2.1379  1.2938
  922SOL    HW2 3548   1.830   5.393   4.957  0.2509  1.2726  0.6659
  923SOL     OW 3549   4.259   5.877   6.359 -0.3827 -0.0205 -0.6763
  923SOL    HW1 3550   4.326   5.858   6.293  0.3729 -0.8585  0.3061
  923SOL    HW2 3551   4.274   5.968   6.383  0.8344 -0.3772 -0.0128
  924SOL     OW 3552   5.137   5.247   0.670  0.0033 -0.2512  0.0365
  924SOL    HW1 3553   5.106   5.157   0.672 -1.5484  0.2651  0.0898
  924SOL    HW2 3554   5.139   5.269   0.577  1.9688 -0.8325 -0.1056
  925SOL     OW 3555   5.254   2.102   0.218 -0.4839  0.1819  0.1889
  925SOL    HW1 3556   5.341   2.141   0.224  0.9249 -2.0694 -2.9602
  925SOL    HW2 3557   5.201   2.166   0.170  0.8365 -0.2747 -1.9797
  926SOL     OW 3558   5.385   1.810   2.213 -0.6790  0.2142 -0.2423
  926SOL    HW1 3559   5.335   1.843   2.138  1.8586 -0.5410 -2.4167
  926SOL    HW2 3560   5.418   1.889   2.256  0.9464  0.6775 -2.2302
  927SOL     OW 3561   4.053   1.398   7.460 -0.4057  0.0649 -0.4214
  927SOL    HW1 3562   4.067   1.415   7.367  2.4017  2.6853  0.3368
  927SOL    HW2 3563   4.029   1.483   7.497 -1.0058 -0.8278  1.3641
  928SOL     OW 3564   5.762   4.549   8.043 -0.0756 -0.0901 -0.5318
  928SOL    HW1 3565   5.757   4.623   8.103 -1.1527 -0.2349 -0.4141
  928SOL    HW2 3566   5.851   4.515   8.053  0.6625  1.6008 -1.1057
  929SOL     OW 3567   2.880   2.549   6.523 -0.3223  0.2270  0.2895
  929SOL    HW1 3568   2.832   2.479   6.479  0.0301  0.9166 -1.2700
  929SOL    HW2 3569   2.972   2.524   6.514 -0.0946  1.5162 -1.5298
  930SOL     OW 3570   4.992   0.193   0.677  0.4655  0.2598  0.3512
  930SOL    HW1 3571   4.932   0.254   0.720  1.0766  1.8447 -0.9296
  930SOL    HW2 3572   5.068   0.189   0.735 -0.2772 -0.6556  1.2842
  931SOL     OW 3573   5.189   2.737   5.141 -0.0916 -0.3755  0.0431
  931SOL    HW1 3574   5.238   2.771   5.067 -1.7859 -0.5844 -1.2447
  931SOL    HW2 3575   5.248   2.675   5.183  1.4342  0.8408 -0.2126
  932SOL     OW 3576   7.372   7.438   0.258  0.1213  0.4293 -0.4350
  932SOL    HW1 3577   7.376   7.452   0.164  2.1351  2.7637 -0.1013
  932SOL    HW2 3578   7.451   7.389   0.279 -0.9784 -1.2712 -0.0572
  933SOL     OW 3579   1.186   4.168   0.760 -0.2349 -0.2270  0.4232
  933SOL    HW1 3580   1.184   4.223   0.839 -3.5290 -0.4383  0.6266
  933SOL    HW2 3581   1.188   4.078   0.794  0.3884 -0.3030  0.1950
  934SOL     OW 3582   0.010   4.274   6.531 -0.2353 -0.3570 -0.0724
  934SOL    HW1 3583   0.091   4.254   6.578 -0.3573  0.0714  0.3355
  934SOL    HW2 3584  -0.033   4.340   6.586  0.0383  0.8345 -1.2372
  935SOL     OW 3585   4.082   3.038   7.452 -0.5537 -0.3100 -0.3530
  935SOL    HW1 3586   4.152   3.040   7.517 -1.1198  1.3250  0.2452
  935SOL    HW2 3587   4.126   3.050   7.368 -0.0901  0.3709 -0.0137
  936SOL     OW 3588   3.225   0.682   7.950  0.4088 -0.4893 -0.4352
  936SOL    HW1 3589   3.253   0.591   7.956 -0.2935 -0.6730  0.1717
  936SOL    HW2 3590   3.306   0.733   7.956  0.9867 -1.0969 -2.3360
  937SOL     OW 3591   4.417   6.711   7.737  0.2759  0.2879  0.1920
  937SOL    HW1 3592   4.352   6.653   7.777 -0.6740  0.3576 -1.1486
  937SOL    HW2 3593   4.407   6.794   7.784 -1.3466  0.6018 -0.6022
  938SOL     OW 3594   5.758   5.400   0.880 -0.2316 -0.3678  0.1294
  938SOL    HW1 3595   5.668   5.431   0.887 -0.0810  0.5601 -1.5456
  938SOL    HW2 3596   5.808   5.476   0.851  0.8351 -1.2374 -0.4163
  939SOL     OW 3597   7.907   6.052   4.617 -0.0438  0.4395 -0.1936
  939SOL    HW1 3598   7.837   5.999   4.576 -0.2012 -1.0469  1.8506
  939SOL    HW2 3599   7.986   6.024   4.571 -0.2165 -1.1785  0.4133
  940SOL     OW 3600   7.108   4.562   0.483 -0.0826  0.0165  0.5216
  940SOL    HW1 3601   7.154   4.486   0.519 -2.8408 -2.0255  0.0183
  940SOL    HW2 3602   7.085   4.615   0.559  0.3865 -0.5230  1.0449
  941SOL     OW 3603   5.941   1.798   8.082 -0.2317 -0.0839 -0.4455
  941SOL    HW1 3604   5.971   1.707   8.074  2.3859  0.7002 -0.2131
  941SOL    HW2 3605   5.931   1.828   7.992  0.9619  0.0184 -0.5541
  942SOL     OW 3606   2.669   6.833   7.877  0.2738 -0.1483  0.1569
  942SOL    HW1 3607   2.595   6.780   7.848  1.0138  0.1146 -2.4879
  942SOL    HW2 3608   2.744   6.774   7.876  1.1724  0.8527 -3.1335
  943SOL     OW 3609   2.494   7.327   4.336 -0.2957 -0.1197  0.0616
  943SOL    HW1 3610   2.446   7.289   4.410 -0.4522 -1.7963 -0.8360
  943SOL    HW2 3611   2.444   7.300   4.259  1.1365 -0.4303 -0.7996
  944SOL     OW 3612   5.099   0.742   4.217  0.1794  0.8145  0.1569
  944SOL    HW1 3613   5.107   0.719   4.124 -0.1620 -2.0946  0.7560
  944SOL    HW2 3614   5.030   0.808   4.219 -1.3087 -0.5799 -1.5314
  945SOL     OW 3615   1.385   3.428   6.274  0.5301  0.2458  0.1117
  945SOL    HW1 3616   1.370   3.491   6.344 -0.0564  2.4227 -1.8596
  945SOL    HW2 3617   1.435   3.476   6.208 -1.2416 -0.8385 -2.1550
  946SOL     OW 3618   1.278   4.681   0.344 -0.6383 -0.1709 -0.0138
  946SOL    HW1 3619   1.204   4.621   0.357  0.4168 -1.6965 -0.7774
  946SOL    HW2 3620   1.269   4.712   0.254 -0.8696  0.4163  0.2041
  947SOL     OW 3621   6.921   4.018   2.249  0.3774 -0.4126  0.4342
  947SOL    HW1 3622   6.966   4.102   2.246 -0.7633  0.2151  0.2364
  947SOL    HW2 3623   6.959   3.973   2.324  1.1043  0.2194  0.4544
  948SOL     OW 3624   4.160   2.889   3.660  0.7936 -0.2993 -0.4728
  948SOL    HW1 3625   4.190   2.799   3.669 -0.1871 -0.6981 -1.0093
  948SOL    HW2 3626   4.090   2.898   3.726  0.4524 -0.1392 -0.8505
  949SOL     OW 3627   2.128   3.349   5.152  0.1905  0.4272 -0.1935
  949SOL    HW1 3628   2.126   3.443   5.137 -2.1618  0.4003 -0.4085
  949SOL    HW2 3629   2.094   3.338   5.241  2.0712 -0.1622  0.5030
  950SOL     OW 3630   7.071   3.848   6.721 -0.0356  0.3651 -1.0400
  950SOL    HW1 3631   7.092   3.937   6.748 -1.0987  0.8217 -1.6490
  950SOL    HW2 3632   7.038   3.806   6.800  1.7023  0.0781 -0.4266
  951SOL     OW 3633   1.291   3.987   3.409 -0.4089 -0.2507  0.0134
  951SOL    HW1 3634   1.207   3.966   3.369 -1.1377 -0.4836  1.5646
  951SOL    HW2 3635   1.284   4.079   3.433 -0.8428 -0.6360  1.4801
  952SOL     OW 3636   6.403   6.831   6.262 -0.4191 -0.2103 -0.3564
  952SOL    HW1 3637   6.343   6.905   6.274 -1.8972 -1.5385  0.8152
  952SOL    HW2 3638   6.451   6.825   6.344  0.7540  0.3014 -0.9759
  953SOL     OW 3639   6.940   8.254   3.233  0.3793  0.2206 -0.4817
  953SOL    HW1 3640   6.939   8.344   3.200  1.4497  0.4958  0.1901
  953SOL    HW2 3641   6.961   8.263   3.326  3.3810 -0.8427 -0.9652
  954SOL     OW 3642   6.598   0.298   6.050 -0.0989 -0.1146  0.0262
  954SOL    HW1 3643   6.629   0.212   6.078 -2.9442 -1.5413 -0.8161
  954SOL    HW2 3644   6.589   0.349   6.131 -1.2873 -1.6812  0.9250
  955SOL     OW 3645   6.701   8.025   4.385 -0.1522  0.3009  0.3221
  955SOL    HW1 3646   6.721   7.935   4.360 -1.0687  0.0103  0.5722
  955SOL    HW2 3647   6.764   8.079   4.337  0.3723 -0.4702  0.1353
  956SOL     OW 3648   3.496   2.478   5.590  0.5101 -0.4878  0.2813
  956SOL    HW1 3649   3.421   2.533   5.611  2.0436  1.3439  1.3684
  956SOL    HW2 3650   3.498   2.477   5.494  0.1826  1.0764  0.2224
  957SOL     OW 3651   2.912   8.169   0.888 -0.0188 -0.2439 -0.2986
  957SOL    HW1 3652   2.831   8.167   0.837  0.4998  0.9598 -1.2077
  957SOL    HW2 3653   2.886   8.207   0.972 -0.4106  0.0592 -0.5525
  958SOL     OW 3654   5.876   4.943   3.115  0.5438 -0.0067  0.2299
  958SOL    HW1 3655   5.786   4.919   3.139  0.7901 -1.4137 -0.1685
  958SOL    HW2 3656   5.928   4.920   3.191  0.9759 -2.1618 -0.6394
  959SOL     OW 3657   6.060   3.671   4.911 -0.6092 -0.0510 -0.3615
  959SOL    HW1 3658   6.040   3.760   4.883  1.1270  0.8326  1.0024
  959SOL    HW2 3659   6.077   3.678   5.004 -0.3352 -1.8027 -0.2466
  960SOL     OW 3660   4.851   4.689   7.421  0.2996 -0.5062  0.3459
  960SOL    HW1 3661   4.797   4.610   7.413 -1.8781  1.0341 -1.0302
  960SOL    HW2 3662   4.930   4.659   7.466 -1.3052 -3.0632  1.6892
  961SOL     OW 3663   7.532   3.102   4.793 -0.3607  0.4667  0.2550
  961SOL    HW1 3664   7.461   3.093   4.857  0.4673  1.5358  1.3634
  961SOL    HW2 3665   7.603   3.142   4.841  1.2375 -1.0903 -0.6860
  962SOL     OW 3666   6.158   5.214   8.027  0.4394  0.3151  0.4815
  962SOL    HW1 3667   6.141   5.208   7.933 -0.9561  0.6359  0.6794
  962SOL    HW2 3668   6.251   5.198   8.037  0.3187 -1.4417 -0.7960
  963SOL     OW 3669   4.666   1.738   3.266 -0.6853  0.4643 -0.4499
  963SOL    HW1 3670   4.616   1.757   3.346 -1.1365  1.9639 -1.0441
  963SOL    HW2 3671   4.692   1.647   3.275 -0.9326  0.5266  1.3027
  964SOL     OW 3672   3.922   5.260   5.648 -0.7180  0.2138  0.9869
  964SOL    HW1 3673   3.857   5.275   5.717  0.2185 -0.3507  2.0194
  964SOL    HW2 3674   3.906   5.170   5.619 -0.7902  0.2857  0.8008
  965SOL     OW 3675   3.900   3.354   4.338  0.5334  0.7837 -0.5060
  965SOL    HW1 3676   3.816   3.309   4.328  0.0605  1.6705 -0.7165
  965SOL    HW2 3677   3.886   3.416   4.410  0.7696  1.4449 -1.0164
  966SOL     OW 3678   1.640   8.307   0.154  0.3490  0.0847 -0.4653
  966SOL    HW1 3679   1.546   8.306   0.170  0.7387  1.4459  2.5177
  966SOL    HW2 3680   1.669   8.220   0.182  0.2190  0.4110  0.7486
  967SOL     OW 3681   2.543   6.605   2.651  0.5625 -0.0754  0.0468
  967SOL    HW1 3682   2.552   6.664   2.576  0.8849 -0.7035 -0.4152
  967SOL    HW2 3683   2.577   6.656   2.725 -2.5060  1.6876  0.3986
  968SOL     OW 3684   4.589   5.793   1.534  1.2614  0.0831 -0.4853
  968SOL    HW1 3685   4.607   5.738   1.458  0.7406 -1.2927  0.3525
  968SOL    HW2 3686   4.533   5.739   1.590  1.6270  1.0646  0.8794
  969SOL     OW 3687   5.506   0.287   6.216  0.7066  0.0586 -0.4093
  969SOL    HW1 3688   5.452   0.255   6.144 -0.5865  0.6217  0.2554
  969SOL    HW2 3689   5.584   0.324   6.174  0.1786 -0.0157 -1.4842
  970SOL     OW 3690   0.242   7.936   2.889 -0.1009  0.1723  0.0560
  970SOL    HW1 3691   0.221   7.916   2.980  0.4103  0.5200  0.2582
  970SOL    HW2 3692   0.301   8.011   2.894  0.9767 -0.6043 -0.4853
  971SOL     OW 3693   0.348   1.774   2.466 -0.1087 -0.0439  0.1325
  971SOL    HW1 3694   0.278   1.756   2.403  0.2275 -0.8994 -0.0095
  971SOL    HW2 3695   0.336   1.707   2.534  0.4907 -0.1162  0.1703
  972SOL     OW 3696   0.668   0.524   0.008 -0.1571 -0.0530  0.1510
  972SOL    HW1 3697   0.634   0.435   0.012  1.1180 -0.5917 -0.3159
  972SOL    HW2 3698   0.600   0.578   0.047 -1.6083 -1.0276 -0.9477
  973SOL     OW 3699   7.013   5.597   3.209  0.2367 -0.2338  0.3298
  973SOL    HW1 3700   7.082   5.532   3.220 -1.3252 -1.8886  0.6996
  973SOL    HW2 3701   6.933   5.546   3.195 -1.3859  1.5346  2.3943
  974SOL     OW 3702   3.383   3.511   6.961 -0.5740 -0.0871 -0.2947
  974SOL    HW1 3703   3.327   3.467   6.896  0.4438  0.0190 -1.2828
  974SOL    HW2 3704   3.461   3.536   6.911 -0.2928  1.0916  0.7046
  975SOL     OW 3705   5.116   7.399   3.796  0.9687 -0.1163  0.4348
  975SOL    HW1 3706   5.031   7.439   3.776  1.3110  0.8830  0.9579
  975SOL    HW2 3707   5.154   7.380   3.710 -0.3125 -1.7849  0.1665
  976SOL     OW 3708   7.365   1.604   7.031  0.7490 -0.0001 -0.0939
  976SOL    HW1 3709   7.402   1.686   7.065  2.0414 -1.0705  1.1978
  976SOL    HW2 3710   7.271   1.612   7.048  0.5962  1.8820 -1.4899
  977SOL     OW 3711   3.436   3.857   3.500  0.1918  0.0675 -0.3444
  977SOL    HW1 3712   3.511   3.805   3.529 -0.5612 -0.2160  1.1938
  977SOL    HW2 3713   3.367   3.836   3.563 -0.1569  2.9017  0.3521
  978SOL     OW 3714   1.123   3.280   8.096 -0.0852  0.5270  0.0273
  978SOL    HW1 3715   1.185   3.340   8.054 -0.4308  0.2671 -0.8828
  978SOL    HW2 3716   1.051   3.337   8.126  0.6734  0.8603  1.2968
  979SOL     OW 3717   1.240   6.073   0.460 -0.5348 -0.4897 -0.2520
  979SOL    HW1 3718   1.222   6.063   0.554  0.9886  1.3517  0.2908
  979SOL    HW2 3719   1.248   5.984   0.428 -0.2943 -1.1600  1.5411
  980SOL     OW 3720   6.272   0.106   2.538 -0.3782 -0.3329  0.0185
  980SOL    HW1 3721   6.234   0.137   2.620 -2.3215  1.3994 -1.4310
  980SOL    HW2 3722   6.205   0.050   2.499 -0.5714  0.8466 -1.4763
  981SOL     OW 3723   3.242   3.565   2.184  0.1253  0.4294  0.0285
  981SOL    HW1 3724   3.278   3.515   2.257  0.5948  2.1598  1.0215
  981SOL    HW2 3725   3.318   3.585   2.129 -0.1166 -0.2334 -0.5622
  982SOL     OW 3726   3.430   3.167   2.611 -0.0142  0.0479 -0.2920
  982SOL    HW1 3727   3.335   3.161   2.623 -0.1412  0.3418 -1.0621
  982SOL    HW2 3728   3.446   3.259   2.591  0.4500  0.0230 -0.0438
  983SOL     OW 3729   0.112   4.733   0.200  0.2192  0.0074 -0.8630
  983SOL    HW1 3730   0.195   4.763   0.237  0.2068 -0.2700 -0.6069
  983SOL    HW2 3731   0.138   4.673   0.130  0.2352 -0.5373 -0.3985
  984SOL     OW 3732   8.246   1.029   5.771  0.2197 -0.0012 -0.0601
  984SOL    HW1 3733   8.271   1.007   5.681 -0.1972 -0.8445  0.0150
  984SOL    HW2 3734   8.252   0.946   5.818 -0.7390  0.1809  0.4101
  985SOL     OW 3735   7.492   0.429   2.144 -0.0332 -0.1363 -0.4971
  985SOL    HW1 3736   7.468   0.518   2.121  0.7715  0.4157  0.7178
  985SOL    HW2 3737   7.422   0.375   2.106 -2.9887  1.3245  2.3919
  986SOL     OW 3738   0.240   6.237   7.789 -0.0123 -0.1799  0.6193
  986SOL    HW1 3739   0.175   6.268   7.725  0.9475  2.5439  0.8368
  986SOL    HW2 3740   0.207   6.266   7.873  0.6446 -0.3343  0.9360
  987SOL     OW 3741   1.141   3.852   2.616  0.4005  0.4215  0.4993
  987SOL    HW1 3742   1.056   3.877   2.581  0.0123 -2.3522 -0.8291
  987SOL    HW2 3743   1.182   3.801   2.545  0.7457 -3.1348  2.9537
  988SOL     OW 3744   0.161   0.359   5.680  0.2388  0.6542  0.1595
  988SOL    HW1 3745   0.111   0.300   5.736  0.2107 -0.5448 -1.0883
  988SOL    HW2 3746   0.102   0.380   5.608  0.5080  1.6275  0.2103
  989SOL     OW 3747   8.135   0.497   0.682 -1.1836 -0.2172 -0.1455
  989SOL    HW1 3748   8.122   0.449   0.600  0.3886  0.9668 -1.1535
  989SOL    HW2 3749   8.070   0.460   0.742 -2.1158 -1.3970 -1.7900
  990SOL     OW 3750   1.326   6.818   1.319 -0.3099 -0.4841  0.2804
  990SOL    HW1 3751   1.410   6.789   1.282 -0.9653 -0.9213 -0.9331
  990SOL    HW2 3752   1.336   6.806   1.413  0.7578 -1.1913  0.0975
  991SOL     OW 3753   4.446   2.874   5.287 -0.0672 -0.6843  0.2637
  991SOL    HW1 3754   4.411   2.869   5.376 -1.9699 -1.1038 -0.4505
  991SOL    HW2 3755   4.374   2.845   5.231  0.3894  1.4697 -1.5906
  992SOL     OW 3756   4.811   3.119   0.119 -0.3406 -0.2379 -0.2494
  992SOL    HW1 3757   4.766   3.161   0.045 -0.8355 -0.1504  0.0925
  992SOL    HW2 3758   4.752   3.132   0.193  0.0494 -0.5161  0.1162
  993SOL     OW 3759   6.296   1.211   1.865 -0.0970 -0.4348  0.1134
  993SOL    HW1 3760   6.264   1.152   1.934  0.2244  0.4868  1.0773
  993SOL    HW2 3761   6.233   1.200   1.793 -0.1162 -1.8438  0.3149
  994SOL     OW 3762   5.660   2.899   2.150 -0.5220  0.0957  0.3421
  994SOL    HW1 3763   5.709   2.819   2.133 -0.8663 -0.1225  0.3729
  994SOL    HW2 3764   5.719   2.969   2.123 -0.5827 -0.1967 -0.5647
  995SOL     OW 3765   3.096   4.951   3.560  0.7852 -0.0753 -0.3916
  995SOL    HW1 3766   3.051   4.970   3.642  1.2353 -1.8896  0.3269
  995SOL    HW2 3767   3.038   4.987   3.492  0.9743  2.5224  0.7063
  996SOL     OW 3768   7.630   1.747   6.639 -0.0475 -0.3724 -0.0011
  996SOL    HW1 3769   7.624   1.808   6.713  1.6147  0.2898 -0.3653
  996SOL    HW2 3770   7.663   1.801   6.567  1.2414 -1.6599 -0.4006
  997SOL     OW 3771   7.848   1.005   3.020  0.0005  0.0737  0.0217
  997SOL    HW1 3772   7.781   1.005   2.951 -0.7117  0.3060  0.7058
  997SOL    HW2 3773   7.912   1.070   2.990 -0.4342  0.3664 -0.2959
  998SOL     OW 3774   5.839   2.882   1.338  0.0949 -0.5105  0.3375
  998SOL    HW1 3775   5.774   2.936   1.293  1.9367  2.1388  0.6444
  998SOL    HW2 3776   5.803   2.869   1.426 -0.4217  0.1468  0.2284
  999SOL     OW 3777   5.491   0.430   4.655  0.1411  0.3391  0.0609
  999SOL    HW1 3778   5.525   0.342   4.636  0.2072  0.8527 -2.6670
  999SOL    HW2 3779   5.413   0.414   4.708  0.9539 -1.2513  0.8628
 1000SOL     OW 3780   3.516   1.407   4.979 -0.0641  0.2564 -0.3018
 1000SOL    HW1 3781   3.512   1.410   4.883 -0.0107  1.6196 -0.2814
 1000SOL    HW2 3782   3.490   1.317   5.001  2.5747 -0.9630 -1.6973
 1001SOL     OW 3783   2.354   1.107   5.291 -0.5658 -0.0210  0.3415
 1001SOL    HW1 3784   2.364   1.030   5.235 -1.7505  0.0755 -0.0172
 1001SOL    HW2 3785   2.263   1.134   5.279 -0.4520  0.8162  1.2668
 1002SOL     OW 3786   1.219   2.571   8.270 -0.1433  0.6000  0.4339
 1002SOL    HW1 3787   1.309   2.579   8.237 -0.3766 -1.5964 -0.9399
 1002SOL    HW2 3788   1.168   2.632   8.216 -0.1636 -1.4343 -2.0340
 1003SOL     OW 3789   5.181   3.230   7.035 -0.0527  0.0558 -0.4823
 1003SOL    HW1 3790   5.174   3.205   7.127 -1.6077 -2.7102 -1.2377
 1003SOL    HW2 3791   5.273   3.212   7.013  0.0305 -0.4721  0.2443
 1004SOL     OW 3792   2.313   1.416   1.499 -0.0802 -0.4740  0.5685
 1004SOL    HW1 3793   2.260   1.347   1.539 -0.3224 -0.2564  0.6252
 1004SOL    HW2 3794   2.344   1.468   1.574 -2.1026  1.0796  0.3960
 1005SOL     OW 3795   2.526   5.065   0.184 -0.4802  0.3204  0.3133
 1005SOL    HW1 3796   2.602   5.014   0.154  1.3490  2.1362  1.5517
 1005SOL    HW2 3797   2.451   5.024   0.141  0.9675 -2.6570  0.3837
 1006SOL     OW 3798   1.033   5.005   1.618 -0.1799 -0.4827 -0.3562
 1006SOL    HW1 3799   1.082   4.950   1.679 -1.3682 -0.5511  0.5807
 1006SOL    HW2 3800   1.070   5.092   1.629  0.5663 -0.7631 -0.5895
 1007SOL     OW 3801   5.756   0.342   3.607  0.0320  0.1371  0.1694
 1007SOL    HW1 3802   5.664   0.366   3.622  0.3975  1.2380  0.7267
 1007SOL    HW2 3803   5.778   0.380   3.522 -0.4370 -1.4158 -0.6938
 1008SOL     OW 3804   4.825   2.029   4.882  0.0506 -0.2223  0.2542
 1008SOL    HW1 3805   4.745   2.012   4.933  0.3195 -2.0022  0.1587
 1008SOL    HW2 3806   4.851   2.117   4.908 -2.4854  0.8452 -0.4811
 1009SOL     OW 3807   4.642   4.656   1.625  0.6927 -0.7764 -0.4077
 1009SOL    HW1 3808   4.548   4.639   1.616  0.3121  0.9102  0.0919
 1009SOL    HW2 3809   4.677   4.576   1.664 -0.8971 -0.6818  1.3722
 1010SOL     OW 3810   3.277   1.042   3.330  0.6967 -0.1493 -0.2402
 1010SOL    HW1 3811   3.274   1.107   3.400 -0.3533 -0.1139 -0.2987
 1010SOL    HW2 3812   3.186   1.034   3.301  0.6600 -2.1368  0.2333
 1011SOL     OW 3813   8.186   7.113   7.865  0.5303 -0.2158  0.6261
 1011SOL    HW1 3814   8.106   7.157   7.894  1.5153  2.4712 -0.4361
 1011SOL    HW2 3815   8.171   7.094   7.773  1.6431  1.8673 -0.0572
 1012SOL     OW 3816   3.139   0.623   0.050  0.6850 -0.1844 -0.1658
 1012SOL    HW1 3817   3.099   0.536   0.055  0.5928 -0.1215  0.2220
 1012SOL    HW2 3818   3.230   0.606   0.024  0.6456 -0.3900 -0.1718
 1013SOL     OW 3819   0.138   3.725   7.260  0.5374 -0.4485  0.0434
 1013SOL    HW1 3820   0.143   3.698   7.169  1.1540  0.6224 -0.2659
 1013SOL    HW2 3821   0.201   3.669   7.305  3.0944  1.4557 -0.8825
 1014SOL     OW 3822   1.962   6.067   5.204 -0.0791  0.3824 -0.0027
 1014SOL    HW1 3823   1.979   6.063   5.110  0.0591 -0.6953  0.0569
 1014SOL    HW2 3824   1.877   6.026   5.215  0.0932  0.1323  0.3928
 1015SOL     OW 3825   2.602   8.075   0.564  0.4849 -0.5082  0.3558
 1015SOL    HW1 3826   2.607   8.150   0.623  0.1748  0.1178 -0.3941
 1015SOL    HW2 3827   2.682   8.026   0.581 -0.2133 -1.0758  2.2478
 1016SOL     OW 3828   2.085   7.385   7.419  0.0400 -0.3848 -0.1235
 1016SOL    HW1 3829   2.060   7.302   7.460  2.1817 -0.9147  0.2323
 1016SOL    HW2 3830   2.177   7.374   7.397 -0.1703  1.1603 -2.0036
 1017SOL     OW 3831   4.499   7.502   1.450  0.1180 -0.2796  0.0859
 1017SOL    HW1 3832   4.525   7.498   1.358 -1.6968 -1.3383 -0.4378
 1017SOL    HW2 3833   4.506   7.594   1.473  2.4198 -0.2246 -0.5032
 1018SOL     OW 3834   2.479   4.645   5.819  0.0112 -0.3502 -0.0249
 1018SOL    HW1 3835   2.519   4.654   5.905  0.2482  3.4826 -0.3820
 1018SOL    HW2 3836   2.407   4.583   5.833  1.7446 -2.0698  2.1818
 1019SOL     OW 3837   5.285   7.471   1.152  0.4038 -0.1270 -0.2329
 1019SOL    HW1 3838   5.227   7.405   1.115  0.2981 -0.9722  1.3509
 1019SOL    HW2 3839   5.232   7.551   1.153 -0.3204 -0.5995  0.0597
 1020SOL     OW 3840   5.618   5.820   0.137  0.3379 -0.9474 -0.4759
 1020SOL    HW1 3841   5.564   5.741   0.127  2.9085 -2.5751 -3.2658
 1020SOL    HW2 3842   5.706   5.786   0.152  1.0818  1.5420  1.3560
 1021SOL     OW 3843   8.266   6.870   5.283 -0.2561 -0.7883 -0.0326
 1021SOL    HW1 3844   8.226   6.784   5.291 -0.5738 -0.5555  1.0485
 1021SOL    HW2 3845   8.302   6.889   5.370  1.6306 -0.6936 -0.7913
 1022SOL     OW 3846   2.059   1.781   8.022  0.8858  0.0510 -0.3347
 1022SOL    HW1 3847   2.050   1.704   8.078 -1.2762 -1.0698 -2.0766
 1022SOL    HW2 3848   1.990   1.841   8.052  0.3041 -0.1821 -1.1631
 1023SOL     OW 3849   2.717   5.127   6.433 -0.0812 -0.0654 -0.6837
 1023SOL    HW1 3850   2.707   5.156   6.523 -0.7262 -1.8723 -0.1470
 1023SOL    HW2 3851   2.789   5.064   6.435  1.4094  1.4616 -1.8655
 1024SOL     OW 3852   7.236   5.969   1.314 -0.4513 -0.0484  0.2525
 1024SOL    HW1 3853   7.298   5.899   1.295 -0.3704  0.3717 -1.1551
 1024SOL    HW2 3854   7.284   6.030   1.370  0.3376  0.1622 -0.6410
 1025SOL     OW 3855   6.554   0.035   1.912  0.3226 -0.1674  0.0829
 1025SOL    HW1 3856   6.574  -0.058   1.901  3.4245  0.6927 -3.4599
 1025SOL    HW2 3857   6.637   0.076   1.937 -0.4053  1.9187 -0.6620
 1026SOL     OW 3858   7.096   8.246   6.284 -0.2735 -0.0764  0.1516
 1026SOL    HW1 3859   7.023   8.191   6.314 -2.1700  1.5723 -1.1695
 1026SOL    HW2 3860   7.129   8.288   6.364 -0.8280 -0.7854  0.7617
 1027SOL     OW 3861   1.782   2.139   5.552  0.1077  0.0193  0.5740
 1027SOL    HW1 3862   1.797   2.219   5.502 -0.2589 -0.2889 -0.0384
 1027SOL    HW2 3863   1.828   2.153   5.635  0.2714  0.7503  0.3615
 1028SOL     OW 3864   2.775   8.314   7.457 -0.0932 -0.1021 -0.2665
 1028SOL    HW1 3865   2.765   8.246   7.390  0.0600  0.9430 -1.3793
 1028SOL    HW2 3866   2.826   8.383   7.415  0.3602  0.4188  1.0659
 1029SOL     OW 3867   7.365   0.847   7.785  0.1506  0.2709 -0.3184
 1029SOL    HW1 3868   7.393   0.923   7.734  0.0347  1.5805  1.4518
 1029SOL    HW2 3869   7.445   0.800   7.805  0.0953 -0.9176 -2.5863
 1030SOL     OW 3870   2.110   5.958   5.976 -0.5380  0.2365  0.0505
 1030SOL    HW1 3871   2.181   5.935   6.036  0.0057  0.9836 -0.2894
 1030SOL    HW2 3872   2.035   5.975   6.033 -0.3725 -0.2690  0.4301
 1031SOL     OW 3873   2.868   2.029   4.102  0.3401  0.0657  0.1256
 1031SOL    HW1 3874   2.798   1.978   4.143 -0.1681  0.1940 -0.5708
 1031SOL    HW2 3875   2.941   1.968   4.094 -0.3490 -0.6411 -0.9429
 1032SOL     OW 3876   7.986   5.502   0.398 -0.1160 -0.3432 -0.1283
 1032SOL    HW1 3877   7.958   5.593   0.402 -1.4552 -0.7995  1.9797
 1032SOL    HW2 3878   7.908   5.454   0.369  0.3437 -0.9156 -0.4378
 1033SOL     OW 3879   1.079   5.174   1.310 -0.0484 -0.2948  0.2550
 1033SOL    HW1 3880   1.129   5.117   1.252  0.4367 -1.9519  2.1572
 1033SOL    HW2 3881   0.987   5.159   1.286  0.1055 -1.5452  0.3779
 1034SOL     OW 3882   4.310   7.057   7.283  0.0721  0.0220 -0.4144
 1034SOL    HW1 3883   4.233   7.039   7.338 -0.0550  0.1752 -0.5398
 1034SOL    HW2 3884   4.277   7.053   7.194  0.0125  0.9554 -0.4477
 1035SOL     OW 3885   1.579   7.372   7.860  0.7041 -0.3111 -0.2429
 1035SOL    HW1 3886   1.622   7.286   7.866  0.5965 -0.4103 -0.8571
 1035SOL    HW2 3887   1.507   7.359   7.798  0.4839  0.1393 -0.0857
 1036SOL     OW 3888   6.039   5.662   4.871 -0.4914 -0.5092 -0.0399
 1036SOL    HW1 3889   5.955   5.684   4.910 -0.2426 -2.6688  1.8887
 1036SOL    HW2 3890   6.097   5.733   4.899 -1.3442  0.3031 -0.2842
 1037SOL     OW 3891   1.683   1.910   5.433 -0.0029 -0.4011  0.4414
 1037SOL    HW1 3892   1.607   1.945   5.387 -1.7713 -1.6559  2.2450
 1037SOL    HW2 3893   1.726   1.988   5.469 -1.0994  0.2737  0.3524
 1038SOL     OW 3894   2.446   6.018   0.011  0.0473  0.0402 -0.4292
 1038SOL    HW1 3895   2.379   6.082   0.033  0.4527  0.1310  0.5866
 1038SOL    HW2 3896   2.523   6.070  -0.010  0.1680 -0.0953 -0.3201
 1039SOL     OW 3897   1.533   5.940   6.855 -0.2925  0.8676  0.2556
 1039SOL    HW1 3898   1.541   5.979   6.768 -1.3095  0.9753  0.2045
 1039SOL    HW2 3899   1.479   6.001   6.905  1.7491  1.7281  1.5440
 1040SOL     OW 3900   5.100   1.483   4.341  0.5774 -0.5715 -0.1885
 1040SOL    HW1 3901   5.114   1.535   4.420  0.8592 -0.5967 -0.2229
 1040SOL    HW2 3902   5.127   1.395   4.365 -0.6625 -0.8823  0.1232
 1041SOL     OW 3903   3.783   3.516   4.561 -0.6382  0.3496 -0.5140
 1041SOL    HW1 3904   3.794   3.482   4.649 -0.2655  1.9995  0.1253
 1041SOL    HW2 3905   3.694   3.552   4.559 -0.0777  1.8196 -0.2256
 1042SOL     OW 3906   3.998   5.921   4.364  0.0773  0.5552  0.3805
 1042SOL    HW1 3907   3.954   5.923   4.449 -0.7473 -1.0024  0.0131
 1042SOL    HW2 3908   3.933   5.887   4.304  0.9362  0.8086 -0.7226
 1043SOL     OW 3909   0.038   5.355   2.406  0.1920 -0.3514 -0.4049
 1043SOL    HW1 3910   0.114   5.410   2.384 -1.3957  1.9120 -0.5690
 1043SOL    HW2 3911  -0.007   5.341   2.323 -0.0416 -0.9539 -0.1826
 1044SOL     OW 3912   5.380   0.874   1.041 -0.4716 -0.0512  0.3737
 1044SOL    HW1 3913   5.463   0.829   1.030 -1.5439 -1.7333 -1.4477
 1044SOL    HW2 3914   5.400   0.967   1.030  1.1109 -0.4506 -0.2718
 1045SOL     OW 3915   6.220   0.261   1.622 -0.3155 -0.3612 -0.1702
 1045SOL    HW1 3916   6.280   0.218   1.683 -0.5714 -1.5818 -0.7381
 1045SOL    HW2 3917   6.275   0.322   1.573  0.5345 -1.6771 -0.8873
 1046SOL     OW 3918   5.823   8.228   6.797 -0.8313 -0.1901  0.5394
 1046SOL    HW1 3919   5.839   8.194   6.886  0.5339 -2.1964 -0.3877
 1046SOL    HW2 3920   5.876   8.307   6.792  0.4530 -0.9863  1.0123
 1047SOL     OW 3921   7.735   4.214   4.321 -0.2019 -0.4263 -0.2542
 1047SOL    HW1 3922   7.783   4.131   4.323  1.1239  0.2186 -2.0190
 1047SOL    HW2 3923   7.795   4.274   4.277 -2.0041  0.8892 -1.0220
 1048SOL     OW 3924   3.016   1.274   5.871 -0.1258 -0.6150 -0.6093
 1048SOL    HW1 3925   3.018   1.184   5.904 -1.2296 -0.9428 -1.3612
 1048SOL    HW2 3926   2.976   1.266   5.784 -0.6135  0.6512 -0.5121
 1049SOL     OW 3927   0.090   4.012   7.520 -0.1236 -0.1394 -0.0703
 1049SOL    HW1 3928   0.073   3.988   7.428 -0.9987 -0.1645  0.0911
 1049SOL    HW2 3929   0.004   4.015   7.560  0.3457 -1.6495  1.1382
 1050SOL     OW 3930   2.110   6.121   0.558 -0.3625  0.3838 -0.5695
 1050SOL    HW1 3931   2.110   6.037   0.603  2.6393 -0.2498 -1.5112
 1050SOL    HW2 3932   2.049   6.109   0.486 -0.8059 -0.6013 -0.0543
 1051SOL     OW 3933   6.780   0.285   7.029 -0.0487 -0.3463 -0.2603
 1051SOL    HW1 3934   6.710   0.252   7.085  1.8128 -0.9377  1.9027
 1051SOL    HW2 3935   6.825   0.206   6.998  0.1718  0.0411 -0.9419
 1052SOL     OW 3936   5.790   6.760   7.255 -0.1871 -0.3498 -0.6956
 1052SOL    HW1 3937   5.854   6.720   7.314 -0.3991  1.5872  0.9398
 1052SOL    HW2 3938   5.721   6.694   7.246  1.2132 -1.8242 -1.1810
 1053SOL     OW 3939   5.623   2.901   0.089  0.2470  0.7002  0.1126
 1053SOL    HW1 3940   5.708   2.943   0.089  0.6102  0.0092 -1.0524
 1053SOL    HW2 3941   5.561   2.971   0.108  1.0332  1.2764  0.5842
 1054SOL     OW 3942   2.156   0.013   4.248 -0.3188 -0.1612 -0.0923
 1054SOL    HW1 3943   2.187  -0.063   4.298 -0.6657  0.9006  1.7851
 1054SOL    HW2 3944   2.236   0.052   4.213 -0.1041 -1.1168 -0.7339
 1055SOL     OW 3945   1.226   8.194   5.394  0.3090 -0.3241  0.3770
 1055SOL    HW1 3946   1.132   8.182   5.385  0.1312  2.0173 -2.3893
 1055SOL    HW2 3947   1.238   8.223   5.484 -1.7861  0.4658  0.4512
 1056SOL     OW 3948   4.596   3.623   0.051 -0.6427  0.0986 -0.3762
 1056SOL    HW1 3949   4.524   3.678   0.081 -1.3076 -0.9740  0.0570
 1056SOL    HW2 3950   4.629   3.667  -0.027 -0.4730  1.6500  0.5202
 1057SOL     OW 3951   5.736   0.341   6.111 -0.5031  0.0762 -0.2229
 1057SOL    HW1 3952   5.776   0.411   6.162  0.1722 -0.8351  0.5397
 1057SOL    HW2 3953   5.780   0.261   6.140 -2.5296 -0.9298  0.3402
 1058SOL     OW 3954   4.248   1.075   8.231 -0.5195 -0.1398 -0.7762
 1058SOL    HW1 3955   4.194   1.146   8.200  1.6791  1.7635 -0.5318
 1058SOL    HW2 3956   4.313   1.062   8.162  0.0239 -0.8811 -0.1537
 1059SOL     OW 3957   3.874   8.255   8.231  0.2106  0.0791  0.2877
 1059SOL    HW1 3958   3.902   8.227   8.318  0.4786 -0.3966  0.0509
 1059SOL    HW2 3959   3.951   8.298   8.193  1.1478 -2.3947 -0.8798
 1060SOL     OW 3960   0.329   6.878   4.932  0.2004  0.2260 -0.0712
 1060SOL    HW1 3961   0.271   6.867   5.008  0.4122  2.0002  0.3888
 1060SOL    HW2 3962   0.383   6.799   4.932 -0.8499 -0.5312  0.6804
 1061SOL     OW 3963   3.480   2.762   2.211  0.0761  0.4519  1.0215
 1061SOL    HW1 3964   3.537   2.831   2.175 -0.0971  1.0424  1.8526
 1061SOL    HW2 3965   3.464   2.789   2.301 -1.9352  0.5786  0.6819
 1062SOL     OW 3966   4.623   2.826   7.184 -0.1301  0.1295  0.1241
 1062SOL    HW1 3967   4.530   2.848   7.191  0.0639  0.9769  0.2086
 1062SOL    HW2 3968   4.666   2.886   7.246  0.4530 -0.3765  0.2161
 1063SOL     OW 3969   3.036   0.038   4.455  0.4311  0.3043  0.2260
 1063SOL    HW1 3970   2.978  -0.029   4.418 -0.5456  0.7830  0.8393
 1063SOL    HW2 3971   3.074  -0.004   4.532 -2.0076  1.1288  2.0304
 1064SOL     OW 3972   7.293   2.844   7.465 -0.6805  0.2645  0.7029
 1064SOL    HW1 3973   7.237   2.787   7.413  0.6983 -0.5976  0.0904
 1064SOL    HW2 3974   7.326   2.788   7.535  1.0965  0.0970 -0.1946
 1065SOL     OW 3975   0.423   4.724   0.124 -0.0551 -0.0095  0.1409
 1065SOL    HW1 3976   0.418   4.675   0.041 -0.9552 -0.1073  0.2377
 1065SOL    HW2 3977   0.515   4.719   0.150 -0.0475 -1.2851 -0.0777
 1066SOL     OW 3978   0.768   6.359   5.545  0.4274  0.1845  0.5938
 1066SOL    HW1 3979   0.774   6.452   5.566  3.1110  0.0372  0.7629
 1066SOL    HW2 3980   0.836   6.345   5.480 -1.6223 -1.2203 -1.3941
 1067SOL     OW 3981   2.044   0.252   7.943 -0.0229 -0.2188  0.3432
 1067SOL    HW1 3982   2.114   0.314   7.923  1.2087 -1.1077  1.6733
 1067SOL    HW2 3983   1.993   0.294   8.012 -2.6669  1.6819 -2.4635
 1068SOL     OW 3984   0.624   3.040   5.985  0.2839 -0.2359 -0.1186
 1068SOL    HW1 3985   0.546   3.087   6.011  0.3479 -0.9253  1.4213
 1068SOL    HW2 3986   0.619   2.957   6.032  1.6564 -0.5263 -0.4386
 1069SOL     OW 3987   7.674   1.578   7.259  0.7476 -0.0523 -0.1484
 1069SOL    HW1 3988   7.621   1.505   7.228  0.6186  0.4812 -1.2224
 1069SOL    HW2 3989   7.699   1.554   7.348  1.2145 -1.6732 -0.6958
 1070SOL     OW 3990   2.908   2.128   2.439  0.0518 -0.3239 -0.2170
 1070SOL    HW1 3991   2.917   2.123   2.344  2.7091  0.5290 -0.0865
 1070SOL    HW2 3992   2.926   2.220   2.460 -0.4282 -0.5145  1.1387
 1071SOL     OW 3993   1.819   5.705   5.881  0.1740 -0.3017  0.4007
 1071SOL    HW1 3994   1.727   5.704   5.852  0.2581 -1.1153  0.1554
 1071SOL    HW2 3995   1.866   5.656   5.814  1.0251  1.3229 -0.2337
 1072SOL     OW 3996   2.914   4.672   2.929  0.3822 -0.5447  0.1015
 1072SOL    HW1 3997   2.865   4.750   2.957 -0.1011 -0.5268 -0.7757
 1072SOL    HW2 3998   3.003   4.687   2.961  0.0746 -0.0730  0.7624
 1073SOL     OW 3999   4.929   5.209   3.228  0.4256 -0.0937  0.1589
 1073SOL    HW1 4000   4.913   5.188   3.320 -0.3028 -1.8127 -0.3278
 1073SOL    HW2 4001   5.021   5.187   3.215  0.7568  0.9278  0.6515
 1074SOL     OW 4002   6.049   5.812   5.931  0.1000 -0.3388  0.4655
 1074SOL    HW1 4003   6.076   5.878   5.867  0.5687 -0.7284  0.2568
 1074SOL    HW2 4004   5.953   5.813   5.927  0.1105  0.0931  0.2216
 1075SOL     OW 4005   3.962   2.428   2.906  0.2603  0.8658  0.0412
 1075SOL    HW1 4006   4.049   2.441   2.867  0.3184  0.8471  0.1650
 1075SOL    HW2 4007   3.974   2.356   2.967  0.0720  0.6091 -0.2186
 1076SOL     OW 4008   1.046   6.722   4.545 -0.3720  0.1324 -0.1241
 1076SOL    HW1 4009   1.072   6.639   4.584 -0.0260 -0.4402 -1.5161
 1076SOL    HW2 4010   1.103   6.787   4.587 -1.9504 -0.0124  2.3761
 1077SOL     OW 4011   2.478   5.078   6.327  0.1928  0.4852  0.1386
 1077SOL    HW1 4012   2.562   5.103   6.365  0.7224 -0.5278 -0.3474
 1077SOL    HW2 4013   2.416   5.090   6.399  1.0987 -0.9168  1.2159
 1078SOL     OW 4014   5.867   5.598   7.749  0.2774 -0.2787 -0.2434
 1078SOL    HW1 4015   5.926   5.623   7.820  2.2071 -1.0561 -1.4758
 1078SOL    HW2 4016   5.855   5.678   7.698  0.6487 -0.2285 -0.2509
 1079SOL     OW 4017   4.440   7.899   4.117  0.2897 -0.1239  0.6159
 1079SOL    HW1 4018   4.376   7.835   4.147  1.3444 -0.2289  2.8162
 1079SOL    HW2 4019   4.412   7.921   4.028 -0.4779 -3.1335  0.0071
 1080SOL     OW 4020   4.382   6.154   2.340  0.4033 -0.6513  0.2188
 1080SOL    HW1 4021   4.363   6.063   2.317  0.0510 -1.0523  2.0028
 1080SOL    HW2 4022   4.342   6.167   2.425  0.1737  1.2943 -0.1290
 1081SOL     OW 4023   5.050   8.290   3.295  0.0667  0.3766  0.1006
 1081SOL    HW1 4024   4.957   8.296   3.316 -0.3688 -1.1261 -1.1799
 1081SOL    HW2 4025   5.094   8.335   3.367 -1.6274  0.9076  0.8543
 1082SOL     OW 4026   4.665   4.082   3.818 -0.1654 -0.3622  0.5346
 1082SOL    HW1 4027   4.730   4.037   3.765 -1.7504 -0.6808 -1.2785
 1082SOL    HW2 4028   4.669   4.173   3.789 -0.1981 -0.2904  0.7549
 1083SOL     OW 4029   3.528   7.816   1.129 -0.7186 -0.0752 -0.0711
 1083SOL    HW1 4030   3.550   7.730   1.163 -3.4686 -1.4236 -1.3950
 1083SOL    HW2 4031   3.524   7.804   1.034  0.1090  1.8696 -0.3946
 1084SOL     OW 4032   3.274   4.176   4.597 -0.2885 -0.0465 -0.5467
 1084SOL    HW1 4033   3.323   4.168   4.515 -0.1611  0.5445 -0.5281
 1084SOL    HW2 4034   3.341   4.166   4.665 -0.4414 -0.8714 -0.5005
 1085SOL     OW 4035   1.866   1.208   5.522  0.3743  0.3721  0.4522
 1085SOL    HW1 4036   1.808   1.143   5.483 -0.0783  0.3996  1.0664
 1085SOL    HW2 4037   1.809   1.282   5.541  0.5360  0.2806  1.3519
 1086SOL     OW 4038   6.304   4.890   6.108  0.0726 -0.6142 -0.4958
 1086SOL    HW1 4039   6.290   4.799   6.084  0.8384 -0.7915 -0.3164
 1086SOL    HW2 4040   6.289   4.894   6.203 -0.2046 -0.5014 -0.5439
 1087SOL     OW 4041   7.963   6.680   0.623 -0.2164  0.4206 -0.2364
 1087SOL    HW1 4042   8.006   6.620   0.684 -0.5339  0.2857 -0.1494
 1087SOL    HW2 4043   8.020   6.757   0.623  0.1680  0.1403 -0.3187
 1088SOL     OW 4044   0.534   5.770   1.672 -0.2323  0.0526 -0.1666
 1088SOL    HW1 4045   0.452   5.807   1.639 -0.9537  1.1258  2.5237
 1088SOL    HW2 4046   0.507   5.697   1.727  0.3627  1.4268  2.0945
 1089SOL     OW 4047   4.410   0.445   2.290  0.6458  0.0280  0.0646
 1089SOL    HW1 4048   4.473   0.386   2.333  2.4508  0.9798 -1.1240
 1089SOL    HW2 4049   4.417   0.423   2.197 -0.0688  0.8347 -0.1917
 1090SOL     OW 4050   8.090   4.059   0.024  0.4518  0.1248 -0.9708
 1090SOL    HW1 4051   8.084   3.979   0.077  2.4040  0.3098 -0.3920
 1090SOL    HW2 4052   8.113   4.028  -0.064 -0.2355 -0.0270 -1.1011
 1091SOL     OW 4053   5.588   7.904   5.346  0.2320  0.1173  0.7072
 1091SOL    HW1 4054   5.613   7.926   5.256 -0.2797 -0.4706  0.4145
 1091SOL    HW2 4055   5.665   7.928   5.398 -0.3445  2.7626  0.4592
 1092SOL     OW 4056   7.707   4.257   2.980  0.4496  0.1147  0.4018
 1092SOL    HW1 4057   7.752   4.341   2.972 -0.4308  0.6230  0.7041
 1092SOL    HW2 4058   7.769   4.193   2.944  0.4167  1.0997 -1.5105
 1093SOL     OW 4059   2.693   4.784   3.151  0.4668  0.3722 -0.4892
 1093SOL    HW1 4060   2.686   4.737   3.234  0.5966  1.0945 -0.0605
 1093SOL    HW2 4061   2.647   4.728   3.088 -1.3627  0.7239  0.4493
 1094SOL     OW 4062   2.968   4.387   4.981  0.0153  0.2946  0.3524
 1094SOL    HW1 4063   2.878   4.373   5.009 -0.1889 -2.0582 -1.2070
 1094SOL    HW2 4064   3.015   4.310   5.012  1.4597  1.3179  0.8285
 1095SOL     OW 4065   2.889   1.304   1.426 -0.2562 -0.0539 -0.3050
 1095SOL    HW1 4066   2.801   1.341   1.436  0.0343  0.8847 -1.0979
 1095SOL    HW2 4067   2.881   1.214   1.459 -1.5792 -0.0728 -0.6169
 1096SOL     OW 4068   5.126   6.359   3.288  0.1760 -0.8768  0.0390
 1096SOL    HW1 4069   5.121   6.454   3.284  0.4197 -0.7733  1.4047
 1096SOL    HW2 4070   5.161   6.341   3.376 -1.5268 -2.2616  0.4943
 1097SOL     OW 4071   1.698   1.766   4.885 -0.4309 -0.1105 -0.3433
 1097SOL    HW1 4072   1.688   1.758   4.790 -0.8351  1.2837 -0.4276
 1097SOL    HW2 4073   1.711   1.675   4.914  0.1748 -0.5258 -1.7686
 1098SOL     OW 4074   0.185   3.952   3.100 -0.2951 -0.0987  0.3289
 1098SOL    HW1 4075   0.254   3.889   3.120 -1.0113 -0.9079  0.3128
 1098SOL    HW2 4076   0.133   3.958   3.180 -0.6383 -0.0625  0.1070
 1099SOL     OW 4077   2.975   5.414   6.229 -0.1325 -0.0825 -0.2313
 1099SOL    HW1 4078   2.917   5.459   6.290 -1.3761  1.1652 -2.2444
 1099SOL    HW2 4079   3.063   5.445   6.252 -0.7758  1.9543 -0.3651
 1100SOL     OW 4080   5.496   7.426   5.312 -0.2042 -0.4156 -0.0634
 1100SOL    HW1 4081   5.412   7.469   5.295 -0.3321 -0.6373  0.0105
 1100SOL    HW2 4082   5.542   7.485   5.372 -0.3136 -0.3030 -0.0905
 1101SOL     OW 4083   0.035   4.237   1.450 -0.0226  0.4963 -0.0772
 1101SOL    HW1 4084  -0.006   4.277   1.527 -0.1017  0.6837 -0.2139
 1101SOL    HW2 4085   0.128   4.238   1.470 -0.0083  0.9001 -0.1443
 1102SOL     OW 4086   5.752   7.892   8.011  0.0095 -0.2427 -0.0409
 1102SOL    HW1 4087   5.820   7.925   8.070  1.7799  0.2579 -2.2285
 1102SOL    HW2 4088   5.798   7.834   7.951 -1.5575 -0.1577 -1.4065
 1103SOL     OW 4089   5.685   7.089   2.373  0.1343 -0.1181  0.2830
 1103SOL    HW1 4090   5.611   7.146   2.350 -0.2181  0.1418  1.9475
 1103SOL    HW2 4091   5.646   7.002   2.381 -0.2202  0.1523  1.9998
 1104SOL     OW 4092   0.306   6.321   2.984  0.2056 -0.4812 -0.3187
 1104SOL    HW1 4093   0.337   6.254   3.045  0.6590  0.5220  0.5776
 1104SOL    HW2 4094   0.227   6.357   3.026  0.1007 -0.2948 -0.6738
 1105SOL     OW 4095   1.115   5.798   2.063  0.5514  0.0731 -0.2275
 1105SOL    HW1 4096   1.048   5.848   2.016  1.0920 -0.7007 -1.9071
 1105SOL    HW2 4097   1.152   5.740   1.996  0.0985 -2.4479  1.5824
 1106SOL     OW 4098   5.516   0.618   0.704 -0.5451  0.4961  0.3439
 1106SOL    HW1 4099   5.591   0.674   0.725 -0.1605  0.7338 -1.5366
 1106SOL    HW2 4100   5.549   0.555   0.640 -1.6229 -0.2722  0.5125
 1107SOL     OW 4101   6.415   0.172   7.699 -0.1746  0.1778 -0.1803
 1107SOL    HW1 4102   6.327   0.210   7.692 -0.7365 -1.0245  0.1303
 1107SOL    HW2 4103   6.471   0.235   7.655 -1.2306  0.8401 -0.6297
 1108SOL     OW 4104   3.117   1.949   5.647 -0.1285 -0.3155  0.5939
 1108SOL    HW1 4105   3.206   1.969   5.618  0.9183 -2.2388  2.1934
 1108SOL    HW2 4106   3.066   2.025   5.621  1.6132  0.1274 -1.8713
 1109SOL     OW 4107   3.852   0.132   0.496  0.2641  0.3428  0.1079
 1109SOL    HW1 4108   3.793   0.204   0.474 -0.0255  0.7179  1.9931
 1109SOL    HW2 4109   3.825   0.103   0.583  0.7489 -1.6862 -0.3403
 1110SOL     OW 4110   3.685   5.417   6.177 -0.4906 -0.0672 -0.1347
 1110SOL    HW1 4111   3.608   5.371   6.209  0.4216 -0.1771  2.0536
 1110SOL    HW2 4112   3.759   5.371   6.216  0.5895  1.3918 -0.3616
 1111SOL     OW 4113   3.273   4.598   1.110 -0.2514 -0.2264  0.9894
 1111SOL    HW1 4114   3.350   4.547   1.084  0.0157  1.1179 -1.1179
 1111SOL    HW2 4115   3.292   4.686   1.080 -2.7373  0.0990  0.1624
 1112SOL     OW 4116   2.803   4.303   6.664  0.4378 -0.4420  0.3857
 1112SOL    HW1 4117   2.764   4.215   6.663 -0.4463 -0.1620  2.6279
 1112SOL    HW2 4118   2.834   4.313   6.754 -1.4304  2.3260  0.8413
 1113SOL     OW 4119   1.074   2.923   7.670  0.0232  0.0489 -0.1127
 1113SOL    HW1 4120   1.126   2.863   7.724  1.5991  1.8912  0.5429
 1113SOL    HW2 4121   1.070   3.004   7.720 -0.1183  1.2244 -1.9113
 1114SOL     OW 4122   1.965   4.019   6.095 -0.2206 -0.0983  0.1008
 1114SOL    HW1 4123   1.953   4.005   6.189 -0.0519 -1.9762 -0.1213
 1114SOL    HW2 4124   1.876   4.011   6.058 -0.1400 -0.5544 -0.0104
 1115SOL     OW 4125   1.675   7.388   1.974 -0.3165 -1.1484 -0.5128
 1115SOL    HW1 4126   1.714   7.304   1.999 -1.8915 -1.5675  0.6793
 1115SOL    HW2 4127   1.590   7.366   1.936 -0.9445 -0.0901  0.2031
 1116SOL     OW 4128   6.718   5.285   4.294 -0.4197 -0.2413 -0.1833
 1116SOL    HW1 4129   6.630   5.247   4.286 -1.5851  1.6263  2.3643
 1116SOL    HW2 4130   6.749   5.256   4.380  0.5727  0.7917 -0.1735
 1117SOL     OW 4131   7.648   2.488   7.565  0.4057 -0.1089 -0.1422
 1117SOL    HW1 4132   7.607   2.572   7.582  0.7845  0.1231 -0.3828
 1117SOL    HW2 4133   7.611   2.430   7.632 -0.7838 -0.0589 -0.7478
 1118SOL     OW 4134   7.230   5.854   7.801  0.1180  0.1765  0.1260
 1118SOL    HW1 4135   7.221   5.801   7.722 -1.5686  0.9905 -0.2802
 1118SOL    HW2 4136   7.262   5.938   7.770  0.2067  0.2533  0.4247
 1119SOL     OW 4137   7.500   8.036   1.891  0.2766 -0.3569 -0.4901
 1119SOL    HW1 4138   7.469   8.085   1.814  0.2802 -1.1949 -1.0409
 1119SOL    HW2 4139   7.461   7.949   1.881  0.9557 -0.7276  0.0139
 1120SOL     OW 4140   7.947   4.641   4.055 -0.0077  0.1382  0.4782
 1120SOL    HW1 4141   8.032   4.676   4.028 -0.5342  0.8056 -0.3876
 1120SOL    HW2 4142   7.899   4.631   3.973 -1.4508  1.6344  1.0943
 1121SOL     OW 4143   6.795   1.168   1.967 -0.6656 -0.5215  0.2249
 1121SOL    HW1 4144   6.834   1.250   1.937  0.6571 -0.4466  1.9666
 1121SOL    HW2 4145   6.840   1.149   2.050 -0.7377 -3.1358 -0.2460
 1122SOL     OW 4146   2.050   0.233   1.435  0.8012 -0.2312 -0.1962
 1122SOL    HW1 4147   2.000   0.297   1.384  2.9260  0.3619 -1.6887
 1122SOL    HW2 4148   1.990   0.205   1.504 -0.9238  1.7653 -0.7758
 1123SOL     OW 4149   5.171   1.901   6.227  0.3693  0.3061 -0.0075
 1123SOL    HW1 4150   5.249   1.852   6.253 -0.1427 -0.6712 -0.2604
 1123SOL    HW2 4151   5.115   1.899   6.304  1.5596  3.1310  1.0456
 1124SOL     OW 4152   6.326   3.836   7.427 -0.4315  0.3666 -0.4291
 1124SOL    HW1 4153   6.409   3.789   7.422 -0.2804  0.7152 -2.5505
 1124SOL    HW2 4154   6.351   3.925   7.454  0.1382  0.8579 -2.3868
 1125SOL     OW 4155   0.998   6.771   4.974 -0.2458  0.7062 -0.6533
 1125SOL    HW1 4156   1.075   6.731   4.934 -0.2188 -0.6426  0.6737
 1125SOL    HW2 4157   1.029   6.853   5.012  0.3749  0.5178 -0.7518
 1126SOL     OW 4158   4.922   2.780   5.751 -0.1442  0.1049 -0.6054
 1126SOL    HW1 4159   4.932   2.691   5.718 -2.1059  0.2575 -1.7693
 1126SOL    HW2 4160   4.949   2.836   5.679  1.1573  0.4904  0.1476
 1127SOL     OW 4161   5.906   2.131   4.285  0.2593  0.4955  0.3151
 1127SOL    HW1 4162   5.986   2.114   4.335  0.1586  1.0797  0.6775
 1127SOL    HW2 4163   5.933   2.120   4.194  0.8068  0.8815  0.4251
 1128SOL     OW 4164   1.941   2.779   8.123  0.2832  0.4952  0.0952
 1128SOL    HW1 4165   1.899   2.857   8.160  2.2416  1.2472  0.8494
 1128SOL    HW2 4166   2.026   2.775   8.166  0.7792 -1.3002 -0.9604
 1129SOL     OW 4167   5.691   1.062   1.389 -0.7605 -0.2275 -0.9243
 1129SOL    HW1 4168   5.682   1.151   1.424  0.3741 -0.2416 -0.5663
 1129SOL    HW2 4169   5.655   1.068   1.300  0.5857  0.9599 -1.4361
 1130SOL     OW 4170   2.081   8.099   5.597  0.3863 -0.1223 -0.2426
 1130SOL    HW1 4171   2.019   8.032   5.627  0.8362 -0.9040 -1.0217
 1130SOL    HW2 4172   2.027   8.178   5.586 -0.3289 -0.5937 -0.1947
 1131SOL     OW 4173   1.521   3.259   0.948  0.5203 -0.1105 -0.6748
 1131SOL    HW1 4174   1.468   3.239   0.870  0.3225  2.2338 -1.2086
 1131SOL    HW2 4175   1.578   3.330   0.921  1.1442  0.0926  1.0580
 1132SOL     OW 4176   7.224   3.263   6.075 -0.0932 -0.3658  0.8123
 1132SOL    HW1 4177   7.273   3.279   5.994  0.1756 -0.4612  0.9558
 1132SOL    HW2 4178   7.161   3.195   6.051 -2.0561  1.6550 -0.1263
 1133SOL     OW 4179   1.437   2.465   4.382  0.2262 -0.0596 -0.0002
 1133SOL    HW1 4180   1.532   2.471   4.378  0.3764  0.0120  2.1820
 1133SOL    HW2 4181   1.416   2.380   4.344  1.0752  0.2801 -1.2611
 1134SOL     OW 4182   2.890   6.003   7.350  0.0748  0.1233  0.2159
 1134SOL    HW1 4183   2.950   5.975   7.419  0.2483 -1.7317 -0.6406
 1134SOL    HW2 4184   2.860   5.922   7.309 -2.1529  1.0492 -0.1349
 1135SOL     OW 4185   0.829   7.854   1.953 -0.2996  0.4463 -0.6916
 1135SOL    HW1 4186   0.881   7.815   1.883  0.6766 -0.6454  0.5823
 1135SOL    HW2 4187   0.827   7.787   2.022 -2.2121  1.0163 -0.1211
 1136SOL     OW 4188   2.462   4.166   6.149  0.7792  0.3987  0.3619
 1136SOL    HW1 4189   2.502   4.219   6.081 -3.4883  1.2206 -1.9092
 1136SOL    HW2 4190   2.494   4.077   6.132  2.4667  1.1306 -0.4692
 1137SOL     OW 4191   5.822   7.714   4.190 -0.5331 -0.2485  0.3014
 1137SOL    HW1 4192   5.853   7.804   4.179 -2.3250  0.3490 -0.1260
 1137SOL    HW2 4193   5.833   7.674   4.103 -4.3561  1.1442 -1.0394
 1138SOL     OW 4194   2.211   3.610   8.230 -0.3508 -0.1531  0.1330
 1138SOL    HW1 4195   2.192   3.524   8.266  1.8164 -0.4233  0.7576
 1138SOL    HW2 4196   2.220   3.667   8.306  1.3730 -0.1051 -0.0581
 1139SOL     OW 4197   3.280   3.341   7.173 -0.2518 -0.7845 -0.0795
 1139SOL    HW1 4198   3.314   3.399   7.106  0.5251 -1.6758 -0.4756
 1139SOL    HW2 4199   3.228   3.398   7.230  2.4166  0.7739  0.9530
 1140SOL     OW 4200   3.256   6.229   5.066 -0.2558 -0.3964 -0.6448
 1140SOL    HW1 4201   3.267   6.324   5.074 -1.2673 -0.3355  0.3991
 1140SOL    HW2 4202   3.264   6.211   4.972  0.6645  0.6156 -0.7673
 1141SOL     OW 4203   1.924   7.407   0.827  0.2522 -0.6735  0.2628
 1141SOL    HW1 4204   1.915   7.443   0.915 -0.7120 -1.3906  0.4729
 1141SOL    HW2 4205   1.899   7.479   0.769 -0.4711 -0.6179  0.6311
 1142SOL     OW 4206   6.519   0.139   0.066 -0.3469  0.1580  0.0475
 1142SOL    HW1 4207   6.547   0.162   0.154 -3.7414  0.4258  1.2022
 1142SOL    HW2 4208   6.462   0.210   0.039 -0.8807 -0.8359 -1.6024
 1143SOL     OW 4209   7.683   7.477   3.146 -0.6674 -0.2131  0.8106
 1143SOL    HW1 4210   7.742   7.426   3.091 -0.0419 -0.3142  1.5550
 1143SOL    HW2 4211   7.702   7.447   3.235  0.5706  2.1221  1.4013
 1144SOL     OW 4212   5.081   5.603   7.985 -0.1366  0.0036 -0.5093
 1144SOL    HW1 4213   5.151   5.607   8.050 -0.1994  0.1013 -0.4471
 1144SOL    HW2 4214   5.002   5.588   8.036 -0.3425  1.1573 -0.4534
 1145SOL     OW 4215   2.894   7.199   2.882 -0.8590 -0.4186  0.4914
 1145SOL    HW1 4216   2.978   7.237   2.908 -1.2415  0.6640  0.1943
 1145SOL    HW2 4217   2.846   7.187   2.964 -0.7604 -0.1709  0.5879
 1146SOL     OW 4218   7.272   8.171   2.575  0.3594 -0.3143  0.1978
 1146SOL    HW1 4219   7.358   8.133   2.561  0.3187 -0.5806  0.6799
 1146SOL    HW2 4220   7.255   8.161   2.668 -0.0308  0.0804  0.1754
 1147SOL     OW 4221   0.150   4.178   4.026 -0.2098  0.6570  0.0604
 1147SOL    HW1 4222   0.245   4.167   4.029 -0.2959 -1.7991 -2.3067
 1147SOL    HW2 4223   0.115   4.107   4.079 -0.7427  0.6447 -0.3004
 1148SOL     OW 4224   4.968   3.466   6.328 -0.0743  0.0784  0.5941
 1148SOL    HW1 4225   4.999   3.521   6.256  1.1657 -1.5744 -0.2073
 1148SOL    HW2 4226   5.047   3.443   6.377 -0.6869 -0.2179  1.4864
 1149SOL     OW 4227   8.066   6.536   7.088 -0.7580 -0.5230  0.2696
 1149SOL    HW1 4228   8.041   6.454   7.047  0.4651 -0.5256 -0.5328
 1149SOL    HW2 4229   8.032   6.604   7.029  0.4049 -0.5145 -0.4148
 1150SOL     OW 4230   7.951   2.556   3.418 -0.2570  0.6027  0.2452
 1150SOL    HW1 4231   7.935   2.596   3.503 -1.5677  1.8622 -0.5448
 1150SOL    HW2 4232   7.863   2.531   3.386  0.2489 -0.2419 -0.5566
 1151SOL     OW 4233   7.478   0.464   7.247  0.0892  0.8001 -0.2080
 1151SOL    HW1 4234   7.479   0.396   7.314  0.5081  1.5943  0.6019
 1151SOL    HW2 4235   7.568   0.469   7.216 -0.0555  0.6006 -0.6873
 1152SOL     OW 4236   1.315   7.132   1.185 -0.3547  0.1530  0.3478
 1152SOL    HW1 4237   1.374   7.074   1.138  1.1317  3.2025 -1.9170
 1152SOL    HW2 4238   1.228   7.110   1.152  0.2355 -0.3246 -0.9415
 1153SOL     OW 4239   4.131   0.039   2.422  0.1257  0.0729  0.0722
 1153SOL    HW1 4240   4.209   0.067   2.469 -0.1625 -0.0164  0.6124
 1153SOL    HW2 4241   4.095   0.119   2.384 -0.4381  0.3841  1.2216
 1154SOL     OW 4242   4.729   8.143   5.816 -0.5819 -0.2929  0.2143
 1154SOL    HW1 4243   4.810   8.126   5.864 -0.8697  2.0078  1.6415
 1154SOL    HW2 4244   4.748   8.220   5.763 -1.0315 -1.3745 -1.6016
 1155SOL     OW 4245   6.202   1.628   5.943 -0.3274 -0.1630 -0.2838
 1155SOL    HW1 4246   6.151   1.606   6.021  0.4145 -1.8002 -0.2128
 1155SOL    HW2 4247   6.258   1.552   5.929  0.2546  0.5117 -1.8561
 1156SOL     OW 4248   6.458   6.042   5.654  0.2090  0.1964  0.0584
 1156SOL    HW1 4249   6.523   6.059   5.722  0.1852  0.5988 -0.0163
 1156SOL    HW2 4250   6.484   6.097   5.580  0.7532 -0.9231 -0.6047
 1157SOL     OW 4251   0.683   3.904   4.004 -0.4938  0.4490  0.2297
 1157SOL    HW1 4252   0.727   3.887   4.087  1.1520  1.4392 -0.4069
 1157SOL    HW2 4253   0.753   3.926   3.943 -1.6349 -0.5628 -1.5335
 1158SOL     OW 4254   1.019   1.105   0.653 -0.0233 -0.0415 -0.4887
 1158SOL    HW1 4255   0.964   1.130   0.727 -0.0379 -0.6267 -0.3022
 1158SOL    HW2 4256   1.060   1.023   0.679  2.7715  1.4781  0.3519
 1159SOL     OW 4257   0.454   4.788   4.547  0.2942 -0.3966  0.5765
 1159SOL    HW1 4258   0.431   4.773   4.638  1.0963 -2.1883  0.5275
 1159SOL    HW2 4259   0.472   4.700   4.512 -1.3979  0.0838 -1.7040
 1160SOL     OW 4260   3.631   2.693   2.577 -0.1570 -0.1144 -0.1690
 1160SOL    HW1 4261   3.610   2.664   2.665 -1.5044  1.0454 -0.0725
 1160SOL    HW2 4262   3.703   2.637   2.549  0.6630 -0.1422  1.8645
 1161SOL     OW 4263   1.908   7.955   1.520  0.3580  0.4384  0.0278
 1161SOL    HW1 4264   1.957   7.979   1.441  0.2534 -1.3562 -0.6314
 1161SOL    HW2 4265   1.972   7.910   1.574 -0.1778 -0.6057 -0.1860
 1162SOL     OW 4266   0.399   0.786   7.676  0.1558  0.6381 -0.3032
 1162SOL    HW1 4267   0.364   0.775   7.587 -0.0557  0.6244 -0.2190
 1162SOL    HW2 4268   0.483   0.831   7.663  0.5447 -0.1441 -0.5682
 1163SOL     OW 4269   6.480   7.505   3.798 -0.0502  0.8157  0.1306
 1163SOL    HW1 4270   6.532   7.425   3.808  0.0710  0.0972 -4.1277
 1163SOL    HW2 4271   6.416   7.501   3.869  1.9183 -1.3872  1.9517
 1164SOL     OW 4272   5.978   6.678   0.781  0.3781  0.3582  0.2937
 1164SOL    HW1 4273   5.995   6.591   0.743  0.3935 -0.1330  1.3974
 1164SOL    HW2 4274   5.982   6.737   0.706  2.5621 -0.2899 -0.1972
 1165SOL     OW 4275   2.431   7.055   1.117  0.0117 -0.4884 -0.7302
 1165SOL    HW1 4276   2.426   7.128   1.055  2.2449 -0.5807 -1.0920
 1165SOL    HW2 4277   2.408   6.978   1.065 -0.5784 -0.2649 -0.8037
 1166SOL     OW 4278   2.315   0.305   1.779  0.1292 -0.1758  0.4035
 1166SOL    HW1 4279   2.221   0.320   1.792  0.4070  0.4323  1.9152
 1166SOL    HW2 4280   2.319   0.238   1.710 -1.4236 -0.5513  0.6339
 1167SOL     OW 4281   6.037   0.880   2.742 -0.1682  0.6751  0.6372
 1167SOL    HW1 4282   6.070   0.825   2.671 -0.2186  1.4858 -0.0345
 1167SOL    HW2 4283   5.947   0.900   2.718 -0.2383  0.8276  1.0079
 1168SOL     OW 4284   0.565   6.799   7.381 -0.4281  0.1538  0.3668
 1168SOL    HW1 4285   0.488   6.756   7.420 -1.3478 -0.6918 -2.1565
 1168SOL    HW2 4286   0.627   6.728   7.365  0.0455  0.5255  0.5210
 1169SOL     OW 4287   3.051   2.058   0.928 -0.5228 -0.2437 -0.4344
 1169SOL    HW1 4288   3.120   2.109   0.884 -0.3569 -0.1823 -0.1015
 1169SOL    HW2 4289   3.099   1.996   0.983 -0.7365  0.0178  0.0491
 1170SOL     OW 4290   5.975   2.687   5.062  0.4698  0.1661  0.1468
 1170SOL    HW1 4291   5.890   2.714   5.098  0.5869  2.7177 -1.2666
 1170SOL    HW2 4292   6.016   2.769   5.034  2.0625 -1.2814 -2.0541
 1171SOL     OW 4293   2.518   3.471   7.202  0.0005 -0.3574  0.2549
 1171SOL    HW1 4294   2.525   3.376   7.194  1.2421 -0.2768  0.1552
 1171SOL    HW2 4295   2.503   3.486   7.296  1.4809 -0.5886  0.5441
 1172SOL     OW 4296   1.655   2.701   7.264 -0.3669  0.3303 -0.1708
 1172SOL    HW1 4297   1.586   2.634   7.259 -0.2156 -0.1353  2.4918
 1172SOL    HW2 4298   1.691   2.692   7.353  1.6545  2.0271 -0.7364
 1173SOL     OW 4299   8.016   6.269   5.815 -1.0026  0.5032  0.7236
 1173SOL    HW1 4300   7.998   6.224   5.897 -0.5771  1.4942  1.3924
 1173SOL    HW2 4301   7.933   6.267   5.767 -0.8049 -1.5852  0.3991
 1174SOL     OW 4302   4.106   7.258   1.652 -0.2893  0.5551 -0.9885
 1174SOL    HW1 4303   4.159   7.307   1.588 -0.0317  0.2927 -0.9740
 1174SOL    HW2 4304   4.037   7.217   1.599  0.8109 -0.9137 -1.3199
 1175SOL     OW 4305   3.409   4.107   0.426 -0.7448  0.2967 -0.0712
 1175SOL    HW1 4306   3.386   4.167   0.497  0.7121 -0.8637  1.4456
 1175SOL    HW2 4307   3.499   4.130   0.404 -1.1414  0.5744 -1.5320
 1176SOL     OW 4308   5.037   0.281   0.410  0.6337  0.1320 -0.1285
 1176SOL    HW1 4309   5.023   0.374   0.426  0.7439 -0.0056  0.8152
 1176SOL    HW2 4310   4.995   0.237   0.484  2.7247 -0.4516  0.7639
 1177SOL     OW 4311   0.585   0.262   4.512  0.6471  0.0715  0.1193
 1177SOL    HW1 4312   0.562   0.204   4.585 -1.3871  0.9885  0.2513
 1177SOL    HW2 4313   0.654   0.214   4.465  0.1789 -1.7019  1.1525
 1178SOL     OW 4314   0.673   0.072   5.561  0.4320  0.9409  0.2135
 1178SOL    HW1 4315   0.666  -0.021   5.580  0.0006  0.8831 -0.2053
 1178SOL    HW2 4316   0.585   0.107   5.576  0.5488  1.2512  0.1974
 1179SOL     OW 4317   4.735   1.754   2.597  0.0929 -0.3815 -0.1362
 1179SOL    HW1 4318   4.802   1.816   2.627  1.3394 -0.4652 -2.4992
 1179SOL    HW2 4319   4.681   1.804   2.537 -1.0633 -0.7183  0.6022
 1180SOL     OW 4320   6.350   2.611   2.136  0.7300  0.2445  0.4347
 1180SOL    HW1 4321   6.445   2.600   2.142  0.6456 -0.9317 -0.1186
 1180SOL    HW2 4322   6.338   2.701   2.108  1.7523 -0.0125 -0.9343
 1181SOL     OW 4323   8.141   0.420   3.300  0.6327 -0.0116  0.3916
 1181SOL    HW1 4324   8.080   0.435   3.227  0.6547 -0.7657  0.2166
 1181SOL    HW2 4325   8.097   0.460   3.375  0.4854  0.5370  0.0289
 1182SOL     OW 4326   2.405   3.922   5.556 -0.3156 -0.0849 -0.1868
 1182SOL    HW1 4327   2.364   4.004   5.587  0.7172  0.5202 -0.3902
 1182SOL    HW2 4328   2.442   3.945   5.471 -0.4058 -0.9008 -0.4486
 1183SOL     OW 4329   1.527   3.556   0.033  0.4383 -0.2851 -0.5345
 1183SOL    HW1 4330   1.458   3.528  -0.028 -0.0041 -2.4162  0.8241
 1183SOL    HW2 4331   1.606   3.513   0.001  0.2902 -1.0724  0.1455
 1184SOL     OW 4332   4.336   6.076   3.159  0.4760 -0.2525 -0.1424
 1184SOL    HW1 4333   4.296   6.046   3.241  1.2488  0.8489  0.6628
 1184SOL    HW2 4334   4.368   5.995   3.118  0.7061 -0.7609  0.9927
 1185SOL     OW 4335   0.001   1.318   7.142  0.2230 -0.2966  0.1456
 1185SOL    HW1 4336   0.048   1.330   7.225 -2.5724  1.8318  1.5698
 1185SOL    HW2 4337  -0.019   1.407   7.113 -0.6420 -1.0676 -1.7839
 1186SOL     OW 4338   2.648   2.440   4.543  0.2250 -0.1830  0.1804
 1186SOL    HW1 4339   2.606   2.470   4.462  1.3134  0.1607 -0.2792
 1186SOL    HW2 4340   2.611   2.495   4.612 -0.1057  0.0801 -0.2057
 1187SOL     OW 4341   6.107   2.805   1.471  0.4664  0.1525  0.5933
 1187SOL    HW1 4342   6.143   2.751   1.401  0.6429 -0.1906  0.9443
 1187SOL    HW2 4343   6.111   2.749   1.548 -0.3656  0.2886  0.7354
 1188SOL     OW 4344   3.474   6.658   1.857  0.1072 -0.5801  0.3364
 1188SOL    HW1 4345   3.482   6.638   1.950  0.3436  1.5558  0.8273
 1188SOL    HW2 4346   3.564   6.677   1.829 -0.2024  0.7867  0.1982
 1189SOL     OW 4347   6.507   4.824   3.877 -0.3691  0.2284  0.2187
 1189SOL    HW1 4348   6.557   4.897   3.840  1.3801 -0.8288  0.3898
 1189SOL    HW2 4349   6.417   4.843   3.852  0.0617  2.2848 -0.0029
 1190SOL     OW 4350   2.081   7.204   0.733  0.3115  0.0692  0.5574
 1190SOL    HW1 4351   2.139   7.252   0.675  0.4289  0.8729  1.3229
 1190SOL    HW2 4352   2.009   7.264   0.752  1.1406  0.5188  2.6098
 1191SOL     OW 4353   6.092   0.923   5.655 -0.2497 -0.1876 -0.0909
 1191SOL    HW1 4354   6.063   1.000   5.705  2.2027  1.1183 -0.5175
 1191SOL    HW2 4355   6.047   0.850   5.697 -1.7298  1.3258  1.1361
 1192SOL     OW 4356   1.270   0.060   7.646 -0.0572 -0.5522  0.2930
 1192SOL    HW1 4357   1.222  -0.005   7.697 -3.8465  1.2171 -0.6371
 1192SOL    HW2 4358   1.265   0.140   7.699 -0.0009  0.1905 -0.7896
 1193SOL     OW 4359   4.944   2.435   6.944 -0.4960  0.6867  0.5631
 1193SOL    HW1 4360   4.940   2.454   7.038 -2.8648 -0.5301  0.7854
 1193SOL    HW2 4361   5.037   2.442   6.922  0.3316 -0.4153  3.3115
 1194SOL     OW 4362   7.964   3.649   1.849 -0.0476 -0.0542 -0.5569
 1194SOL    HW1 4363   7.906   3.573   1.839 -0.9487  0.6012 -0.4501
 1194SOL    HW2 4364   8.051   3.615   1.831 -0.4359 -1.1192 -0.5098
 1195SOL     OW 4365   3.221   6.048   0.589 -0.1055  0.3589  0.3067
 1195SOL    HW1 4366   3.224   6.019   0.497 -1.0672 -0.6698  0.5787
 1195SOL    HW2 4367   3.308   6.085   0.605  0.7633 -1.2427 -0.4550
 1196SOL     OW 4368   0.492   7.727   3.644  0.0892 -0.2485  0.0154
 1196SOL    HW1 4369   0.483   7.643   3.689 -2.7940 -0.5210 -0.8710
 1196SOL    HW2 4370   0.483   7.793   3.714  1.9783 -0.5974  0.6529
 1197SOL     OW 4371   3.224   1.152   7.970 -0.4726  0.1419 -0.1007
 1197SOL    HW1 4372   3.265   1.147   8.057 -2.4139  3.4237  1.2109
 1197SOL    HW2 4373   3.285   1.203   7.918  0.0966 -0.6966 -0.2649
 1198SOL     OW 4374   7.545   2.004   5.098  0.0036  0.2328  0.9586
 1198SOL    HW1 4375   7.562   1.953   5.018  0.8070  1.0420  0.6004
 1198SOL    HW2 4376   7.482   1.951   5.147 -0.2454 -0.4343 -0.0553
 1199SOL     OW 4377   5.131   6.149   3.074  0.0813  0.5685 -0.0844
 1199SOL    HW1 4378   5.040   6.122   3.076 -0.0016  0.8756  1.8028
 1199SOL    HW2 4379   5.139   6.215   3.143  1.4992  1.3449 -0.9244
 1200SOL     OW 4380   5.730   6.358   6.013 -0.0283  0.9440  0.5376
 1200SOL    HW1 4381   5.665   6.421   6.043 -0.8858 -0.2867  1.3450
 1200SOL    HW2 4382   5.709   6.277   6.059  0.8905 -0.0178 -0.6449
 1201SOL     OW 4383   0.424   4.165   4.078 -0.0979 -0.2924 -0.1226
 1201SOL    HW1 4384   0.462   4.100   4.019 -1.6519 -1.7222  0.3713
 1201SOL    HW2 4385   0.496   4.227   4.095  0.6011 -0.1987 -2.9093
 1202SOL     OW 4386   2.298   4.618   0.784 -0.2575  0.4040  0.4829
 1202SOL    HW1 4387   2.388   4.641   0.763 -0.8220  0.5486 -2.1002
 1202SOL    HW2 4388   2.304   4.529   0.821  0.9799  0.6880  1.0136
 1203SOL     OW 4389   6.820   0.865   0.514  0.0050  0.0905 -0.4839
 1203SOL    HW1 4390   6.910   0.852   0.486  0.7767 -4.1392  2.9819
 1203SOL    HW2 4391   6.772   0.790   0.478 -1.5521  0.8525 -0.0947
 1204SOL     OW 4392   3.049   2.844   2.633 -0.3058 -0.1530  0.2380
 1204SOL    HW1 4393   3.005   2.904   2.573  0.1459  0.7419  0.7908
 1204SOL    HW2 4394   3.004   2.760   2.619 -1.7391  0.5676  0.2988
 1205SOL     OW 4395   0.512   6.997   2.384  0.3903  0.5233  0.4481
 1205SOL    HW1 4396   0.567   6.920   2.400 -0.3571  0.1850  1.4422
 1205SOL    HW2 4397   0.518   7.011   2.289 -0.4738 -1.5505  0.0364
 1206SOL     OW 4398   7.927   6.666   5.516 -0.3673 -0.2669 -0.5195
 1206SOL    HW1 4399   7.918   6.711   5.600 -1.4980  0.1907 -0.8717
 1206SOL    HW2 4400   7.839   6.665   5.479  0.2652  0.3741 -2.1370
 1207SOL     OW 4401   1.258   1.647   6.023 -0.1897  0.2100 -0.2321
 1207SOL    HW1 4402   1.326   1.685   6.078 -0.7144  0.2241  0.4245
 1207SOL    HW2 4403   1.302   1.626   5.941  0.4263  0.9211 -0.0946
 1208SOL     OW 4404   1.300   6.440   1.936  0.8874 -0.0932 -0.0334
 1208SOL    HW1 4405   1.276   6.373   1.872  1.1504  0.7092 -0.9998
 1208SOL    HW2 4406   1.221   6.494   1.945  0.3218 -1.1008  1.5367
 1209SOL     OW 4407   3.753   4.588   7.294  0.1602  0.5466  0.0052
 1209SOL    HW1 4408   3.815   4.605   7.224  1.6492  0.2691  1.2133
 1209SOL    HW2 4409   3.711   4.672   7.311  0.0867  0.7041 -0.9010
 1210SOL     OW 4410   1.402   6.869   5.414 -0.4613 -0.0304  0.3596
 1210SOL    HW1 4411   1.382   6.923   5.337  0.5424 -3.0274 -2.2152
 1210SOL    HW2 4412   1.496   6.855   5.410 -0.6080 -1.4651  1.2882
 1211SOL     OW 4413   2.516   7.204   2.417  0.1585  0.3250 -0.0961
 1211SOL    HW1 4414   2.581   7.272   2.434 -1.6212  1.9916  0.5393
 1211SOL    HW2 4415   2.448   7.249   2.366 -0.5615 -1.2919 -0.6358
 1212SOL     OW 4416   4.489   1.372   3.587  0.5930 -0.0205  0.1903
 1212SOL    HW1 4417   4.533   1.397   3.506 -0.2382  0.0804 -0.2399
 1212SOL    HW2 4418   4.401   1.344   3.560  0.7683 -1.3228  0.9052
 1213SOL     OW 4419   0.309   6.125   5.373  0.1843  0.4270  0.2137
 1213SOL    HW1 4420   0.253   6.083   5.308  1.1508 -0.4373 -0.0893
 1213SOL    HW2 4421   0.254   6.132   5.451 -0.4515 -0.0735 -0.1764
 1214SOL     OW 4422   0.957   1.908   7.257 -0.5407  0.1297  0.1902
 1214SOL    HW1 4423   0.993   1.835   7.205 -1.4252 -0.8699  0.9385
 1214SOL    HW2 4424   0.910   1.961   7.193 -0.0579 -0.0636 -0.3384
 1215SOL     OW 4425   7.802   7.427   1.427  0.0807  0.5558  0.3173
 1215SOL    HW1 4426   7.794   7.500   1.366 -1.4673  0.3437  0.2327
 1215SOL    HW2 4427   7.872   7.453   1.487  1.5481  0.8418 -1.4247
 1216SOL     OW 4428   1.953   3.802   5.445 -0.0803  0.3819  0.2198
 1216SOL    HW1 4429   2.035   3.781   5.489  0.0347  1.1124  0.3644
 1216SOL    HW2 4430   1.950   3.742   5.370  0.7915  0.6440 -0.0365
 1217SOL     OW 4431   3.441   3.433   7.742  0.5186 -0.3181  0.0132
 1217SOL    HW1 4432   3.383   3.463   7.671  0.8225  0.7100  0.1850
 1217SOL    HW2 4433   3.388   3.369   7.790 -0.0692 -0.2410 -0.5099
 1218SOL     OW 4434   1.283   3.397   3.659  0.4515 -0.1081 -0.2241
 1218SOL    HW1 4435   1.350   3.383   3.727 -0.1617 -0.8499  0.2464
 1218SOL    HW2 4436   1.278   3.314   3.613  0.3113  0.1527 -0.6853
 1219SOL     OW 4437   4.104   7.988   1.761  0.1022  0.3004  0.2845
 1219SOL    HW1 4438   4.040   7.998   1.831  0.4424 -1.6137  0.9317
 1219SOL    HW2 4439   4.189   7.986   1.805  0.3613 -0.3453 -0.2198
 1220SOL     OW 4440   3.875   7.966   4.678 -0.7347 -0.2266  0.2968
 1220SOL    HW1 4441   3.864   7.873   4.697  0.9781 -1.0106 -2.0798
 1220SOL    HW2 4442   3.865   7.972   4.582 -0.2690  1.9471  0.3338
 1221SOL     OW 4443   0.906   3.133   2.912 -0.5227 -0.1888  0.7173
 1221SOL    HW1 4444   0.860   3.124   2.995  0.7538 -0.4920  1.4303
 1221SOL    HW2 4445   0.981   3.189   2.932 -1.4690  1.7478 -0.8040
 1222SOL     OW 4446   4.981   3.688   1.600  0.4796 -0.2444 -0.1256
 1222SOL    HW1 4447   4.930   3.614   1.568  1.1369 -1.0591  0.6582
 1222SOL    HW2 4448   5.042   3.707   1.528  0.3403 -0.4888 -0.3111
 1223SOL     OW 4449   7.574   6.121   6.373 -0.1045 -0.0560 -0.1869
 1223SOL    HW1 4450   7.493   6.171   6.361  0.3536  0.2019 -2.8188
 1223SOL    HW2 4451   7.557   6.037   6.329  0.8742 -0.1822 -0.3498
 1224SOL     OW 4452   1.170   3.219   5.092  0.1541 -0.1681 -0.7283
 1224SOL    HW1 4453   1.132   3.174   5.017  0.0699 -0.1282 -0.7101
 1224SOL    HW2 4454   1.159   3.312   5.073 -2.2799 -0.1040  0.5027
 1225SOL     OW 4455   3.089   6.760   0.072  0.4476  0.5019  0.0553
 1225SOL    HW1 4456   3.111   6.844   0.031 -0.3468 -0.2728 -2.0875
 1225SOL    HW2 4457   3.168   6.707   0.059 -0.6952 -0.6793 -3.2746
 1226SOL     OW 4458   2.937   5.804   1.969  0.1430 -0.5143 -0.3355
 1226SOL    HW1 4459   2.867   5.753   2.010 -0.5990  0.9277  0.2777
 1226SOL    HW2 4460   3.013   5.790   2.024  0.0256 -1.1972 -0.3491
 1227SOL     OW 4461   6.293   5.816   5.662 -0.1311 -0.5227 -0.1725
 1227SOL    HW1 4462   6.343   5.897   5.670 -1.6558  0.3645  0.9290
 1227SOL    HW2 4463   6.215   5.841   5.613 -2.0284 -0.5503  2.5817
 1228SOL     OW 4464   4.091   4.617   1.143  0.0148 -0.4141  0.0965
 1228SOL    HW1 4465   4.111   4.703   1.179 -0.7829  0.1604 -0.7858
 1228SOL    HW2 4466   4.165   4.599   1.084  0.2355 -0.3889  0.3620
 1229SOL     OW 4467   0.123   7.701   5.389  0.9927 -0.8221  0.3401
 1229SOL    HW1 4468   0.055   7.635   5.402  0.1853 -0.1042 -0.1224
 1229SOL    HW2 4469   0.203   7.659   5.420  0.0206 -0.9309  2.9288
 1230SOL     OW 4470   6.036   6.335   4.454 -0.1968  0.1143  0.1223
 1230SOL    HW1 4471   5.979   6.325   4.378  0.8300  0.4671 -0.7062
 1230SOL    HW2 4472   6.092   6.257   4.453  0.9744  0.9307 -0.4994
 1231SOL     OW 4473   2.584   6.324   6.679  0.0696  0.1245  0.0599
 1231SOL    HW1 4474   2.560   6.393   6.740  1.0127  0.4024  0.1386
 1231SOL    HW2 4475   2.680   6.322   6.681  0.0863 -0.5468 -0.6473
 1232SOL     OW 4476   5.968   2.653   1.242 -0.5887 -0.1218  0.6099
 1232SOL    HW1 4477   5.889   2.600   1.230  0.9709 -1.9729 -3.6741
 1232SOL    HW2 4478   5.936   2.741   1.261 -3.7830 -0.5828 -1.8566
 1233SOL     OW 4479   5.680   0.759   7.087  0.2001  0.4700 -0.0064
 1233SOL    HW1 4480   5.708   0.747   7.178  3.0140 -0.0498 -0.8606
 1233SOL    HW2 4481   5.643   0.675   7.062  1.1885 -0.0156  0.1103
 1234SOL     OW 4482   1.839   7.594   0.581  0.6241 -0.3354  0.2732
 1234SOL    HW1 4483   1.880   7.537   0.517  1.3464  0.7129 -0.2138
 1234SOL    HW2 4484   1.797   7.662   0.530  1.3269  0.5946  0.9000
 1235SOL     OW 4485   5.954   1.782   2.530  0.6784  0.2338  0.5272
 1235SOL    HW1 4486   5.995   1.697   2.518  0.3313  0.2490 -0.9468
 1235SOL    HW2 4487   5.994   1.816   2.611  0.4512 -1.5068  1.4279
 1236SOL     OW 4488   6.861   0.646   1.147  0.2117 -0.1185 -0.3229
 1236SOL    HW1 4489   6.800   0.712   1.179 -0.0240 -0.4918 -0.0044
 1236SOL    HW2 4490   6.827   0.563   1.180  1.4890 -0.2259  0.7986
 1237SOL     OW 4491   6.565   0.276   4.059 -0.3193  0.5167 -0.3566
 1237SOL    HW1 4492   6.551   0.279   3.964  0.0706  1.5966 -0.3941
 1237SOL    HW2 4493   6.572   0.367   4.085  0.2486  0.2112  0.6214
 1238SOL     OW 4494   3.825   5.886   2.216 -0.5656  0.5687  0.2598
 1238SOL    HW1 4495   3.811   5.924   2.130  0.6345 -1.1485 -0.7297
 1238SOL    HW2 4496   3.914   5.851   2.214 -0.8428 -0.3467  1.8607
 1239SOL     OW 4497   8.208   2.293   1.225  0.0509 -0.0371  0.1923
 1239SOL    HW1 4498   8.171   2.308   1.138  0.2025  0.2644  0.1770
 1239SOL    HW2 4499   8.150   2.341   1.284 -0.1153 -0.3332  0.2707
 1240SOL     OW 4500   3.009   2.586   3.542 -0.0523  0.1308  0.0012
 1240SOL    HW1 4501   2.993   2.635   3.623  1.1384 -2.3152  1.8273
 1240SOL    HW2 4502   3.098   2.608   3.517 -0.0542  0.0834 -0.0479
 1241SOL     OW 4503   3.322   1.165   1.084 -0.5095 -0.4843  0.0077
 1241SOL    HW1 4504   3.374   1.240   1.112  0.8898 -0.9854 -1.1141
 1241SOL    HW2 4505   3.234   1.201   1.071  0.2593  1.1288 -1.1149
 1242SOL     OW 4506   0.048   3.766   3.649 -0.6040 -0.3689  0.0254
 1242SOL    HW1 4507   0.105   3.704   3.603  0.0756  0.1708  0.1398
 1242SOL    HW2 4508   0.104   3.806   3.715 -0.8203  0.9772 -0.5849
 1243SOL     OW 4509   0.907   5.004   5.165  0.1957 -0.4012  0.2169
 1243SOL    HW1 4510   0.947   4.963   5.088  1.3228 -1.1664  1.1553
 1243SOL    HW2 4511   0.813   4.991   5.154  0.4066 -1.3887 -0.5454
 1244SOL     OW 4512   0.575   6.949   3.909 -0.0259  0.2440  0.1980
 1244SOL    HW1 4513   0.565   7.043   3.917 -0.3451  0.3308 -1.0582
 1244SOL    HW2 4514   0.509   6.922   3.846  0.5670 -0.7131 -0.0482
 1245SOL     OW 4515   8.258   7.472   4.225 -0.2660  0.1040 -0.6189
 1245SOL    HW1 4516   8.321   7.545   4.223  0.0118 -0.1307 -0.6111
 1245SOL    HW2 4517   8.287   7.419   4.300 -2.2199  1.5229  1.2687
 1246SOL     OW 4518   7.741   0.669   3.846 -0.4572  0.8813 -0.0567
 1246SOL    HW1 4519   7.786   0.752   3.865  1.7261  0.2202 -1.8356
 1246SOL    HW2 4520   7.781   0.606   3.906 -1.0865  0.8230  0.3080
 1247SOL     OW 4521   6.627   6.684   6.137 -0.2293 -0.1142  0.4865
 1247SOL    HW1 4522   6.715   6.722   6.141  0.0108 -0.3968 -1.3143
 1247SOL    HW2 4523   6.579   6.728   6.207  1.5480 -0.5552  2.0957
 1248SOL     OW 4524   4.165   1.982   5.680  0.1218  0.0688 -0.2628
 1248SOL    HW1 4525   4.091   2.017   5.730  0.1455 -1.0158  0.5544
 1248SOL    HW2 4526   4.241   2.030   5.713 -0.0107  0.1299 -0.0440
 1249SOL     OW 4527   5.186   0.391   8.011  0.0120  0.4356  0.3411
 1249SOL    HW1 4528   5.227   0.477   8.000  1.0222 -0.2063 -1.3690
 1249SOL    HW2 4529   5.259   0.331   8.026 -0.5674 -0.2884  0.3307
 1250SOL     OW 4530   6.643   4.772   0.433  0.3186  0.7050  0.4398
 1250SOL    HW1 4531   6.721   4.729   0.467  0.1533  1.8076  2.3626
 1250SOL    HW2 4532   6.664   4.791   0.341  0.6238 -2.7876 -0.3371
 1251SOL     OW 4533   4.124   4.939   0.008  0.2750 -0.0623  0.1030
 1251SOL    HW1 4534   4.166   5.020   0.038  1.3887 -0.6673  0.2457
 1251SOL    HW2 4535   4.145   4.934  -0.085  0.6637 -0.4341  0.2042
 1252SOL     OW 4536   6.366   1.220   1.504 -0.3212  0.2878 -0.0227
 1252SOL    HW1 4537   6.460   1.239   1.498 -0.5088  0.8927 -1.2400
 1252SOL    HW2 4538   6.324   1.305   1.495 -1.0044 -0.0150  0.2743
 1253SOL     OW 4539   6.130   6.393   6.794 -0.2796 -0.0605  0.1328
 1253SOL    HW1 4540   6.135   6.303   6.828 -2.0061 -0.2789 -0.1057
 1253SOL    HW2 4541   6.204   6.400   6.734  0.6967 -0.8533  1.1859
 1254SOL     OW 4542   5.228   4.144   5.303 -0.1005  0.2784  0.0610
 1254SOL    HW1 4543   5.175   4.091   5.361  2.5830  0.3486  2.8298
 1254SOL    HW2 4544   5.186   4.230   5.304 -0.8024 -0.0590  0.8925
 1255SOL     OW 4545   3.814   8.080   5.531  0.0447 -0.1250 -0.1856
 1255SOL    HW1 4546   3.811   8.174   5.516 -0.3684  0.3753  2.4950
 1255SOL    HW2 4547   3.763   8.042   5.459  0.3295  1.6547 -1.3878
 1256SOL     OW 4548   6.411   7.599   4.858  0.7181 -0.0980 -0.3775
 1256SOL    HW1 4549   6.502   7.582   4.881  0.4301  0.4112  1.2393
 1256SOL    HW2 4550   6.400   7.694   4.871 -0.0314 -0.1372 -0.6291
 1257SOL     OW 4551   7.961   4.405   3.105 -0.2079  0.2216  0.3901
 1257SOL    HW1 4552   7.894   4.463   3.140 -0.0298  0.7347 -0.0847
 1257SOL    HW2 4553   7.930   4.317   3.123 -0.3146  0.4623  1.4486
 1258SOL     OW 4554   5.190   0.117   6.177  0.3530  0.1507 -0.0854
 1258SOL    HW1 4555   5.118   0.128   6.239 -0.3831 -1.7130 -0.5483
 1258SOL    HW2 4556   5.167   0.173   6.103  0.7479  1.6206  0.8508
 1259SOL     OW 4557   1.783   4.924   1.414  0.0547 -0.1278 -0.4298
 1259SOL    HW1 4558   1.740   4.911   1.499  0.5687  0.9863  0.0166
 1259SOL    HW2 4559   1.815   4.837   1.391 -0.2865 -0.4947  0.4196
 1260SOL     OW 4560   7.770   2.001   6.096  0.3433  0.2560 -0.3385
 1260SOL    HW1 4561   7.790   2.000   6.189 -0.8277  0.5044 -0.0734
 1260SOL    HW2 4562   7.829   1.936   6.058 -0.8282 -1.6641  0.9312
 1261SOL     OW 4563   3.819   0.164   1.416 -0.3128 -0.0353 -0.4641
 1261SOL    HW1 4564   3.857   0.217   1.485  1.9017 -2.2094  0.1275
 1261SOL    HW2 4565   3.890   0.154   1.351 -1.0184 -1.2821 -1.0892
 1262SOL     OW 4566   7.614   5.019   0.397 -0.1337  0.0123 -0.2704
 1262SOL    HW1 4567   7.533   4.967   0.396  0.0281 -0.2878  0.8653
 1262SOL    HW2 4568   7.626   5.043   0.489  2.1053 -1.5833 -0.0764
 1263SOL     OW 4569   4.822   3.345   7.118 -0.2762  0.2750 -0.2939
 1263SOL    HW1 4570   4.866   3.328   7.201 -0.3648 -0.8373 -0.4587
 1263SOL    HW2 4571   4.891   3.379   7.061  0.4636 -1.6393 -0.6119
 1264SOL     OW 4572   1.197   2.060   5.982 -0.0402 -0.2207 -0.0719
 1264SOL    HW1 4573   1.242   2.024   6.059 -0.4973 -1.3893 -0.3306
 1264SOL    HW2 4574   1.267   2.098   5.929  0.8120 -2.6421 -0.8148
 1265SOL     OW 4575   3.620   5.599   1.278  0.0728 -0.3700 -0.0407
 1265SOL    HW1 4576   3.630   5.504   1.285 -0.3127 -0.4720 -0.7223
 1265SOL    HW2 4577   3.559   5.622   1.348  3.0738 -0.0534  2.6664
 1266SOL     OW 4578   3.124   8.079   0.475 -0.4936  0.3320  0.0213
 1266SOL    HW1 4579   3.126   8.008   0.410 -1.2773  0.3046  0.0241
 1266SOL    HW2 4580   3.138   8.035   0.559 -0.8493  0.1955  0.0097
 1267SOL     OW 4581   1.303   0.349   1.729  0.0333  0.2587  0.3546
 1267SOL    HW1 4582   1.383   0.326   1.682  1.1038  1.0422  1.7347
 1267SOL    HW2 4583   1.333   0.378   1.815 -1.8136 -0.4610  1.2959
 1268SOL     OW 4584   0.688   4.515   3.072  0.2837 -0.0271 -0.2489
 1268SOL    HW1 4585   0.657   4.454   3.139  1.0026 -0.9338 -0.7150
 1268SOL    HW2 4586   0.779   4.533   3.095  0.0727  0.9079 -0.1005
 1269SOL     OW 4587   6.758   3.378   0.532 -0.1209  0.2574  0.6631
 1269SOL    HW1 4588   6.665   3.356   0.539  0.3079 -2.1898 -0.3874
 1269SOL    HW2 4589   6.790   3.373   0.622 -0.6073 -0.9213  0.7820
 1270SOL     OW 4590   1.029   3.821   7.282  0.1192  0.0224 -0.3426
 1270SOL    HW1 4591   1.077   3.795   7.361  0.3845  1.8088  0.1222
 1270SOL    HW2 4592   1.093   3.868   7.229 -0.7194  1.1041 -0.4264
 1271SOL     OW 4593   0.858   4.457   2.087  0.0851 -0.0328 -0.2823
 1271SOL    HW1 4594   0.902   4.539   2.111  2.5178 -1.2754 -0.1047
 1271SOL    HW2 4595   0.792   4.483   2.024  0.9097  2.0600 -0.3784
 1272SOL     OW 4596   3.911   3.713   3.885  0.2865 -1.0537  0.6680
 1272SOL    HW1 4597   3.821   3.747   3.883  0.9737  0.9320  0.9758
 1272SOL    HW2 4598   3.905   3.627   3.843 -1.2350  0.3382 -2.2899
 1273SOL     OW 4599   0.211   3.129   7.623  0.9198  0.5386 -0.1110
 1273SOL    HW1 4600   0.195   3.203   7.682 -2.3810 -1.6129  1.9979
 1273SOL    HW2 4601   0.138   3.132   7.561  0.2821 -1.3406  0.4937
 1274SOL     OW 4602   5.422   0.949   5.855  0.0695 -0.4532 -0.0062
 1274SOL    HW1 4603   5.333   0.969   5.827 -0.7051 -1.8773  1.3040
 1274SOL    HW2 4604   5.445   1.021   5.914 -0.0503  0.1078 -0.6240
 1275SOL     OW 4605   2.410   2.859   3.165  0.0372  1.0946  0.3282
 1275SOL    HW1 4606   2.504   2.872   3.183  0.0093  1.9115 -0.0939
 1275SOL    HW2 4607   2.370   2.855   3.252  0.5629 -0.0820  0.5346
 1276SOL     OW 4608   5.331   6.458   6.048  0.0003  0.7478  0.1628
 1276SOL    HW1 4609   5.398   6.506   6.097  1.7226 -1.7093  0.4049
 1276SOL    HW2 4610   5.272   6.425   6.116  0.6921 -0.1727  0.3336
 1277SOL     OW 4611   7.013   3.464   2.484 -0.1295 -0.3876 -0.3277
 1277SOL    HW1 4612   7.008   3.533   2.550  0.2979 -0.2524 -0.4337
 1277SOL    HW2 4613   6.959   3.393   2.519 -1.2665  0.3151 -0.6048
 1278SOL     OW 4614   2.134   4.791   4.529  0.0290  0.0513  0.0422
 1278SOL    HW1 4615   2.182   4.730   4.585 -0.6974 -0.9595 -0.4130
 1278SOL    HW2 4616   2.042   4.768   4.541 -0.1053 -1.1343 -2.5686
 1279SOL     OW 4617   3.650   7.009   3.657  0.5711 -0.6664  0.0916
 1279SOL    HW1 4618   3.628   6.988   3.566  1.8489 -1.3131 -0.0925
 1279SOL    HW2 4619   3.674   7.101   3.655  0.2239 -0.5788 -0.1527
 1280SOL     OW 4620   7.611   4.861   1.016  0.6561  0.2337 -0.0772
 1280SOL    HW1 4621   7.706   4.855   1.005  1.0561  0.4244  2.6844
 1280SOL    HW2 4622   7.595   4.956   1.022  0.5371  0.1519  1.0398
 1281SOL     OW 4623   2.356   5.657   0.035  0.2700  0.1149  0.0050
 1281SOL    HW1 4624   2.382   5.583  -0.020  1.3021  0.6573 -0.2760
 1281SOL    HW2 4625   2.439   5.698   0.061 -0.2743  1.4670 -0.2777
 1282SOL     OW 4626   5.801   1.342   4.187  0.4668  0.0733 -0.4985
 1282SOL    HW1 4627   5.815   1.351   4.281  1.6601 -0.1219 -0.6382
 1282SOL    HW2 4628   5.721   1.291   4.180  1.4832 -1.7823  0.4773
 1283SOL     OW 4629   0.155   0.960   3.296  0.3101 -0.8256 -0.1535
 1283SOL    HW1 4630   0.090   0.994   3.236  0.2707  0.4592  0.5928
 1283SOL    HW2 4631   0.105   0.916   3.365  0.1368  1.0420  0.9648
 1284SOL     OW 4632   0.275   8.174   4.512 -0.0051 -0.0031  0.6528
 1284SOL    HW1 4633   0.278   8.244   4.447  2.4581  0.1307  0.8233
 1284SOL    HW2 4634   0.324   8.209   4.587  0.1865 -1.4341  1.2292
 1285SOL     OW 4635   6.015   3.638   5.998 -0.1648 -0.8544  0.4005
 1285SOL    HW1 4636   6.099   3.594   6.004  0.8976  1.1708  1.6941
 1285SOL    HW2 4637   6.038   3.731   5.991 -2.2771 -0.1138  2.1785
 1286SOL     OW 4638   7.317   0.756   0.128 -0.2891  0.1226 -0.0950
 1286SOL    HW1 4639   7.352   0.828   0.180 -2.6265  0.4045  1.2345
 1286SOL    HW2 4640   7.310   0.682   0.189 -0.2630 -0.4709 -0.7914
 1287SOL     OW 4641   2.813   6.848   0.930  0.2193  0.5500  0.3156
 1287SOL    HW1 4642   2.836   6.914   0.864 -2.2708  1.1742 -0.0136
 1287SOL    HW2 4643   2.766   6.780   0.881 -0.6985  0.4765  1.2715
 1288SOL     OW 4644   4.910   1.369   3.211 -0.0939  0.2591 -0.3402
 1288SOL    HW1 4645   4.982   1.426   3.185  1.0497 -0.6354  0.7280
 1288SOL    HW2 4646   4.953   1.287   3.238 -1.6132 -0.8105 -1.0095
 1289SOL     OW 4647   0.390   6.182   1.620  0.0774 -0.1863 -0.0018
 1289SOL    HW1 4648   0.346   6.154   1.700  1.2147 -0.6939  0.4614
 1289SOL    HW2 4649   0.459   6.117   1.605  1.3900  1.1509 -0.0802
 1290SOL     OW 4650   7.253   6.367   7.821  0.6346  0.1241 -0.1599
 1290SOL    HW1 4651   7.317   6.431   7.789 -0.1940  1.1700  0.1804
 1290SOL    HW2 4652   7.194   6.353   7.747  0.1937  0.5996  0.0895
 1291SOL     OW 4653   2.420   0.280   8.173  0.1018 -0.4199 -0.1234
 1291SOL    HW1 4654   2.406   0.358   8.118  1.3656 -0.0997 -0.0266
 1291SOL    HW2 4655   2.378   0.302   8.256 -0.9786 -0.5166 -0.6261
 1292SOL     OW 4656   4.125   2.579   0.124 -0.3960  0.6414  0.3128
 1292SOL    HW1 4657   4.153   2.488   0.115 -1.5932  0.1967  0.9822
 1292SOL    HW2 4658   4.187   2.617   0.186 -0.9271 -0.2076  1.4093
 1293SOL     OW 4659   4.826   4.072   5.092  0.1123  0.0091  0.1544
 1293SOL    HW1 4660   4.815   3.999   5.032 -0.4958  0.1315  0.1111
 1293SOL    HW2 4661   4.841   4.148   5.035  0.3961 -0.0172  0.1894
 1294SOL     OW 4662   4.958   4.442   2.380 -0.1495 -0.0331  0.0179
 1294SOL    HW1 4663   4.888   4.494   2.341 -0.8773 -0.6473  0.4931
 1294SOL    HW2 4664   4.924   4.353   2.382  0.4968 -0.2774  0.6182
 1295SOL     OW 4665   4.166   2.494   6.825  0.8686 -0.5128  0.2957
 1295SOL    HW1 4666   4.220   2.572   6.836 -0.2081  0.2490  0.3427
 1295SOL    HW2 4667   4.107   2.494   6.900 -0.2007 -0.4788 -0.5114
 1296SOL     OW 4668   3.714   5.761   4.672 -0.0801 -0.1413  0.0480
 1296SOL    HW1 4669   3.678   5.811   4.599  2.6533  0.6306 -0.8604
 1296SOL    HW2 4670   3.643   5.760   4.737 -0.9422  3.2212 -0.6799
 1297SOL     OW 4671   2.633   5.322   1.383  0.3733 -0.1924  0.2050
 1297SOL    HW1 4672   2.703   5.367   1.335  0.0279 -0.0238 -0.1444
 1297SOL    HW2 4673   2.641   5.231   1.356  0.6178 -0.2176  0.3597
 1298SOL     OW 4674   0.915   1.389   2.339 -0.2557  0.0993  0.1074
 1298SOL    HW1 4675   0.954   1.331   2.405  0.1917  0.7054  0.3826
 1298SOL    HW2 4676   0.838   1.342   2.308 -1.0299  0.2208  1.7638
 1299SOL     OW 4677   4.749   1.835   6.895 -0.0653  0.2178 -0.2068
 1299SOL    HW1 4678   4.707   1.773   6.835 -1.3448 -1.1473  1.9844
 1299SOL    HW2 4679   4.679   1.893   6.922  0.5073  0.8299 -0.0202
 1300SOL     OW 4680   2.340   7.084   4.807 -0.3486  0.1900  0.6292
 1300SOL    HW1 4681   2.252   7.054   4.829 -0.2050  0.8368  2.2198
 1300SOL    HW2 4682   2.380   7.104   4.892  0.3783  2.5087 -0.1827
 1301SOL     OW 4683   2.570   3.304   1.613 -0.0786  0.8297  0.2458
 1301SOL    HW1 4684   2.545   3.367   1.545  0.7229  0.6004 -0.2777
 1301SOL    HW2 4685   2.571   3.220   1.568 -2.7610  0.1284  1.3054
 1302SOL     OW 4686   5.089   6.984   7.641  0.1712  0.5537 -0.3853
 1302SOL    HW1 4687   5.124   7.021   7.561  3.3438 -1.2964 -0.0286
 1302SOL    HW2 4688   5.101   6.889   7.631 -2.3991 -0.0034  0.9735
 1303SOL     OW 4689   6.941   0.336   7.667 -0.2154  0.1455 -0.0767
 1303SOL    HW1 4690   7.021   0.351   7.716  0.6920 -0.1844 -1.3989
 1303SOL    HW2 4691   6.920   0.422   7.630 -0.9725  0.4240  0.9553
 1304SOL     OW 4692   3.852   2.327   6.747  0.4895  0.2356  0.2961
 1304SOL    HW1 4693   3.894   2.345   6.831  1.5259 -0.2895 -0.0808
 1304SOL    HW2 4694   3.814   2.410   6.721 -0.5531  0.2083  1.6504
 1305SOL     OW 4695   4.051   3.768   3.559  0.2789  0.7460 -0.1645
 1305SOL    HW1 4696   4.110   3.779   3.633  0.2185  0.8197 -0.1264
 1305SOL    HW2 4697   3.973   3.819   3.583  0.3292  0.9162 -0.3557
 1306SOL     OW 4698   5.981   4.990   2.866  0.4109  0.2772 -0.2224
 1306SOL    HW1 4699   5.950   4.939   2.941  2.1884  0.5930  0.7978
 1306SOL    HW2 4700   5.925   5.067   2.863 -1.2071 -0.8718 -0.7236
 1307SOL     OW 4701   5.013   5.826   5.783 -0.3054  0.3119  0.1559
 1307SOL    HW1 4702   5.009   5.884   5.859 -1.8167  0.5153 -0.0540
 1307SOL    HW2 4703   5.020   5.886   5.708 -0.3113  0.1688  0.0418
 1308SOL     OW 4704   6.948   0.032   7.655 -0.5736  0.3570  0.0607
 1308SOL    HW1 4705   6.960   0.127   7.663  0.5666  0.1747  0.6493
 1308SOL    HW2 4706   6.908   0.020   7.569 -1.1557  1.4039  0.1713
 1309SOL     OW 4707   2.017   4.184   2.955  0.5533 -0.2310 -0.3557
 1309SOL    HW1 4708   2.078   4.235   2.902 -0.5152  0.3183 -1.0959
 1309SOL    HW2 4709   1.975   4.125   2.892  1.1108 -1.3907  0.3343
 1310SOL     OW 4710   6.944   4.182   5.051  0.3879  0.8369 -0.5654
 1310SOL    HW1 4711   7.022   4.136   5.081  0.3034 -0.1468 -1.7604
 1310SOL    HW2 4712   6.946   4.172   4.955 -1.5473  0.1942 -0.5870
 1311SOL     OW 4713   1.591   0.576   0.945  0.2459 -0.4171  0.0386
 1311SOL    HW1 4714   1.640   0.532   0.876  3.1308 -1.3044  2.4736
 1311SOL    HW2 4715   1.612   0.669   0.934  0.7722 -0.5640 -0.2237
 1312SOL     OW 4716   7.492   6.983   6.782 -0.2247 -0.3333  0.3022
 1312SOL    HW1 4717   7.482   6.963   6.876  1.8703 -0.2735  0.5958
 1312SOL    HW2 4718   7.491   6.897   6.740  0.3043 -0.4783  0.5705
 1313SOL     OW 4719   2.871   5.186   7.712  0.5842  0.3473  0.0701
 1313SOL    HW1 4720   2.868   5.224   7.800 -0.3984  0.0401  0.1916
 1313SOL    HW2 4721   2.868   5.091   7.727 -1.2143  0.3086 -0.3063
 1314SOL     OW 4722   1.648   2.511   2.880 -0.1509  0.4202 -0.5731
 1314SOL    HW1 4723   1.592   2.437   2.858  0.2365 -0.3909  1.0328
 1314SOL    HW2 4724   1.649   2.565   2.801  0.3314 -1.7752 -2.1307
 1315SOL     OW 4725   3.076   0.598   2.990  0.2441 -0.0744  0.2348
 1315SOL    HW1 4726   3.005   0.663   2.995  0.0834 -0.3104  1.2261
 1315SOL    HW2 4727   3.058   0.538   3.062 -0.3676 -1.9972 -1.4399
 1316SOL     OW 4728   1.778   2.752   3.613  0.5477 -0.2947 -0.4555
 1316SOL    HW1 4729   1.870   2.758   3.638  1.1257 -0.6957 -2.3218
 1316SOL    HW2 4730   1.735   2.710   3.687  2.1111 -1.2729 -0.0639
 1317SOL     OW 4731   3.582   4.172   2.025  0.0158  0.2908  0.4671
 1317SOL    HW1 4732   3.512   4.146   1.965 -0.7517  0.8979  1.0729
 1317SOL    HW2 4733   3.610   4.090   2.066  0.2153 -0.0599 -0.3543
 1318SOL     OW 4734   7.920   8.225   6.843 -0.4363 -0.2816  0.3449
 1318SOL    HW1 4735   8.001   8.242   6.795  0.4827 -0.6167  1.7199
 1318SOL    HW2 4736   7.878   8.153   6.795  0.2437 -0.3323 -0.1842
 1319SOL     OW 4737   3.584   1.475   5.248  0.4221 -0.1883  0.4176
 1319SOL    HW1 4738   3.552   1.493   5.160  0.1840  0.4049  0.6201
 1319SOL    HW2 4739   3.534   1.398   5.277 -0.4366  0.3996  0.5237
 1320SOL     OW 4740   2.473   8.322   5.190  0.1988  0.1020  0.1881
 1320SOL    HW1 4741   2.511   8.251   5.241 -0.9433  0.7225  1.9935
 1320SOL    HW2 4742   2.393   8.346   5.237 -0.6769  1.0395 -1.6608
 1321SOL     OW 4743   0.945   5.962   0.457 -0.3846 -0.2856  0.7953
 1321SOL    HW1 4744   0.959   6.014   0.536 -2.2778 -0.0045  0.9927
 1321SOL    HW2 4745   0.963   6.022   0.385  0.3710 -0.2472  1.0116
 1322SOL     OW 4746   4.461   1.319   0.097  0.0344 -0.3089  0.1457
 1322SOL    HW1 4747   4.524   1.328   0.169  0.9754 -1.1282 -0.5516
 1322SOL    HW2 4748   4.513   1.286   0.024 -1.3887 -1.9542 -0.1666
 1323SOL     OW 4749   2.500   7.919   6.098 -0.4575 -0.4260  0.1612
 1323SOL    HW1 4750   2.529   7.927   6.189 -1.6980  0.3384  0.5021
 1323SOL    HW2 4751   2.529   7.831   6.072  2.8382  0.5007  0.2057
 1324SOL     OW 4752   1.856   5.728   6.150  0.3302 -0.3208 -0.0752
 1324SOL    HW1 4753   1.795   5.669   6.194  2.0967 -2.6803 -0.5805
 1324SOL    HW2 4754   1.837   5.717   6.057  0.2004  0.4865 -0.1492
 1325SOL     OW 4755   1.977   7.230   5.161 -0.5955  0.1387  0.8667
 1325SOL    HW1 4756   1.894   7.190   5.187 -0.5823 -0.4760 -0.0203
 1325SOL    HW2 4757   1.953   7.294   5.095 -0.4918  0.8673  1.5137
 1326SOL     OW 4758   0.965   3.524   4.390  0.1212  0.6245 -0.0037
 1326SOL    HW1 4759   1.045   3.558   4.428 -0.2295  2.7841 -1.0585
 1326SOL    HW2 4760   0.898   3.589   4.412 -0.9669 -0.2212 -0.6871
 1327SOL     OW 4761   6.324   5.993   6.079 -0.1381  0.3324 -0.1706
 1327SOL    HW1 4762   6.391   6.062   6.078 -0.9710  1.1435 -0.9142
 1327SOL    HW2 4763   6.268   6.013   6.004  0.0541 -1.6162 -0.8838
 1328SOL     OW 4764   4.014   3.703   5.358  0.6361 -0.3118  0.0640
 1328SOL    HW1 4765   3.985   3.676   5.271  1.4960 -1.3759  0.0821
 1328SOL    HW2 4766   4.089   3.760   5.342  0.3977  0.0135  0.0965
 1329SOL     OW 4767   2.687   7.783   6.741 -0.5257 -0.4931  0.4667
 1329SOL    HW1 4768   2.715   7.856   6.685  0.7613 -2.3557 -1.4713
 1329SOL    HW2 4769   2.735   7.795   6.822  1.5959 -0.4480 -0.7272
 1330SOL     OW 4770   6.332   7.611   7.679  0.6941 -0.1680 -0.2692
 1330SOL    HW1 4771   6.343   7.537   7.620 -1.1249  1.8118 -3.4096
 1330SOL    HW2 4772   6.417   7.654   7.681  1.0618 -0.8786 -0.5556
 1331SOL     OW 4773   3.973   0.826   4.923 -0.5120 -0.4594 -0.1781
 1331SOL    HW1 4774   4.037   0.896   4.912 -1.1536  0.2690  0.5061
 1331SOL    HW2 4775   3.979   0.774   4.843  0.8332 -0.3458 -0.1706
 1332SOL     OW 4776   1.635   7.790   6.456  0.6988  0.9913  0.2626
 1332SOL    HW1 4777   1.609   7.850   6.386 -2.0323  1.6294  1.6711
 1332SOL    HW2 4778   1.595   7.706   6.432  0.6796  0.9289  0.5053
 1333SOL     OW 4779   2.516   0.357   5.999 -0.0720 -0.1742 -0.1804
 1333SOL    HW1 4780   2.470   0.311   5.930 -0.3972 -0.7174  0.3927
 1333SOL    HW2 4781   2.589   0.401   5.954  0.1249 -1.0802 -0.7590
 1334SOL     OW 4782   4.637   6.870   2.594 -0.0643 -0.2595 -0.3783
 1334SOL    HW1 4783   4.542   6.868   2.610 -0.2390 -0.0367 -1.3253
 1334SOL    HW2 4784   4.666   6.781   2.613 -0.3856 -0.2118  0.3610
 1335SOL     OW 4785   4.032   0.158   0.265 -0.2092  0.2582 -0.2360
 1335SOL    HW1 4786   4.011   0.134   0.356  1.1522  1.2459  0.3697
 1335SOL    HW2 4787   4.070   0.246   0.271  1.3357 -0.2646 -1.5675
 1336SOL     OW 4788   0.405   0.864   4.029  0.4240  0.3314  0.2296
 1336SOL    HW1 4789   0.336   0.847   3.964  1.2400  0.4085 -0.6755
 1336SOL    HW2 4790   0.363   0.845   4.113 -1.1519  1.7721 -0.1748
 1337SOL     OW 4791   7.141   4.088   7.075 -0.0526 -1.4479  0.6189
 1337SOL    HW1 4792   7.141   4.106   6.981  2.0255 -1.7759  0.5176
 1337SOL    HW2 4793   7.073   4.022   7.086 -0.3193 -1.4225 -0.6562
 1338SOL     OW 4794   1.071   1.177   1.309 -0.0965  0.3623  0.2200
 1338SOL    HW1 4795   0.991   1.139   1.345 -0.9759  2.0708  0.1481
 1338SOL    HW2 4796   1.129   1.187   1.385  0.4775 -1.7443  0.1352
 1339SOL     OW 4797   3.813   5.796   4.000 -0.1691  0.0132 -0.4773
 1339SOL    HW1 4798   3.751   5.731   3.966  0.3149 -0.3960 -0.5906
 1339SOL    HW2 4799   3.894   5.747   4.013 -0.0494  0.4055  0.2800
 1340SOL     OW 4800   3.283   2.184   0.831 -0.0357  0.1274  0.3306
 1340SOL    HW1 4801   3.370   2.146   0.815 -1.1876 -1.9797 -1.6391
 1340SOL    HW2 4802   3.269   2.243   0.757 -0.0334  1.0043  1.0177
 1341SOL     OW 4803   2.723   7.611   1.211 -0.2545  0.0060  0.2889
 1341SOL    HW1 4804   2.684   7.585   1.128  0.1667 -2.3232  0.7450
 1341SOL    HW2 4805   2.649   7.645   1.262 -0.9316 -0.5796 -0.2749
 1342SOL     OW 4806   1.234   7.487   5.448  0.1317 -0.2452 -0.1090
 1342SOL    HW1 4807   1.237   7.507   5.541  2.1552 -0.5600 -0.0604
 1342SOL    HW2 4808   1.166   7.545   5.413  1.7582  2.4812  0.9947
 1343SOL     OW 4809   7.996   0.679   4.497 -0.2732 -0.5982 -0.3408
 1343SOL    HW1 4810   7.928   0.643   4.553 -0.7476 -0.5727 -0.8951
 1343SOL    HW2 4811   8.004   0.771   4.525  0.5117 -0.9532  0.6563
 1344SOL     OW 4812   4.237   4.395   2.898  0.3079 -0.3805 -0.3487
 1344SOL    HW1 4813   4.246   4.490   2.906 -1.3609 -0.3107  1.8560
 1344SOL    HW2 4814   4.146   4.377   2.921  1.0454 -2.6356  1.3271
 1345SOL     OW 4815   7.350   2.187   5.863  0.3229 -0.5995 -0.0099
 1345SOL    HW1 4816   7.310   2.128   5.927  0.4118 -0.1620  0.4529
 1345SOL    HW2 4817   7.444   2.175   5.876  0.3483 -1.0118 -0.5292
 1346SOL     OW 4818   7.164   0.946   8.100 -0.0654 -0.3899  0.0383
 1346SOL    HW1 4819   7.165   0.863   8.053 -0.7352 -0.0922 -0.5208
 1346SOL    HW2 4820   7.079   0.949   8.142 -0.8416  0.8326 -1.4918
 1347SOL     OW 4821   7.017   1.602   2.955  0.2319 -0.5772  0.2688
 1347SOL    HW1 4822   6.945   1.610   2.893 -0.3530 -1.8919  0.7412
 1347SOL    HW2 4823   7.081   1.545   2.912 -0.8586 -2.7929  1.3821
 1348SOL     OW 4824   6.828   6.092   6.220 -0.7725  0.0920 -0.2439
 1348SOL    HW1 4825   6.905   6.034   6.215 -1.1854 -0.3812 -1.5881
 1348SOL    HW2 4826   6.863   6.179   6.203 -0.6249 -0.2263 -1.6942
 1349SOL     OW 4827   0.192   3.846   2.553 -0.6367 -0.1714 -0.2620
 1349SOL    HW1 4828   0.142   3.927   2.563 -0.3351 -0.0274  0.1347
 1349SOL    HW2 4829   0.128   3.777   2.565 -0.7085  0.0123  0.4945
 1350SOL     OW 4830   3.240   8.198   0.121  0.0601 -0.5690 -0.2713
 1350SOL    HW1 4831   3.217   8.112   0.086  1.1343 -1.7968  1.8222
 1350SOL    HW2 4832   3.307   8.230   0.061  0.2907 -1.6123 -0.5988
 1351SOL     OW 4833   0.086   4.413   4.186 -0.2237 -0.0286  0.4541
 1351SOL    HW1 4834   0.150   4.461   4.239 -0.9472  0.8868  0.5190
 1351SOL    HW2 4835   0.137   4.380   4.112  0.1328  1.6592 -0.0912
 1352SOL     OW 4836   4.007   6.616   7.822  0.1687  0.0701 -0.8580
 1352SOL    HW1 4837   3.958   6.696   7.803 -0.0819  0.3614  0.8595
 1352SOL    HW2 4838   3.971   6.585   7.905  1.1734 -1.1059 -0.8347
 1353SOL     OW 4839   7.252   5.586   5.434  0.5590 -0.2526 -0.3736
 1353SOL    HW1 4840   7.242   5.680   5.450 -0.8771 -0.4231 -0.1356
 1353SOL    HW2 4841   7.279   5.550   5.518  2.5144  0.1040 -0.8034
 1354SOL     OW 4842   3.892   4.596   0.835 -0.2619 -0.2416 -0.0214
 1354SOL    HW1 4843   3.981   4.632   0.829 -0.8598  1.5304  1.0303
 1354SOL    HW2 4844   3.905   4.501   0.829  1.6948 -0.0331  0.0698
 1355SOL     OW 4845   1.930   8.022   4.764  0.1071  0.1256  0.8832
 1355SOL    HW1 4846   1.881   7.978   4.695 -1.6192  0.9128  1.5454
 1355SOL    HW2 4847   2.014   8.045   4.724 -1.1457  1.2586 -1.2112
 1356SOL     OW 4848   2.686   0.565   4.927  0.2998 -0.1090  0.2878
 1356SOL    HW1 4849   2.615   0.503   4.908  0.4247 -0.3531  0.6162
 1356SOL    HW2 4850   2.697   0.613   4.845 -0.3468  0.0330  0.2807
 1357SOL     OW 4851   4.364   8.272   2.262  0.4282  0.1194 -0.2762
 1357SOL    HW1 4852   4.321   8.187   2.252  0.2985 -0.2199  2.3470
 1357SOL    HW2 4853   4.299   8.335   2.229 -0.3673 -0.6585 -0.2564
 1358SOL     OW 4854   8.119   6.203   2.622  0.4163  0.0433 -0.0856
 1358SOL    HW1 4855   8.137   6.268   2.554  0.7082  0.6797  0.6005
 1358SOL    HW2 4856   8.024   6.205   2.632  0.3408 -0.2414 -0.6473
 1359SOL     OW 4857   5.894   6.676   8.152 -0.6236  0.2946 -0.1912
 1359SOL    HW1 4858   5.808   6.713   8.174  0.1527  1.8197  0.5047
 1359SOL    HW2 4859   5.917   6.623   8.228 -1.3541 -0.9261 -0.8016
 1360SOL     OW 4860   7.113   5.009   4.295  0.2289  0.1849 -0.0668
 1360SOL    HW1 4861   7.142   5.045   4.379  0.0588  0.3675 -0.0845
 1360SOL    HW2 4862   7.193   4.986   4.250  0.3284  0.2416  0.0799
 1361SOL     OW 4863   6.833   4.449   5.776  0.3025  0.0530  0.2478
 1361SOL    HW1 4864   6.875   4.364   5.785  0.3066  0.1015  0.7105
 1361SOL    HW2 4865   6.903   4.508   5.745  0.2163 -0.1822 -0.4084
 1362SOL     OW 4866   7.021   1.085   4.475  0.5553 -0.2416 -0.1673
 1362SOL    HW1 4867   6.935   1.085   4.432  1.0786  1.4751 -1.2859
 1362SOL    HW2 4868   7.083   1.105   4.405  1.6704  0.4574  0.9886
 1363SOL     OW 4869   4.931   4.682   7.802 -0.0037 -1.0109 -0.0038
 1363SOL    HW1 4870   4.967   4.603   7.842  0.8243  0.3433  2.1370
 1363SOL    HW2 4871   5.007   4.731   7.771 -0.2793 -0.0318  0.7899
 1364SOL     OW 4872   0.458   2.980   1.219  0.3814  0.0759 -0.2058
 1364SOL    HW1 4873   0.436   2.956   1.309  1.9580  1.2967  0.5693
 1364SOL    HW2 4874   0.391   3.044   1.194  0.7344  0.8258  0.6713
 1365SOL     OW 4875   2.672   0.102   6.633 -0.0530 -0.1813  0.1185
 1365SOL    HW1 4876   2.707   0.136   6.715 -0.2054  0.7504 -0.1902
 1365SOL    HW2 4877   2.581   0.081   6.653  0.3725 -1.6530  0.6499
 1366SOL     OW 4878   4.398   6.209   5.410  0.2710 -0.2647 -0.1113
 1366SOL    HW1 4879   4.346   6.130   5.420  0.0826 -0.2871 -1.1695
 1366SOL    HW2 4880   4.402   6.247   5.498 -0.6714 -0.7943  0.1708
 1367SOL     OW 4881   4.794   6.135   8.231  0.4247  0.2322  0.2789
 1367SOL    HW1 4882   4.713   6.104   8.272  0.8773  0.7465  1.6256
 1367SOL    HW2 4883   4.836   6.055   8.199 -0.3490 -0.0957  0.0488
 1368SOL     OW 4884   4.750   3.630   2.979  0.3012 -0.0216  0.2170
 1368SOL    HW1 4885   4.783   3.616   3.068  2.5622  2.2615 -0.1314
 1368SOL    HW2 4886   4.722   3.721   2.978 -1.3723 -0.5133 -0.9743
 1369SOL     OW 4887   6.383   7.257   5.958 -0.2423 -0.3348 -0.1044
 1369SOL    HW1 4888   6.331   7.182   5.986  1.8210 -1.4884  0.8753
 1369SOL    HW2 4889   6.472   7.236   5.987  0.3196  2.7465  0.6762
 1370SOL     OW 4890   2.793   1.256   5.569  0.3795  0.3253 -0.6879
 1370SOL    HW1 4891   2.699   1.243   5.582  0.3793 -0.6596 -1.5427
 1370SOL    HW2 4892   2.800   1.344   5.532 -0.0049  1.2305  1.2525
 1371SOL     OW 4893   7.056   1.234   6.741 -0.0713 -0.4809  0.6638
 1371SOL    HW1 4894   7.037   1.324   6.767 -0.9253 -0.9355  1.7036
 1371SOL    HW2 4895   7.070   1.188   6.824  1.0875 -1.1622  0.1160
 1372SOL     OW 4896   6.693   2.622   1.772 -0.1551 -0.1001 -0.4956
 1372SOL    HW1 4897   6.769   2.571   1.744 -0.9375 -0.7753 -1.4354
 1372SOL    HW2 4898   6.673   2.588   1.859  0.9878  0.5282  0.0380
 1373SOL     OW 4899   6.440   0.969   6.707  0.1545  0.1680 -0.0899
 1373SOL    HW1 4900   6.364   1.003   6.658 -0.9402 -1.2679  0.5356
 1373SOL    HW2 4901   6.514   0.984   6.648 -0.5528  1.7685 -0.6598
 1374SOL     OW 4902   5.567   6.661   1.442  0.1916 -0.2539 -0.2064
 1374SOL    HW1 4903   5.500   6.619   1.388 -0.6187  0.0611  0.5316
 1374SOL    HW2 4904   5.650   6.628   1.406 -0.3442 -0.6478 -1.1381
 1375SOL     OW 4905   1.999   2.970   1.875 -0.1685  0.6034  0.1011
 1375SOL    HW1 4906   2.083   2.927   1.891  0.7002  1.6727 -1.3516
 1375SOL    HW2 4907   2.015   3.028   1.801 -2.1131  1.1001  0.0067
 1376SOL     OW 4908   0.490   6.852   4.580  0.2235  0.1151 -0.7657
 1376SOL    HW1 4909   0.471   6.776   4.636  1.6672  0.2773 -0.0166
 1376SOL    HW2 4910   0.404   6.892   4.565 -0.3170 -0.4533  0.6028
 1377SOL     OW 4911   2.908   6.308   0.317  0.1455 -0.3884  1.0043
 1377SOL    HW1 4912   2.848   6.327   0.389  0.6448 -0.5700  1.4729
 1377SOL    HW2 4913   2.957   6.390   0.304 -0.8646  0.0804 -0.0340
 1378SOL     OW 4914   3.964   3.155   8.083 -0.0471  0.1854  0.2415
 1378SOL    HW1 4915   3.966   3.071   8.129  0.7826  0.5076  0.8064
 1378SOL    HW2 4916   4.027   3.146   8.012  0.3789  0.4865  0.5796
 1379SOL     OW 4917   2.424   7.650   0.422  0.4106 -0.0170 -0.4430
 1379SOL    HW1 4918   2.436   7.567   0.376 -0.2363 -0.8267  0.7821
 1379SOL    HW2 4919   2.513   7.675   0.448  0.6540 -0.1191 -1.1469
 1380SOL     OW 4920   5.288   5.451   3.665  0.0414 -0.1813  0.0421
 1380SOL    HW1 4921   5.286   5.370   3.614 -0.5565 -0.0111 -0.2063
 1380SOL    HW2 4922   5.313   5.423   3.753  1.5288 -0.4215 -0.4260
 1381SOL     OW 4923   0.880   3.480   4.115 -0.5476  0.2012  0.1054
 1381SOL    HW1 4924   0.915   3.506   4.201  0.4143  1.0685 -0.5209
 1381SOL    HW2 4925   0.908   3.389   4.105 -0.7228  0.0731  0.7412
 1382SOL     OW 4926   5.174   3.134   5.805 -0.3054 -0.0535 -0.1228
 1382SOL    HW1 4927   5.103   3.117   5.745  0.2786  1.4446 -1.3065
 1382SOL    HW2 4928   5.251   3.147   5.749  0.4998  0.2036  0.9975
 1383SOL     OW 4929   4.731   2.130   3.527 -0.0609  0.2049 -0.0769
 1383SOL    HW1 4930   4.825   2.120   3.509  0.2951 -0.5462  1.9243
 1383SOL    HW2 4931   4.717   2.224   3.529  0.4657  0.3264 -1.1464
 1384SOL     OW 4932   5.950   8.171   1.508  0.5083  0.0647 -0.1531
 1384SOL    HW1 4933   5.942   8.137   1.597  0.5676 -1.3791 -0.6757
 1384SOL    HW2 4934   5.863   8.157   1.470  0.8109 -0.4358 -0.6821
 1385SOL     OW 4935   4.580   7.283   1.631 -0.7637 -0.2629 -0.0856
 1385SOL    HW1 4936   4.523   7.351   1.595  1.0796  1.0625 -0.6258
 1385SOL    HW2 4937   4.609   7.234   1.555  2.4086  1.9711 -0.4948
 1386SOL     OW 4938   5.820   2.225   1.367  0.3483  0.1335 -0.0674
 1386SOL    HW1 4939   5.863   2.230   1.281 -0.9223 -0.4220 -0.7594
 1386SOL    HW2 4940   5.821   2.316   1.399  0.0771  0.5000 -1.0610
 1387SOL     OW 4941   4.790   4.639   3.945  0.3426  0.2211 -0.4036
 1387SOL    HW1 4942   4.823   4.628   4.035 -1.5893 -0.8792  0.2240
 1387SOL    HW2 4943   4.837   4.572   3.895  2.4609  1.7259 -0.5943
 1388SOL     OW 4944   5.278   7.101   5.500 -0.0794  0.0559 -0.2016
 1388SOL    HW1 4945   5.218   7.035   5.534 -1.0839  0.4640 -1.1307
 1388SOL    HW2 4946   5.274   7.090   5.405  2.0454 -0.5245 -0.2764
 1389SOL     OW 4947   4.996   7.106   6.465 -0.2789 -0.3398 -0.2727
 1389SOL    HW1 4948   5.054   7.130   6.537 -0.7563 -1.1523  0.4015
 1389SOL    HW2 4949   5.031   7.153   6.389 -0.1537  1.0420  0.6088
 1390SOL     OW 4950   4.583   7.636   0.051  0.5573  0.2133  0.0992
 1390SOL    HW1 4951   4.609   7.728   0.055  3.6098 -0.5186  0.0223
 1390SOL    HW2 4952   4.612   7.607  -0.036 -0.6245 -0.7673  0.0094
 1391SOL     OW 4953   2.860   3.978   2.777 -0.3626  0.1875 -0.0915
 1391SOL    HW1 4954   2.825   3.896   2.809  1.3270 -0.5064  0.1155
 1391SOL    HW2 4955   2.892   3.958   2.689  0.9508  0.3253  0.3288
 1392SOL     OW 4956   0.734   1.225   6.374 -0.1427  0.0877 -0.4847
 1392SOL    HW1 4957   0.696   1.220   6.462  2.2279  0.0455  0.6083
 1392SOL    HW2 4958   0.670   1.181   6.318 -0.8458 -1.6183  1.5267
 1393SOL     OW 4959   7.110   0.430   2.898 -0.4152 -0.1054  0.3087
 1393SOL    HW1 4960   7.064   0.492   2.842 -0.3000 -1.1746 -1.0294
 1393SOL    HW2 4961   7.171   0.385   2.839 -0.1688 -1.1537  1.3175
 1394SOL     OW 4962   4.322   2.923   7.280 -0.1701 -0.3315  0.0727
 1394SOL    HW1 4963   4.249   2.942   7.222 -0.4292 -0.0471  0.4826
 1394SOL    HW2 4964   4.367   3.007   7.292 -0.3887 -0.2889  0.6387
 1395SOL     OW 4965   4.655   1.121   7.311 -0.2510 -0.2124 -0.0180
 1395SOL    HW1 4966   4.695   1.039   7.339  0.8399  0.3670  0.1657
 1395SOL    HW2 4967   4.678   1.183   7.380 -0.3320  0.4548 -0.5813
 1396SOL     OW 4968   4.524   5.673   6.796  0.1325  0.2050  0.1365
 1396SOL    HW1 4969   4.555   5.583   6.797 -0.5850 -0.0503  0.0406
 1396SOL    HW2 4970   4.428   5.666   6.797  0.0672  0.9732  1.0619
 1397SOL     OW 4971   7.363   7.030   2.286 -0.4818 -0.6303  0.6662
 1397SOL    HW1 4972   7.426   7.057   2.219 -0.9054 -0.3039  0.3925
 1397SOL    HW2 4973   7.331   7.112   2.323 -1.1707 -0.7640  0.3989
 1398SOL     OW 4974   6.566   3.893   0.037  0.3375  0.2354 -0.0668
 1398SOL    HW1 4975   6.656   3.878   0.010  0.4280 -2.1868  1.2872
 1398SOL    HW2 4976   6.526   3.806   0.039 -2.1652  1.2528 -0.9434
 1399SOL     OW 4977   5.407   2.883   2.262  0.0241  0.2882  0.4289
 1399SOL    HW1 4978   5.357   2.820   2.211  1.0556 -1.0968  1.0814
 1399SOL    HW2 4979   5.498   2.870   2.235  0.4604  0.2410  1.8453
 1400SOL     OW 4980   5.599   3.384   0.315  0.2264  0.2599  0.5056
 1400SOL    HW1 4981   5.634   3.396   0.226  0.1877  0.9239  0.5717
 1400SOL    HW2 4982   5.655   3.439   0.370  0.4854 -0.4404  0.9558
 1401SOL     OW 4983   5.783   5.214   2.786  0.3533 -0.3544  0.5245
 1401SOL    HW1 4984   5.742   5.142   2.736 -0.1441  0.1608  0.1808
 1401SOL    HW2 4985   5.712   5.277   2.800  0.5942 -0.2815  1.5098
 1402SOL     OW 4986   7.461   3.491   5.735 -0.0832  0.7484  0.3258
 1402SOL    HW1 4987   7.552   3.476   5.708  0.0666  0.3850  1.0098
 1402SOL    HW2 4988   7.428   3.404   5.758 -0.7209  0.8259 -0.2517
 1403SOL     OW 4989   1.225   7.629   0.775  0.1426  0.3853  0.3015
 1403SOL    HW1 4990   1.210   7.535   0.768 -2.1112  0.5094  2.1874
 1403SOL    HW2 4991   1.313   7.637   0.812  0.1845 -0.9864  0.5287
 1404SOL     OW 4992   4.096   6.192   2.859 -0.2262  0.5231  0.2109
 1404SOL    HW1 4993   4.042   6.164   2.933 -0.8980 -2.1063 -1.1583
 1404SOL    HW2 4994   4.179   6.219   2.899 -1.6879  2.5327  2.1616
 1405SOL     OW 4995   6.147   6.909   0.940 -0.0082 -0.1646  0.2556
 1405SOL    HW1 4996   6.089   6.852   0.890 -0.0599  0.6096 -0.5844
 1405SOL    HW2 4997   6.173   6.856   1.016 -1.4021 -0.6963  0.3806
 1406SOL     OW 4998   1.585   5.271   6.361 -0.3558 -0.2857  0.1111
 1406SOL    HW1 4999   1.573   5.219   6.281 -0.9505  1.7118 -1.1617
 1406SOL    HW2 5000   1.617   5.208   6.425  1.3637 -1.7575 -2.0181
 1407SOL     OW 5001   5.170   5.879   0.325 -0.0653  0.3111  0.4546
 1407SOL    HW1 5002   5.134   5.822   0.393 -1.6172 -1.5079 -1.7057
 1407SOL    HW2 5003   5.093   5.904   0.273  1.2505 -0.0364 -1.7645
 1408SOL     OW 5004   1.049   2.540   5.960 -0.2222 -0.1175  0.7353
 1408SOL    HW1 5005   1.056   2.450   5.991 -0.8771 -0.6428 -0.5608
 1408SOL    HW2 5006   0.987   2.581   6.019  1.0291 -0.1190  2.1270
 1409SOL     OW 5007   0.874   4.260   5.887  0.2737 -0.1156  0.1164
 1409SOL    HW1 5008   0.793   4.211   5.877 -0.5063  1.2090 -0.2195
 1409SOL    HW2 5009   0.877   4.318   5.812  2.3422 -1.2217 -0.7441
 1410SOL     OW 5010   2.289   7.618   3.677 -0.5595  0.0478 -0.0772
 1410SOL    HW1 5011   2.297   7.629   3.582  1.3630  1.5121  0.2065
 1410SOL    HW2 5012   2.266   7.525   3.688 -0.2098 -0.2988 -1.9397
 1411SOL     OW 5013   7.790   2.777   4.737  0.0071 -0.1659 -0.1935
 1411SOL    HW1 5014   7.698   2.781   4.765  0.3565  0.5958  0.9040
 1411SOL    HW2 5015   7.797   2.847   4.672 -0.0324  0.2393  0.2319
 1412SOL     OW 5016   3.204   7.631   1.661  0.0871  0.5614 -0.0774
 1412SOL    HW1 5017   3.128   7.659   1.711  0.0523  0.5584 -0.1293
 1412SOL    HW2 5018   3.278   7.673   1.706  0.1274 -0.0242  0.4154
 1413SOL     OW 5019   0.262   2.981   4.052  0.2547 -0.0063 -0.0552
 1413SOL    HW1 5020   0.210   2.944   3.981  2.3497 -2.6128 -0.3762
 1413SOL    HW2 5021   0.303   3.059   4.014 -0.6435  0.0881 -0.8627
 1414SOL     OW 5022   0.078   2.017   2.688 -0.1035 -0.2134  0.0021
 1414SOL    HW1 5023   0.111   2.029   2.599  0.1972 -0.5286  0.0698
 1414SOL    HW2 5024  -0.013   1.990   2.676  0.0491 -0.6401 -0.2240
 1415SOL     OW 5025   1.829   5.173   8.027  0.9550  0.1423  0.1143
 1415SOL    HW1 5026   1.849   5.255   7.983  2.3002 -0.4284 -0.3738
 1415SOL    HW2 5027   1.813   5.111   7.957  1.6337 -0.4142  0.4352
 1416SOL     OW 5028   5.600   1.142   5.546 -0.2619  0.3193  0.4877
 1416SOL    HW1 5029   5.663   1.140   5.618 -0.2233  0.5674  0.4633
 1416SOL    HW2 5030   5.634   1.210   5.487  1.1066 -1.5763 -1.0533
 1417SOL     OW 5031   7.330   1.269   6.294 -0.4383 -0.2827 -0.0665
 1417SOL    HW1 5032   7.300   1.224   6.373 -0.9094  0.3790  0.1387
 1417SOL    HW2 5033   7.420   1.295   6.314 -0.4418 -0.4141  0.1211
 1418SOL     OW 5034   3.034   3.719   2.119 -0.1801 -0.3841  0.2711
 1418SOL    HW1 5035   3.043   3.782   2.191 -0.2311 -2.5508  2.2573
 1418SOL    HW2 5036   3.118   3.674   2.117 -0.9079 -1.7838  0.4136
 1419SOL     OW 5037   3.691   0.428   6.366 -0.1818  0.0556  0.1922
 1419SOL    HW1 5038   3.606   0.404   6.329 -1.0364 -0.7498  2.4802
 1419SOL    HW2 5039   3.752   0.419   6.293 -1.8882 -0.4055 -1.2574
 1420SOL     OW 5040   2.902   5.629   8.131 -0.5460  0.0368 -0.3315
 1420SOL    HW1 5041   2.869   5.599   8.046  1.2200 -1.5069 -0.5276
 1420SOL    HW2 5042   2.884   5.557   8.191 -0.5394  0.5500  0.2991
 1421SOL     OW 5043   0.474   4.967   6.277  0.2735  0.0046 -0.4886
 1421SOL    HW1 5044   0.539   4.935   6.340  0.2057 -0.6769 -0.7645
 1421SOL    HW2 5045   0.487   4.913   6.200 -0.9924 -0.5066 -0.3583
 1422SOL     OW 5046   8.283   6.503   0.495  0.3465 -0.8668 -0.0570
 1422SOL    HW1 5047   8.374   6.518   0.471  0.2798 -1.6185 -0.8342
 1422SOL    HW2 5048   8.233   6.557   0.432  0.2678  0.4391  1.0830
 1423SOL     OW 5049   3.192   7.786   7.464 -0.4804 -0.5551 -0.0838
 1423SOL    HW1 5050   3.126   7.761   7.399 -2.1521  2.6516  0.1777
 1423SOL    HW2 5051   3.158   7.753   7.547  1.2048 -3.8535 -0.5621
 1424SOL     OW 5052   0.093   0.942   2.156 -0.4840  0.0377 -0.2550
 1424SOL    HW1 5053   0.106   0.859   2.202 -3.1339 -0.5784 -0.4637
 1424SOL    HW2 5054   0.177   0.959   2.114  1.1603 -0.8322  2.4325
 1425SOL     OW 5055   3.243   7.168   3.990 -0.0511 -0.2655 -0.1296
 1425SOL    HW1 5056   3.319   7.213   3.954 -1.0256  0.3301 -1.5347
 1425SOL    HW2 5057   3.178   7.237   4.003 -1.0328 -1.0255 -0.8427
 1426SOL     OW 5058   5.138   2.367   0.493  0.0447 -0.1644  0.4521
 1426SOL    HW1 5059   5.192   2.428   0.442  1.3480 -2.6026 -1.2936
 1426SOL    HW2 5060   5.178   2.366   0.580  1.8829 -0.7063 -0.3528
 1427SOL     OW 5061   2.024   8.313   7.788  0.3647  1.1065  0.1753
 1427SOL    HW1 5062   2.001   8.389   7.842  0.8948  2.2127 -1.1010
 1427SOL    HW2 5063   1.949   8.303   7.729 -0.1384  0.0020  0.9568
 1428SOL     OW 5064   3.181   3.348   5.353 -0.4423 -0.1318  0.0032
 1428SOL    HW1 5065   3.105   3.291   5.369 -1.0318  0.7944  0.6832
 1428SOL    HW2 5066   3.228   3.349   5.436  2.1351 -3.1500 -1.2332
 1429SOL     OW 5067   4.952   6.712   2.681  0.3659 -0.3961 -0.0589
 1429SOL    HW1 5068   4.889   6.650   2.719  1.2309 -0.2895  1.6343
 1429SOL    HW2 5069   5.036   6.688   2.721  0.9108  1.1562 -0.2192
 1430SOL     OW 5070   2.136   2.775   8.309 -0.0474  0.3327 -0.1279
 1430SOL    HW1 5071   2.116   2.818   8.392 -0.7893  0.7688 -0.5163
 1430SOL    HW2 5072   2.177   2.692   8.334  0.4658  0.8080  0.6507
 1431SOL     OW 5073   8.239   0.000   0.539 -0.3959 -0.3388  0.7483
 1431SOL    HW1 5074   8.310   0.040   0.588 -0.1783  0.8440 -0.4514
 1431SOL    HW2 5075   8.277  -0.080   0.502 -0.0742 -0.3770  1.1600
 1432SOL     OW 5076   6.737   5.138   7.627 -0.4672 -0.1706 -0.0955
 1432SOL    HW1 5077   6.830   5.123   7.643 -0.5616 -0.2718  0.3971
 1432SOL    HW2 5078   6.694   5.110   7.708 -0.7939  1.2679  0.2729
 1433SOL     OW 5079   7.172   2.394   7.505 -0.2357 -0.1052  0.3541
 1433SOL    HW1 5080   7.203   2.309   7.471  0.6653  0.1912  0.4167
 1433SOL    HW2 5081   7.098   2.371   7.560  0.5468 -0.9659  1.0992
 1434SOL     OW 5082   4.329   6.828   1.004  0.1646  0.3863  0.4400
 1434SOL    HW1 5083   4.242   6.841   1.040  0.1932  0.8504  0.3554
 1434SOL    HW2 5084   4.328   6.878   0.922  0.9466  1.5546  1.1092
 1435SOL     OW 5085   4.216   2.303   7.305  0.6171 -0.2639 -0.5009
 1435SOL    HW1 5086   4.206   2.209   7.319 -3.0370 -0.3915 -2.5418
 1435SOL    HW2 5087   4.161   2.343   7.371  1.6316  0.4377 -0.0648
 1436SOL     OW 5088   0.349   6.814   0.298  0.1507  0.3463  0.1865
 1436SOL    HW1 5089   0.358   6.724   0.328 -1.0905  0.5599  1.3018
 1436SOL    HW2 5090   0.301   6.807   0.215 -0.3149 -0.0134  0.4765
 1437SOL     OW 5091   7.237   1.001   3.897  0.7468 -0.5379 -0.2360
 1437SOL    HW1 5092   7.203   0.912   3.899  2.5075 -1.2644  2.5661
 1437SOL    HW2 5093   7.322   0.994   3.854 -0.3730  0.4403 -2.8369
 1438SOL     OW 5094   5.298   5.761   7.059 -0.0184  0.7845  0.0298
 1438SOL    HW1 5095   5.245   5.825   7.106  0.7909  0.3821  1.5327
 1438SOL    HW2 5096   5.316   5.693   7.123 -1.2828 -1.2564 -1.6556
 1439SOL     OW 5097   6.434   6.122   2.061  0.0193 -0.3140  0.2425
 1439SOL    HW1 5098   6.459   6.114   1.969  0.2404 -2.3017  0.4259
 1439SOL    HW2 5099   6.480   6.199   2.092  1.3799 -0.6342 -0.8814
 1440SOL     OW 5100   6.443   3.776   4.543 -0.2571  0.6439  0.4309
 1440SOL    HW1 5101   6.358   3.748   4.512 -0.2761 -0.3123  1.3042
 1440SOL    HW2 5102   6.435   3.778   4.638  0.8889 -0.1486  0.5679
 1441SOL     OW 5103   1.860   0.600   8.134  0.1730 -0.0576  0.4847
 1441SOL    HW1 5104   1.854   0.509   8.164 -3.7897 -0.6009 -1.3506
 1441SOL    HW2 5105   1.907   0.594   8.051 -0.9607 -0.6423 -0.1374
 1442SOL     OW 5106   4.118   0.232   3.411 -0.4820 -0.0034 -0.0410
 1442SOL    HW1 5107   4.081   0.172   3.476 -1.0517  0.3312 -0.0461
 1442SOL    HW2 5108   4.061   0.309   3.414 -1.2387 -0.4354 -1.7543
 1443SOL     OW 5109   5.984   1.748   7.802 -0.2989  0.2329  0.0209
 1443SOL    HW1 5110   5.937   1.799   7.735 -0.6465  0.7937  0.6801
 1443SOL    HW2 5111   6.072   1.739   7.767  0.6995  3.9128  1.1589
 1444SOL     OW 5112   5.991   8.166   3.922  0.0533  0.4495 -0.4259
 1444SOL    HW1 5113   6.045   8.228   3.970  1.7272 -1.1897 -0.0803
 1444SOL    HW2 5114   6.014   8.181   3.830  1.1040 -0.1831 -0.2885
 1445SOL     OW 5115   7.852   4.392   8.028 -0.4910  0.1297 -0.4900
 1445SOL    HW1 5116   7.936   4.433   8.010  0.4690 -1.7099 -0.4519
 1445SOL    HW2 5117   7.824   4.429   8.111  0.3911  0.5916 -0.3897
 1446SOL     OW 5118   7.779   8.166   7.601 -0.1365  0.4269  0.8327
 1446SOL    HW1 5119   7.696   8.132   7.568  1.4861 -1.5316 -1.7412
 1446SOL    HW2 5120   7.778   8.148   7.695 -2.1927 -0.4631  0.6821
 1447SOL     OW 5121   4.168   3.360   8.303  0.5506  0.3090  0.1524
 1447SOL    HW1 5122   4.258   3.392   8.307  1.9437 -2.6872 -2.6876
 1447SOL    HW2 5123   4.123   3.421   8.245  1.8079 -0.1095 -1.3125
 1448SOL     OW 5124   5.960   8.319   4.582 -0.2875 -0.2292  0.6522
 1448SOL    HW1 5125   5.957   8.293   4.674  2.3991  0.4158  0.9996
 1448SOL    HW2 5126   5.992   8.409   4.584  0.3179 -0.3843 -0.9182
 1449SOL     OW 5127   4.684   0.110   8.301  0.6558 -0.0692 -0.1177
 1449SOL    HW1 5128   4.640   0.194   8.291  2.3020  0.7895 -0.5979
 1449SOL    HW2 5129   4.616   0.051   8.333 -0.7472  1.2286 -0.5645
 1450SOL     OW 5130   3.533   5.458   1.671  0.3025 -1.4354 -0.0884
 1450SOL    HW1 5131   3.472   5.522   1.709  1.1819 -0.4269 -0.3227
 1450SOL    HW2 5132   3.525   5.472   1.576  1.3501 -0.8273 -0.1063
 1451SOL     OW 5133   1.158   7.584   6.155 -0.9734  0.1425 -0.3099
 1451SOL    HW1 5134   1.151   7.543   6.069 -3.1870  1.6015 -0.9103
 1451SOL    HW2 5135   1.102   7.662   6.149 -0.0947  1.0460  2.0286
 1452SOL     OW 5136   3.687   1.279   4.543 -0.3933  0.8710 -0.6316
 1452SOL    HW1 5137   3.764   1.273   4.486  0.0463  2.3873 -0.2310
 1452SOL    HW2 5138   3.720   1.263   4.631 -0.6540  0.9411 -0.5198
 1453SOL     OW 5139   1.994   3.288   5.374  0.1448 -0.5427  0.4449
 1453SOL    HW1 5140   1.903   3.320   5.375  0.5456  0.9022 -1.7293
 1453SOL    HW2 5141   1.986   3.193   5.363 -1.1151 -0.4685  0.5606
 1454SOL     OW 5142   3.163   6.472   3.914  0.4231  0.0437 -0.9454
 1454SOL    HW1 5143   3.180   6.536   3.983  3.0518 -1.2723 -0.2335
 1454SOL    HW2 5144   3.108   6.406   3.956  1.2055 -0.2552 -0.3581
 1455SOL     OW 5145   7.097   5.793   3.753  0.0291  0.3421 -0.2705
 1455SOL    HW1 5146   7.024   5.844   3.788 -0.9086 -1.3628  0.3994
 1455SOL    HW2 5147   7.082   5.790   3.658 -0.1207  0.9654 -0.2664
 1456SOL     OW 5148   0.287   1.728   7.018  0.0964  0.3095  0.2066
 1456SOL    HW1 5149   0.378   1.700   7.014 -0.8717 -3.1121 -2.6052
 1456SOL    HW2 5150   0.287   1.818   6.984  2.4048  0.5562  0.7499
 1457SOL     OW 5151   3.342   3.368   1.748  0.3101  0.1472 -0.3270
 1457SOL    HW1 5152   3.397   3.379   1.671  0.9694 -0.1990  0.0809
 1457SOL    HW2 5153   3.400   3.390   1.822  0.3385 -1.5983  0.2128
 1458SOL     OW 5154   5.295   4.420   3.700 -0.2436  0.0274 -0.3365
 1458SOL    HW1 5155   5.332   4.474   3.630  1.4096 -1.2011 -0.4664
 1458SOL    HW2 5156   5.204   4.404   3.672 -0.2750  1.3424 -1.0859
 1459SOL     OW 5157   0.073   2.121   3.928 -0.2098 -0.7130  0.8936
 1459SOL    HW1 5158   0.054   2.101   3.837  1.9206 -1.4690  0.5767
 1459SOL    HW2 5159   0.094   2.037   3.968 -2.1270 -0.5538  2.3935
 1460SOL     OW 5160   5.132   1.789   6.738  0.1578 -0.1879  0.4182
 1460SOL    HW1 5161   5.226   1.771   6.739  0.0748 -0.7802 -0.6463
 1460SOL    HW2 5162   5.091   1.704   6.719 -0.6424 -0.0721  1.5137
 1461SOL     OW 5163   4.339   7.554   3.677  0.0423 -0.0171 -0.1486
 1461SOL    HW1 5164   4.321   7.644   3.652  1.9176  0.9599  1.6703
 1461SOL    HW2 5165   4.374   7.513   3.598  0.4847  1.2739 -0.6433
 1462SOL     OW 5166   4.154   4.345   6.104  0.1764  0.3093 -0.6055
 1462SOL    HW1 5167   4.134   4.391   6.023  0.1861  1.5176  0.0578
 1462SOL    HW2 5168   4.219   4.279   6.080  1.2157  1.5698 -1.3306
 1463SOL     OW 5169   0.490   6.699   1.222 -0.7161  0.5421  0.2787
 1463SOL    HW1 5170   0.575   6.715   1.262 -1.5318  1.2751  1.8070
 1463SOL    HW2 5171   0.463   6.614   1.255 -1.3201  1.0773  1.2115
 1464SOL     OW 5172   1.298   8.119   8.115 -0.8968  0.3810 -0.4760
 1464SOL    HW1 5173   1.319   8.060   8.187  0.1191  0.8462 -0.3684
 1464SOL    HW2 5174   1.217   8.162   8.142 -1.0594 -0.1742 -0.0697
 1465SOL     OW 5175   0.019   1.686   3.658 -0.0591  0.7945  0.2097
 1465SOL    HW1 5176  -0.057   1.661   3.605 -0.1127  0.0102  0.6437
 1465SOL    HW2 5177   0.010   1.635   3.739  1.7582 -0.5563 -0.3706
 1466SOL     OW 5178   8.041   5.603   6.052  0.1213  0.3297 -0.0925
 1466SOL    HW1 5179   7.993   5.620   5.970  0.7810  1.4037 -0.2839
 1466SOL    HW2 5180   8.120   5.657   6.044  0.4341  0.0515  1.0410
 1467SOL     OW 5181   3.391   0.405   2.525 -0.3205  0.6057 -0.2288
 1467SOL    HW1 5182   3.472   0.447   2.553 -0.8296 -0.0982  2.5893
 1467SOL    HW2 5183   3.321   0.464   2.553 -0.8590  0.8960 -2.0422
 1468SOL     OW 5184   0.893   0.552   4.362 -0.3511 -0.1917 -0.0163
 1468SOL    HW1 5185   0.836   0.615   4.318 -1.0653  0.3172  1.5753
 1468SOL    HW2 5186   0.975   0.599   4.374 -1.0614  0.7024  1.6785
 1469SOL     OW 5187   2.149   7.716   7.467  0.3155 -0.0723 -0.0924
 1469SOL    HW1 5188   2.119   7.626   7.452 -1.2154  0.3010  0.5297
 1469SOL    HW2 5189   2.114   7.766   7.394 -1.0273  0.4466  0.8614
 1470SOL     OW 5190   6.212   6.985   4.581  0.1677 -0.7462 -0.1054
 1470SOL    HW1 5191   6.271   6.946   4.516  0.4097  0.7442 -0.8215
 1470SOL    HW2 5192   6.127   6.986   4.537  0.4165  0.6557 -0.6058
 1471SOL     OW 5193   3.238   4.304   2.442  0.3375  0.7669 -0.0981
 1471SOL    HW1 5194   3.293   4.302   2.364 -1.5508  2.1038 -1.5649
 1471SOL    HW2 5195   3.149   4.317   2.409 -1.0017 -1.6988  2.1260
 1472SOL     OW 5196   5.587   0.591   8.237  0.4037 -0.2138 -0.6271
 1472SOL    HW1 5197   5.533   0.669   8.242 -1.2670 -1.2857 -0.9915
 1472SOL    HW2 5198   5.646   0.598   8.312 -0.9197  0.5377  0.3939
 1473SOL     OW 5199   0.396   6.015   2.889 -0.4779 -0.4627  0.2463
 1473SOL    HW1 5200   0.458   6.078   2.924  0.7586 -2.1286  1.1916
 1473SOL    HW2 5201   0.318   6.066   2.868  0.8451  1.5254 -0.0456
 1474SOL     OW 5202   7.725   1.231   5.026  0.1424 -0.2711 -0.3298
 1474SOL    HW1 5203   7.672   1.310   5.019  0.1869 -0.0921  1.1118
 1474SOL    HW2 5204   7.772   1.240   5.109 -0.4598 -2.1644  0.2781
 1475SOL     OW 5205   4.357   6.629   0.659 -0.2869  0.5285 -0.1165
 1475SOL    HW1 5206   4.412   6.550   0.656 -1.1304 -0.0557 -2.4359
 1475SOL    HW2 5207   4.390   6.684   0.588 -0.0218  2.1154  1.1734
 1476SOL     OW 5208   0.134   6.343   6.712 -0.6092  0.6004  0.0509
 1476SOL    HW1 5209   0.085   6.266   6.739 -0.2659  0.3108 -0.1370
 1476SOL    HW2 5210   0.161   6.384   6.795  0.9739 -0.6280  0.2039
 1477SOL     OW 5211   7.502   5.537   0.902 -0.2104 -0.7896 -0.0905
 1477SOL    HW1 5212   7.467   5.533   0.813  0.9663 -2.4952 -0.5254
 1477SOL    HW2 5213   7.457   5.467   0.948  0.3406 -0.9487  0.2133
 1478SOL     OW 5214   2.413   5.567   5.925  0.2297 -0.2335  0.0971
 1478SOL    HW1 5215   2.335   5.607   5.888 -0.7742 -0.9061  1.4089
 1478SOL    HW2 5216   2.429   5.490   5.871  0.7301  0.5665 -0.9241
 1479SOL     OW 5217   6.125   3.053   2.396  0.2433 -0.8530 -0.0363
 1479SOL    HW1 5218   6.088   3.050   2.308  1.7582  0.0108 -0.7465
 1479SOL    HW2 5219   6.072   2.991   2.447 -3.1599  1.4164 -0.5218
 1480SOL     OW 5220   3.219   3.059   5.282  0.4039 -0.0774 -0.3024
 1480SOL    HW1 5221   3.288   3.115   5.317 -0.3261  0.3296  0.5360
 1480SOL    HW2 5222   3.156   3.052   5.353 -0.3587 -0.5467 -1.0079
 1481SOL     OW 5223   1.505   8.065   4.984  0.0942 -0.2678 -0.2215
 1481SOL    HW1 5224   1.463   7.986   5.018  0.0291 -0.4441 -0.7037
 1481SOL    HW2 5225   1.472   8.136   5.039  0.3805 -0.6141  0.4006
 1482SOL     OW 5226   2.472   4.201   6.966 -0.2374  0.1842  0.0492
 1482SOL    HW1 5227   2.522   4.273   7.005  0.5284  0.7376 -1.8454
 1482SOL    HW2 5228   2.523   4.123   6.987 -0.5078  0.3010  1.2075
 1483SOL     OW 5229   4.119   0.637   8.091  0.8409  0.0938 -0.2176
 1483SOL    HW1 5230   4.119   0.710   8.029  1.1399  1.2771  1.1332
 1483SOL    HW2 5231   4.189   0.658   8.153  0.6660 -1.1504  0.4327
 1484SOL     OW 5232   8.019   3.581   4.669  0.4105  0.1699 -0.2643
 1484SOL    HW1 5233   8.047   3.513   4.609 -2.5898 -1.3248 -0.1462
 1484SOL    HW2 5234   7.986   3.651   4.613 -0.0577 -0.1391 -0.3750
 1485SOL     OW 5235   1.793   1.789   6.281  0.1706  0.0832 -0.2907
 1485SOL    HW1 5236   1.747   1.708   6.260 -1.9477  1.1874 -0.1732
 1485SOL    HW2 5237   1.798   1.837   6.198  3.0226 -0.8291 -0.7689
 1486SOL     OW 5238   4.060   5.355   3.245 -0.1949 -0.6514  0.0957
 1486SOL    HW1 5239   4.053   5.386   3.336  0.2385  0.5860 -0.2770
 1486SOL    HW2 5240   4.153   5.337   3.233 -0.1525 -0.1520 -0.3186
 1487SOL     OW 5241   3.593   1.856   2.163  0.2171  0.0163  0.1216
 1487SOL    HW1 5242   3.686   1.833   2.162  0.2956  0.3358 -0.7548
 1487SOL    HW2 5243   3.563   1.831   2.250  1.4014  1.0258  0.8425
 1488SOL     OW 5244   0.588   1.616   1.299  0.2938  0.3020  0.4082
 1488SOL    HW1 5245   0.514   1.667   1.330 -0.6450 -0.3451 -0.6970
 1488SOL    HW2 5246   0.624   1.575   1.377  0.3404  1.6905  1.1417
 1489SOL     OW 5247   4.832   7.942   6.703 -0.2692  0.4074  0.0764
 1489SOL    HW1 5248   4.903   7.975   6.758 -1.1651  1.3212  0.7303
 1489SOL    HW2 5249   4.855   7.968   6.614  0.9244 -0.5964  0.0681
 1490SOL     OW 5250   4.218   3.830   7.649  0.2493  0.3958  0.1891
 1490SOL    HW1 5251   4.269   3.765   7.697 -1.0664 -0.1088  0.9546
 1490SOL    HW2 5252   4.165   3.779   7.588 -0.6268  0.7469  0.6312
 1491SOL     OW 5253   0.899   5.112   6.233  1.0606  0.0163  0.1296
 1491SOL    HW1 5254   0.869   5.082   6.319 -0.1594 -0.6877 -0.5145
 1491SOL    HW2 5255   0.936   5.199   6.249 -1.8557  1.2129  0.9141
 1492SOL     OW 5256   2.215   7.827   4.380 -0.2092 -0.2885  0.0232
 1492SOL    HW1 5257   2.241   7.777   4.303  0.3874  0.7706 -0.4821
 1492SOL    HW2 5258   2.257   7.783   4.453 -0.1269 -0.8358 -0.3503
 1493SOL     OW 5259   2.646   5.583   4.191  0.2198  0.4184  0.3767
 1493SOL    HW1 5260   2.619   5.658   4.244 -0.1967 -0.0925  0.8961
 1493SOL    HW2 5261   2.711   5.537   4.244  1.1420  0.8879 -0.3071
 1494SOL     OW 5262   3.558   6.863   1.487 -0.1276  0.4217  0.7606
 1494SOL    HW1 5263   3.609   6.821   1.557 -0.7001 -1.6559  0.0113
 1494SOL    HW2 5264   3.467   6.855   1.516 -0.3170  0.1633  0.1245
 1495SOL     OW 5265   1.872   2.026   7.099  0.6957  0.0408 -0.2012
 1495SOL    HW1 5266   1.852   1.967   7.026 -1.9395  2.0928 -1.3144
 1495SOL    HW2 5267   1.841   1.979   7.176  2.4179 -1.6638 -0.4833
 1496SOL     OW 5268   7.108   6.760   4.758 -0.0944  0.4724  0.2420
 1496SOL    HW1 5269   7.101   6.678   4.710  0.4569 -0.7898  2.1874
 1496SOL    HW2 5270   7.041   6.754   4.826 -0.0271  1.6284  0.4322
 1497SOL     OW 5271   6.702   6.000   3.165  1.2457  0.3875  0.0814
 1497SOL    HW1 5272   6.705   6.071   3.230  0.4730  0.1717  0.3627
 1497SOL    HW2 5273   6.787   6.006   3.120  0.8088  2.1551 -0.6091
 1498SOL     OW 5274   2.612   7.675   2.207  0.3473 -0.5962  0.1772
 1498SOL    HW1 5275   2.607   7.652   2.114 -1.5877 -0.3959  0.1805
 1498SOL    HW2 5276   2.554   7.612   2.250 -0.1767  0.4104  1.0011
 1499SOL     OW 5277   3.021   5.638   4.856  0.1242 -0.1838  0.5328
 1499SOL    HW1 5278   2.988   5.722   4.825 -0.3116 -0.1179  1.1514
 1499SOL    HW2 5279   2.948   5.600   4.905  1.0361  0.0868  2.1768
 1500SOL     OW 5280   0.561   2.190   1.219  0.3587 -0.3709  0.1808
 1500SOL    HW1 5281   0.500   2.150   1.158  1.1701 -0.3484 -0.6703
 1500SOL    HW2 5282   0.514   2.265   1.255 -1.0236 -1.7796  1.4626
 1501SOL     OW 5283   1.310   6.271   6.598 -0.2126 -0.5202  0.3880
 1501SOL    HW1 5284   1.268   6.343   6.551  0.8587 -0.2561 -0.1889
 1501SOL    HW2 5285   1.402   6.295   6.603 -0.1329 -1.0355  1.7551
 1502SOL     OW 5286   1.561   2.558   0.834 -0.0671 -0.1930  0.3953
 1502SOL    HW1 5287   1.646   2.576   0.874  0.0387 -0.0416  0.1036
 1502SOL    HW2 5288   1.566   2.598   0.747  0.5501 -2.4258 -0.6940
 1503SOL     OW 5289   5.733   6.269   0.569  0.2559 -0.2471  0.9064
 1503SOL    HW1 5290   5.704   6.357   0.595 -1.8839 -1.2328  2.1308
 1503SOL    HW2 5291   5.653   6.226   0.537  1.4064 -1.5260 -0.4006
 1504SOL     OW 5292   2.037   4.860   6.593  0.4815 -0.0861  0.3099
 1504SOL    HW1 5293   1.977   4.918   6.640  1.5414  0.8000  0.6085
 1504SOL    HW2 5294   2.025   4.774   6.635  1.8970  0.8105  2.7300
 1505SOL     OW 5295   3.881   5.241   0.137  0.0626 -0.7518  0.6629
 1505SOL    HW1 5296   3.846   5.326   0.109 -0.6243 -0.9132  1.0114
 1505SOL    HW2 5297   3.807   5.181   0.129  0.9125 -1.6524 -1.0015
 1506SOL     OW 5298   2.164   0.891   2.502 -0.8947 -0.4028 -0.1138
 1506SOL    HW1 5299   2.118   0.971   2.524 -0.2727 -0.0074 -0.2214
 1506SOL    HW2 5300   2.157   0.885   2.406  0.1197  0.2026 -0.2484
 1507SOL     OW 5301   7.897   8.113   5.231 -0.3920 -0.5808 -0.4074
 1507SOL    HW1 5302   7.890   8.180   5.162  0.4547 -2.2149 -2.1851
 1507SOL    HW2 5303   7.879   8.031   5.186 -0.5525 -1.6650  1.5318
 1508SOL     OW 5304   0.169   1.462   5.870 -0.3526 -0.2348 -0.2874
 1508SOL    HW1 5305   0.256   1.424   5.858  0.1728  1.1613 -0.9966
 1508SOL    HW2 5306   0.109   1.388   5.859  0.7655 -1.5240  1.6302
 1509SOL     OW 5307   2.366   2.263   4.203 -0.6692 -0.3441  0.0386
 1509SOL    HW1 5308   2.447   2.236   4.160 -0.3316 -2.8087  1.9984
 1509SOL    HW2 5309   2.347   2.350   4.166  3.5737  1.0000  0.4790
 1510SOL     OW 5310   0.935   4.667   4.001 -0.0040 -0.3242 -0.0410
 1510SOL    HW1 5311   0.970   4.578   3.999  1.0381 -0.0284  2.2942
 1510SOL    HW2 5312   0.840   4.655   3.993  0.2390 -1.2132 -4.9719
 1511SOL     OW 5313   5.992   8.316   7.598  0.5285  0.5019  0.0635
 1511SOL    HW1 5314   5.906   8.357   7.600 -0.3664 -1.2691  2.6327
 1511SOL    HW2 5315   6.020   8.312   7.689  1.7308 -2.1269 -0.3214
 1512SOL     OW 5316   1.570   8.047   0.376 -0.1612  0.2960 -0.1127
 1512SOL    HW1 5317   1.587   7.960   0.413  0.6216  0.6714  0.4217
 1512SOL    HW2 5318   1.489   8.036   0.327 -2.1180  0.0626  2.8668
 1513SOL     OW 5319   4.680   5.595   1.853  0.3245 -0.0429  0.2655
 1513SOL    HW1 5320   4.689   5.690   1.850  2.9525 -0.2245  0.1594
 1513SOL    HW2 5321   4.714   5.570   1.939 -0.4655 -0.8973  0.3475
 1514SOL     OW 5322   0.046   3.626   4.614  0.1176  0.2164 -0.1989
 1514SOL    HW1 5323  -0.033   3.666   4.650 -0.2919 -0.8521  0.1045
 1514SOL    HW2 5324   0.017   3.543   4.578  0.5908  0.9866 -2.5735
 1515SOL     OW 5325   5.162   4.777   6.872 -0.1697  0.7787  0.3167
 1515SOL    HW1 5326   5.089   4.776   6.810  0.0288 -1.1487  0.0585
 1515SOL    HW2 5327   5.123   4.746   6.954  0.5842 -1.7099 -0.1818
 1516SOL     OW 5328   7.593   7.269   4.759  0.0375  0.2762 -0.3023
 1516SOL    HW1 5329   7.649   7.347   4.762 -0.2657  0.4848  0.0248
 1516SOL    HW2 5330   7.511   7.297   4.798  0.4524 -0.6374  1.3191
 1517SOL     OW 5331   2.981   5.953   3.207 -0.1053  0.2674 -0.5493
 1517SOL    HW1 5332   2.990   5.870   3.255 -0.7443  1.2933  1.4911
 1517SOL    HW2 5333   3.028   5.939   3.125  1.3558 -1.5163  0.5140
 1518SOL     OW 5334   1.024   2.281   4.118  0.2521 -0.3141  0.2195
 1518SOL    HW1 5335   0.945   2.299   4.169  0.0815  0.1944 -0.2170
 1518SOL    HW2 5336   1.067   2.210   4.165 -0.7023 -0.9155  0.2051
 1519SOL     OW 5337   7.258   0.611   7.337  1.1077  0.4047 -0.1049
 1519SOL    HW1 5338   7.310   0.544   7.381  0.3678 -1.3005 -1.6766
 1519SOL    HW2 5339   7.169   0.599   7.371  0.7309 -0.2591 -1.2838
 1520SOL     OW 5340   8.190   6.875   2.832 -0.1572 -0.4848 -0.1068
 1520SOL    HW1 5341   8.265   6.861   2.774 -0.3717 -1.0554 -0.2553
 1520SOL    HW2 5342   8.143   6.792   2.831 -0.0436 -0.5854  1.0732
 1521SOL     OW 5343   2.776   3.263   5.241  0.3574 -0.4116 -0.5923
 1521SOL    HW1 5344   2.744   3.353   5.248  1.9741  0.2280 -1.0126
 1521SOL    HW2 5345   2.743   3.233   5.157 -0.9639 -0.5672 -0.0506
 1522SOL     OW 5346   0.073   6.538   4.705  0.9719  0.0434  0.9149
 1522SOL    HW1 5347   0.026   6.538   4.788 -1.7643 -0.8595 -0.4986
 1522SOL    HW2 5348   0.069   6.628   4.674  1.4247  0.2478  1.4429
 1523SOL     OW 5349   0.688   7.517   4.650  0.3368  0.7984  0.1521
 1523SOL    HW1 5350   0.632   7.565   4.711 -0.9772  0.7420 -0.9265
 1523SOL    HW2 5351   0.762   7.488   4.702 -0.8850  0.4557  1.7948
 1524SOL     OW 5352   3.572   3.213   6.922  0.1074  0.2014 -0.0813
 1524SOL    HW1 5353   3.581   3.304   6.894 -0.7454  0.4446  0.3775
 1524SOL    HW2 5354   3.533   3.169   6.847  0.0972  0.3128 -0.1420
 1525SOL     OW 5355   4.882   1.720   4.844  0.2627 -0.1383  0.2521
 1525SOL    HW1 5356   4.944   1.658   4.806  1.5454  0.6754  0.9309
 1525SOL    HW2 5357   4.813   1.666   4.883 -1.0031 -1.0321 -2.8960
 1526SOL     OW 5358   4.990   1.676   2.272  0.0150 -0.2248 -0.1467
 1526SOL    HW1 5359   5.000   1.771   2.278  0.6833 -0.2876 -0.2028
 1526SOL    HW2 5360   5.053   1.649   2.206 -1.4717 -0.5133 -1.5078
 1527SOL     OW 5361   1.792   1.298   2.285 -0.2071 -0.5612  0.2978
 1527SOL    HW1 5362   1.707   1.254   2.295 -0.6816  0.2923  0.0611
 1527SOL    HW2 5363   1.808   1.337   2.371  0.1952 -1.1426  0.4948
 1528SOL     OW 5364   0.952   1.325   3.742  0.3041  0.0944 -0.2685
 1528SOL    HW1 5365   1.038   1.306   3.779  0.2267  0.6257  0.1801
 1528SOL    HW2 5366   0.891   1.319   3.815  0.4080  3.2067  0.1985
 1529SOL     OW 5367   0.249   0.515   8.102 -0.0768 -0.0039 -0.3715
 1529SOL    HW1 5368   0.303   0.445   8.065 -2.1722 -1.3210 -1.0448
 1529SOL    HW2 5369   0.300   0.595   8.086  0.4516 -0.8488 -3.5180
 1530SOL     OW 5370   3.004   3.014   2.030  0.3777  0.2255  0.0502
 1530SOL    HW1 5371   3.066   2.968   1.973 -0.0244 -0.1592 -0.0776
 1530SOL    HW2 5372   2.970   2.946   2.088  1.5054  0.7763  1.4206
 1531SOL     OW 5373   4.429   6.787   7.199 -0.0893  0.2075  0.5331
 1531SOL    HW1 5374   4.404   6.879   7.211 -0.3543  0.0998  0.8169
 1531SOL    HW2 5375   4.449   6.756   7.287 -0.9464 -0.2746  0.5703
 1532SOL     OW 5376   7.637   4.811   7.202  0.4031  0.1838 -0.1032
 1532SOL    HW1 5377   7.595   4.879   7.256  1.3327  0.1143  0.7293
 1532SOL    HW2 5378   7.577   4.736   7.208 -0.6274  0.9033 -1.0249
 1533SOL     OW 5379   5.264   1.773   1.049  0.2166  0.0686 -0.4696
 1533SOL    HW1 5380   5.168   1.773   1.051  0.1951 -1.1033  1.4939
 1533SOL    HW2 5381   5.289   1.860   1.080 -0.1835  0.7443 -1.9953
 1534SOL     OW 5382   5.964   3.098   3.415 -0.0226  0.0071 -0.5417
 1534SOL    HW1 5383   5.961   3.155   3.338 -1.0510 -0.9255 -1.2146
 1534SOL    HW2 5384   5.904   3.139   3.478  0.6002  0.6129 -0.3275
 1535SOL     OW 5385   1.327   7.174   5.475 -0.1650  0.5849 -0.0819
 1535SOL    HW1 5386   1.404   7.123   5.452  0.7457  2.0823 -0.5319
 1535SOL    HW2 5387   1.298   7.212   5.392 -0.7932  0.8254  0.2399
 1536SOL     OW 5388   3.265   0.873   4.608  0.4987 -0.1186  0.4722
 1536SOL    HW1 5389   3.339   0.890   4.550  0.0459  1.9732  0.4374
 1536SOL    HW2 5390   3.276   0.782   4.635  1.6375 -0.6498 -1.5701
 1537SOL     OW 5391   4.261   4.966   7.099  0.3517  0.2037  0.4907
 1537SOL    HW1 5392   4.271   5.037   7.036 -0.0800  0.7294  0.9971
 1537SOL    HW2 5393   4.193   4.910   7.063 -0.1072  0.6646  0.6222
 1538SOL     OW 5394   7.489   3.291   1.418 -0.5606  0.1506  0.5775
 1538SOL    HW1 5395   7.534   3.250   1.492  1.9014  0.3623 -0.7083
 1538SOL    HW2 5396   7.533   3.376   1.407 -1.5281  0.5265 -0.5369
 1539SOL     OW 5397   5.511   7.041   0.674 -0.1143  0.2311  0.2334
 1539SOL    HW1 5398   5.590   7.007   0.715  0.8513 -0.1128 -1.7848
 1539SOL    HW2 5399   5.457   6.963   0.658 -0.8747  0.4608  1.5802
 1540SOL     OW 5400   4.254   5.180   5.452 -0.2726 -0.3164  0.2175
 1540SOL    HW1 5401   4.192   5.122   5.496 -1.1262  0.5238  0.1558
 1540SOL    HW2 5402   4.314   5.208   5.521 -1.9532  1.4634  1.0459
 1541SOL     OW 5403   6.472   5.917   8.053 -0.1480  0.3119  0.1026
 1541SOL    HW1 5404   6.551   5.871   8.025  0.0315 -0.0563  1.1603
 1541SOL    HW2 5405   6.412   5.911   7.978  0.4995 -0.1602 -0.3836
 1542SOL     OW 5406   3.208   3.070   0.731  0.2775 -0.0436 -0.1822
 1542SOL    HW1 5407   3.300   3.062   0.706  0.6250  1.1695  0.5887
 1542SOL    HW2 5408   3.200   3.161   0.761 -0.8333 -0.5409  1.0964
 1543SOL     OW 5409   6.173   0.061   0.607 -0.1140 -0.2964 -0.0756
 1543SOL    HW1 5410   6.165  -0.032   0.628  1.7107 -0.3132  0.7212
 1543SOL    HW2 5411   6.134   0.069   0.520  0.5816 -2.0099 -0.6016
 1544SOL     OW 5412   0.451   7.231   7.216 -0.0973  0.0959 -0.1107
 1544SOL    HW1 5413   0.360   7.205   7.229 -0.1703  0.3698 -0.0558
 1544SOL    HW2 5414   0.498   7.149   7.199 -0.4590  0.0168 -0.7653
 1545SOL     OW 5415   2.438   3.718   4.546 -0.6514  0.2667 -0.3614
 1545SOL    HW1 5416   2.532   3.698   4.543 -0.6352  0.1985  0.4340
 1545SOL    HW2 5417   2.397   3.647   4.495 -0.2688  0.3553 -0.8015
 1546SOL     OW 5418   1.109   2.663   5.134  0.0237 -0.0127  0.1216
 1546SOL    HW1 5419   1.032   2.710   5.167  0.6489  1.3587 -0.2926
 1546SOL    HW2 5420   1.073   2.591   5.083 -0.9703 -0.4647  1.3941
 1547SOL     OW 5421   7.350   7.772   6.467 -0.3045  0.1283  0.3302
 1547SOL    HW1 5422   7.372   7.857   6.430  2.0179  0.1626  1.6517
 1547SOL    HW2 5423   7.434   7.730   6.483 -1.3547 -1.6913  1.4071
 1548SOL     OW 5424   7.397   1.356   8.135 -0.2300 -0.0979 -0.2635
 1548SOL    HW1 5425   7.366   1.434   8.090 -1.9433 -0.8728 -0.4982
 1548SOL    HW2 5426   7.368   1.283   8.080  1.3356 -0.9281 -0.0577
 1549SOL     OW 5427   3.493   1.027   7.555 -0.0893  0.3176  0.1990
 1549SOL    HW1 5428   3.491   0.942   7.510 -0.2751  1.5496 -2.2649
 1549SOL    HW2 5429   3.420   1.076   7.517  0.6633  1.9601  0.7979
 1550SOL     OW 5430   6.743   1.777   7.024 -0.0182  0.7469  0.0516
 1550SOL    HW1 5431   6.793   1.842   7.073  1.5084 -0.7976  0.6663
 1550SOL    HW2 5432   6.709   1.718   7.091 -2.9291  1.8313 -0.3276
 1551SOL     OW 5433   7.482   3.239   1.140  0.7491  0.5100 -0.0356
 1551SOL    HW1 5434   7.481   3.265   1.232  1.5008  2.4401 -0.5338
 1551SOL    HW2 5435   7.548   3.169   1.136  0.9181  0.6027  0.8332
 1552SOL     OW 5436   0.145   2.291   1.172  0.3840 -0.0529  0.0335
 1552SOL    HW1 5437   0.182   2.277   1.259  1.0011 -0.4885 -0.2892
 1552SOL    HW2 5438   0.051   2.282   1.184  0.2489  2.2118  1.0890
 1553SOL     OW 5439   3.241   5.344   5.735 -0.0655  0.4974  0.2327
 1553SOL    HW1 5440   3.185   5.271   5.761 -0.2238  0.2443 -0.7735
 1553SOL    HW2 5441   3.268   5.384   5.817  0.9114 -1.3404  0.8629
 1554SOL     OW 5442   0.482   3.318   7.185 -0.0275 -0.2842 -0.4760
 1554SOL    HW1 5443   0.460   3.268   7.264 -0.3561  0.3149 -0.1821
 1554SOL    HW2 5444   0.431   3.275   7.115 -0.7466 -0.0166 -0.1215
 1555SOL     OW 5445   1.819   5.636   2.400 -0.1027  0.3325  0.6370
 1555SOL    HW1 5446   1.735   5.621   2.442  0.0517  0.3410  0.9469
 1555SOL    HW2 5447   1.877   5.571   2.438 -0.2284 -0.3933 -0.3587
 1556SOL     OW 5448   5.672   7.427   5.593 -0.0808 -0.3601 -0.5606
 1556SOL    HW1 5449   5.731   7.501   5.581 -0.3502  0.0269  0.3842
 1556SOL    HW2 5450   5.584   7.466   5.593 -0.1696 -0.4630  1.2737
 1557SOL     OW 5451   2.062   5.748   6.360  0.2535 -0.6538  0.1982
 1557SOL    HW1 5452   2.127   5.818   6.359  3.1130 -3.0927 -0.3612
 1557SOL    HW2 5453   2.018   5.755   6.276 -0.3359  1.1148  0.6166
 1558SOL     OW 5454   7.196   1.322   7.826 -0.0334  0.0796 -0.5963
 1558SOL    HW1 5455   7.193   1.390   7.893 -0.1491  0.0711 -0.5930
 1558SOL    HW2 5456   7.226   1.244   7.871  1.5721  0.4822 -0.8918
 1559SOL     OW 5457   3.410   4.917   4.604  0.3839  0.6169 -0.4032
 1559SOL    HW1 5458   3.462   4.845   4.638 -0.3538 -0.2940 -1.1336
 1559SOL    HW2 5459   3.472   4.970   4.554  1.4752  1.9506  2.2067
 1560SOL     OW 5460   5.336   4.275   4.832  0.2496  0.1518  0.3908
 1560SOL    HW1 5461   5.287   4.356   4.846  1.3342  0.8759  0.0836
 1560SOL    HW2 5462   5.331   4.259   4.738  0.0544 -0.1293  0.4478
 1561SOL     OW 5463   2.358   3.510   4.389  0.3067  0.3338 -0.0332
 1561SOL    HW1 5464   2.360   3.430   4.442 -0.3346  0.2052 -0.1993
 1561SOL    HW2 5465   2.354   3.479   4.299 -0.6788  0.5467 -0.0720
 1562SOL     OW 5466   4.666   5.723   5.677  0.3368  0.0726 -0.7768
 1562SOL    HW1 5467   4.594   5.739   5.615 -0.2406 -0.2287 -0.1965
 1562SOL    HW2 5468   4.745   5.726   5.623 -0.1222  0.2522 -1.4543
 1563SOL     OW 5469   2.639   1.484   6.388 -0.1550 -0.1492  0.1757
 1563SOL    HW1 5470   2.610   1.518   6.304 -1.3086 -0.9995  0.2050
 1563SOL    HW2 5471   2.727   1.452   6.372  0.0052  0.5840 -0.4572
 1564SOL     OW 5472   5.763   7.213   7.181  0.7905 -0.1137 -0.5811
 1564SOL    HW1 5473   5.830   7.144   7.183  1.4868  0.5352 -1.0251
 1564SOL    HW2 5474   5.810   7.291   7.150  0.2072  0.7650  0.6542
 1565SOL     OW 5475   2.232   7.088   3.389  0.2685  0.1782 -0.4032
 1565SOL    HW1 5476   2.304   7.150   3.396  0.1947  0.5053 -2.1175
 1565SOL    HW2 5477   2.264   7.010   3.434  0.3340  1.4238  1.8568
 1566SOL     OW 5478   4.030   3.983   8.239  0.3024  0.7020 -0.6018
 1566SOL    HW1 5479   4.029   4.057   8.299  2.1680 -0.6080  1.1357
 1566SOL    HW2 5480   4.104   4.000   8.181  1.2086 -0.1111  0.2797
 1567SOL     OW 5481   4.371   4.161   3.883  0.4693  0.4613 -0.5550
 1567SOL    HW1 5482   4.383   4.111   3.963 -1.0911 -0.2344 -0.7110
 1567SOL    HW2 5483   4.460   4.173   3.848  1.0174 -0.8255  0.3167
 1568SOL     OW 5484   7.533   4.326   7.676  0.3379  0.6659 -0.4020
 1568SOL    HW1 5485   7.574   4.262   7.735 -0.5292  0.2588 -0.2297
 1568SOL    HW2 5486   7.507   4.398   7.734 -0.1010  0.4714 -0.3590
 1569SOL     OW 5487   7.714   7.939   1.346  0.3069  0.0023 -0.4096
 1569SOL    HW1 5488   7.642   7.876   1.344  0.5826 -0.4491  1.6664
 1569SOL    HW2 5489   7.685   8.007   1.407  0.9637  0.7035 -0.8521
 1570SOL     OW 5490   3.446   7.962   4.066 -0.1312  0.4118 -0.0455
 1570SOL    HW1 5491   3.445   8.003   4.152  1.0153 -1.3557  0.8675
 1570SOL    HW2 5492   3.432   7.869   4.083 -0.3633  0.0805 -1.8248
 1571SOL     OW 5493   0.958   2.580   5.649 -0.1777  0.5152  0.9867
 1571SOL    HW1 5494   1.047   2.553   5.624 -1.1071  1.2866 -4.0625
 1571SOL    HW2 5495   0.916   2.499   5.676  0.3090 -1.3443 -3.0802
 1572SOL     OW 5496   2.069   0.027   5.044 -0.3049 -0.1679  0.0765
 1572SOL    HW1 5497   2.060  -0.067   5.024  0.2658 -0.1756 -0.1507
 1572SOL    HW2 5498   2.051   0.071   4.961 -1.2981 -0.0331  0.3503
 1573SOL     OW 5499   0.353   4.404   2.171  0.1896 -0.2394 -0.1523
 1573SOL    HW1 5500   0.380   4.496   2.161  0.2559 -0.2375  0.0339
 1573SOL    HW2 5501   0.432   4.361   2.205  0.6051 -0.6427 -1.5711
 1574SOL     OW 5502   4.788   6.279   7.251 -0.2667 -0.2578  0.7113
 1574SOL    HW1 5503   4.848   6.306   7.320 -1.4015 -0.5263  1.8396
 1574SOL    HW2 5504   4.793   6.183   7.250  1.2264 -0.2217 -0.9810
 1575SOL     OW 5505   2.812   1.527   2.151 -0.0581  0.3324  0.1483
 1575SOL    HW1 5506   2.894   1.576   2.147  0.1391 -0.0682 -1.2608
 1575SOL    HW2 5507   2.744   1.595   2.148  0.1943  0.6934  1.8208
 1576SOL     OW 5508   7.113   3.021   0.354 -0.3252 -0.4810  0.3920
 1576SOL    HW1 5509   7.114   3.002   0.260 -3.7036 -2.6069  0.6036
 1576SOL    HW2 5510   7.046   3.088   0.364  0.5091  0.2515  1.2620
 1577SOL     OW 5511   2.851   5.861   4.842 -0.4077 -0.2989 -0.3987
 1577SOL    HW1 5512   2.777   5.901   4.797 -1.7965 -3.6221 -1.3645
 1577SOL    HW2 5513   2.821   5.849   4.932 -0.2191  0.2141 -0.2626
 1578SOL     OW 5514   8.167   7.482   0.530  0.2185 -0.2086  0.3280
 1578SOL    HW1 5515   8.167   7.576   0.544  2.0664  0.0108 -0.8512
 1578SOL    HW2 5516   8.259   7.459   0.518 -0.3364 -1.7958 -1.5283
 1579SOL     OW 5517   1.004   4.178   3.348  0.0615  0.1328 -0.0742
 1579SOL    HW1 5518   1.009   4.085   3.367  2.2709  0.7802  3.4152
 1579SOL    HW2 5519   1.095   4.206   3.337 -0.4563  2.0576  0.1304
 1580SOL     OW 5520   6.243   4.845   3.167 -0.4912  0.2435  0.0669
 1580SOL    HW1 5521   6.331   4.811   3.181 -1.2812 -3.2393 -2.1334
 1580SOL    HW2 5522   6.256   4.931   3.128  2.0719 -0.8838 -1.8127
 1581SOL     OW 5523   5.024   4.880   0.824  0.3835  0.5638 -0.0539
 1581SOL    HW1 5524   4.974   4.807   0.862 -0.2763  0.6754 -0.6924
 1581SOL    HW2 5525   5.115   4.849   0.824  0.6571  1.1066  2.9439
 1582SOL     OW 5526   8.255   3.893   0.559 -0.3091 -0.1075 -0.0668
 1582SOL    HW1 5527   8.202   3.816   0.538  0.8379 -0.9996  0.1928
 1582SOL    HW2 5528   8.342   3.872   0.526  0.4882  0.2811  1.6976
 1583SOL     OW 5529   4.136   7.603   1.889 -0.4286  0.1161  0.1090
 1583SOL    HW1 5530   4.180   7.523   1.918  0.3016  0.7590  0.8293
 1583SOL    HW2 5531   4.050   7.599   1.930 -1.3380 -1.4542 -1.8121
 1584SOL     OW 5532   1.618   2.974   7.305 -0.1881 -0.2993 -0.0877
 1584SOL    HW1 5533   1.636   2.882   7.284 -1.7932 -0.4045 -1.2755
 1584SOL    HW2 5534   1.575   3.008   7.226 -1.0535  1.0296  0.9056
 1585SOL     OW 5535   2.699   0.676   4.673 -0.2796  0.9989  0.4069
 1585SOL    HW1 5536   2.669   0.764   4.695 -1.1180  0.3672  1.9555
 1585SOL    HW2 5537   2.644   0.649   4.600 -1.6551  0.8973  1.4521
 1586SOL     OW 5538   6.959   0.821   0.800  0.1353  0.2216 -0.1611
 1586SOL    HW1 5539   7.013   0.749   0.768 -0.2997  0.2247 -0.9292
 1586SOL    HW2 5540   6.876   0.810   0.755 -0.1894  0.7630  0.2978
 1587SOL     OW 5541   1.991   3.807   3.047 -0.4578  0.3395  0.1307
 1587SOL    HW1 5542   1.999   3.729   3.101 -0.8076 -1.6925 -2.5744
 1587SOL    HW2 5543   1.961   3.875   3.108  2.3581 -0.8190  3.1584
 1588SOL     OW 5544   7.636   7.927   6.261 -0.1115  0.4596 -0.3563
 1588SOL    HW1 5545   7.543   7.947   6.267 -0.6297 -2.0054  1.0610
 1588SOL    HW2 5546   7.643   7.865   6.189  0.5522  1.0925 -0.8528
 1589SOL     OW 5547   3.143   5.698   1.312 -0.1844  0.5796  0.3193
 1589SOL    HW1 5548   3.160   5.629   1.248  0.8499  1.4459 -0.3696
 1589SOL    HW2 5549   3.136   5.651   1.395  0.9521 -0.3422 -0.0646
 1590SOL     OW 5550   5.411   6.544   5.080 -0.4685 -0.2657  0.0540
 1590SOL    HW1 5551   5.463   6.604   5.132 -0.8469 -0.2400  0.4037
 1590SOL    HW2 5552   5.320   6.559   5.108 -0.5441 -1.1636  0.3210
 1591SOL     OW 5553   5.426   4.047   6.571  0.7605  0.0618  0.9840
 1591SOL    HW1 5554   5.490   4.100   6.618  1.0928 -0.7028  1.4129
 1591SOL    HW2 5555   5.341   4.077   6.604  0.9549  0.1696  1.3847
 1592SOL     OW 5556   5.753   8.275   1.820  0.1529  0.4249  0.6272
 1592SOL    HW1 5557   5.709   8.293   1.737 -0.4432  0.9867  1.0566
 1592SOL    HW2 5558   5.719   8.189   1.847  1.6363 -0.5702 -0.5311
 1593SOL     OW 5559   3.378   7.113   2.281  0.7134  0.0307 -0.0848
 1593SOL    HW1 5560   3.452   7.076   2.232  2.3765  0.9003  1.6341
 1593SOL    HW2 5561   3.396   7.207   2.281 -1.0878  0.4146 -0.6414
 1594SOL     OW 5562   2.353   8.227   2.063 -0.1635  0.0932  0.7804
 1594SOL    HW1 5563   2.293   8.294   2.033 -0.5843 -0.1888  0.9856
 1594SOL    HW2 5564   2.347   8.230   2.159  1.4813  1.2779  0.8934
 1595SOL     OW 5565   6.634   1.225   5.321 -0.4312 -0.2097 -0.3709
 1595SOL    HW1 5566   6.614   1.273   5.240 -0.8989 -0.5659 -0.4712
 1595SOL    HW2 5567   6.582   1.270   5.388 -0.6948 -0.4337 -0.4235
 1596SOL     OW 5568   2.862   6.411   0.747  0.2632 -0.1274  0.0612
 1596SOL    HW1 5569   2.835   6.397   0.656  2.6883  0.7408 -0.8593
 1596SOL    HW2 5570   2.947   6.367   0.753 -0.0110 -0.4558  2.0353
 1597SOL     OW 5571   3.142   4.095   1.527  0.4467  0.5195  0.3222
 1597SOL    HW1 5572   3.157   4.111   1.434 -1.4501  1.8834  0.1898
 1597SOL    HW2 5573   3.097   4.173   1.558  1.0591  0.1042  2.4222
 1598SOL     OW 5574   7.465   4.844   7.778 -0.5135  0.2612 -0.1986
 1598SOL    HW1 5575   7.546   4.862   7.825  0.0153 -2.2666 -0.0110
 1598SOL    HW2 5576   7.493   4.813   7.692 -1.3196  0.2988 -0.4834
 1599SOL     OW 5577   5.295   2.426   6.414 -0.4158 -0.2836  0.2783
 1599SOL    HW1 5578   5.244   2.473   6.480 -1.8915 -0.6200 -0.5758
 1599SOL    HW2 5579   5.233   2.410   6.343  0.7869 -1.0893 -0.6261
 1600SOL     OW 5580   0.232   6.073   1.800 -0.0043 -0.2856  0.2689
 1600SOL    HW1 5581   0.192   6.127   1.868 -0.0677  0.5723 -0.4267
 1600SOL    HW2 5582   0.158   6.043   1.746 -0.0246 -1.5038  0.9279
 1601SOL     OW 5583   3.727   0.756   0.132 -0.0008  0.6634  0.1838
 1601SOL    HW1 5584   3.740   0.785   0.042  1.1728  1.5214  0.5901
 1601SOL    HW2 5585   3.805   0.703   0.151  1.6115  3.3252  1.7187
 1602SOL     OW 5586   5.109   0.759   0.429  0.0851 -0.0749 -0.1092
 1602SOL    HW1 5587   5.175   0.697   0.459  0.8094  0.3509 -0.7703
 1602SOL    HW2 5588   5.102   0.822   0.500 -1.9701 -1.8432  1.3625
 1603SOL     OW 5589   6.604   3.835   7.011  0.5688  0.2339  0.3429
 1603SOL    HW1 5590   6.524   3.882   7.033 -0.8068 -0.9882 -1.7255
 1603SOL    HW2 5591   6.646   3.888   6.944  1.8562  1.1543  1.8063
 1604SOL     OW 5592   4.282   6.008   4.084  0.3247 -0.3121  1.0472
 1604SOL    HW1 5593   4.270   5.928   4.136 -0.4715 -2.0839 -1.6180
 1604SOL    HW2 5594   4.329   6.068   4.142  1.1643 -2.7869  3.1196
 1605SOL     OW 5595   4.040   3.228   2.721  0.0460  0.0438  0.2368
 1605SOL    HW1 5596   4.085   3.188   2.647  0.2861  0.6438  0.0510
 1605SOL    HW2 5597   4.046   3.162   2.791  2.2979  0.5519  0.6113
 1606SOL     OW 5598   0.075   6.402   3.098 -0.4693 -0.1399 -0.1561
 1606SOL    HW1 5599   0.083   6.448   3.014  2.1835  0.2729  0.2204
 1606SOL    HW2 5600   0.057   6.472   3.162  0.0363 -0.0863 -0.0652
 1607SOL     OW 5601   8.169   0.762   0.364  1.0094 -0.0104  0.2482
 1607SOL    HW1 5602   8.159   0.753   0.459  1.4507 -0.9489  0.2230
 1607SOL    HW2 5603   8.079   0.763   0.330  0.8358  0.8182  0.7003
 1608SOL     OW 5604   1.839   5.307   2.080  0.4067  0.4627 -0.0665
 1608SOL    HW1 5605   1.906   5.267   2.135  0.5939  0.0992 -0.5547
 1608SOL    HW2 5606   1.786   5.234   2.050  0.2987  0.6620 -0.3605
 1609SOL     OW 5607   1.291   4.890   2.168 -0.0226 -0.8675 -0.0570
 1609SOL    HW1 5608   1.262   4.890   2.077  2.0459 -1.8310 -0.7847
 1609SOL    HW2 5609   1.220   4.932   2.216  0.0011  2.2912 -2.4832
 1610SOL     OW 5610   6.927   0.672   8.296 -0.3141  0.2041 -0.1131
 1610SOL    HW1 5611   6.890   0.607   8.356 -1.3354  1.8032  1.0499
 1610SOL    HW2 5612   6.953   0.745   8.352 -0.2149  1.2715 -1.4915
 1611SOL     OW 5613   6.262   1.856   2.099 -0.6355 -0.4121 -0.3501
 1611SOL    HW1 5614   6.200   1.898   2.158  0.0385  2.1285 -1.3423
 1611SOL    HW2 5615   6.213   1.839   2.019 -0.2296  1.2052 -0.9798
 1612SOL     OW 5616   1.281   5.755   5.796  0.0270  0.8545  0.6561
 1612SOL    HW1 5617   1.321   5.838   5.821  0.3418  0.1048  2.8551
 1612SOL    HW2 5618   1.197   5.754   5.842 -1.5036  1.2903 -1.8979
 1613SOL     OW 5619   1.504   2.584   4.632  0.4232  0.0982 -0.4600
 1613SOL    HW1 5620   1.517   2.495   4.666  0.0255 -0.5405 -1.9224
 1613SOL    HW2 5621   1.472   2.571   4.543  0.4595  1.7208 -0.7279
 1614SOL     OW 5622   4.868   6.425   1.221  0.6871 -0.2342  0.1037
 1614SOL    HW1 5623   4.847   6.405   1.312  3.1327  0.2311  0.8285
 1614SOL    HW2 5624   4.796   6.480   1.192 -0.3801 -0.7765  1.5935
 1615SOL     OW 5625   0.359   4.981   1.318  0.1099  0.0980  0.6431
 1615SOL    HW1 5626   0.284   4.970   1.376  0.2381 -1.6208  0.5412
 1615SOL    HW2 5627   0.433   4.943   1.366  0.6033  0.3831  0.1290
 1616SOL     OW 5628   1.193   1.526   2.260 -0.1846 -0.4442 -0.0784
 1616SOL    HW1 5629   1.100   1.535   2.242 -0.2728  1.9372  1.1013
 1616SOL    HW2 5630   1.207   1.579   2.339  1.9955 -1.5716  0.3644
 1617SOL     OW 5631   7.464   7.254   5.759 -0.3612  0.1077 -0.2275
 1617SOL    HW1 5632   7.450   7.163   5.782  0.1398 -0.3122 -1.4737
 1617SOL    HW2 5633   7.514   7.251   5.677  1.2807  1.5036  0.6408
 1618SOL     OW 5634   1.491   4.247   0.349  0.1426  0.0865  0.6832
 1618SOL    HW1 5635   1.405   4.228   0.388 -1.5695  2.0403 -1.8415
 1618SOL    HW2 5636   1.538   4.164   0.353 -2.1766 -1.2845  1.4028
 1619SOL     OW 5637   6.560   4.711   5.083 -0.1473  0.2301 -0.2889
 1619SOL    HW1 5638   6.528   4.671   5.163 -1.2344 -0.9788 -1.2797
 1619SOL    HW2 5639   6.629   4.652   5.052 -1.0169 -0.3473 -1.1925
 1620SOL     OW 5640   8.148   2.240   1.694  0.1940 -0.4460 -0.4262
 1620SOL    HW1 5641   8.114   2.157   1.659 -0.2520 -0.4107 -0.0861
 1620SOL    HW2 5642   8.243   2.232   1.687  0.1831 -1.2951  0.3145
 1621SOL     OW 5643   1.708   1.679   2.761  0.5149  0.0649  0.4860
 1621SOL    HW1 5644   1.698   1.675   2.666  1.7002  1.4664  0.2561
 1621SOL    HW2 5645   1.670   1.598   2.794 -1.5191  0.3545 -1.0291
 1622SOL     OW 5646   5.475   7.492   2.021 -0.2252  0.4787  0.5351
 1622SOL    HW1 5647   5.517   7.574   2.046  2.4503 -0.7635  0.4771
 1622SOL    HW2 5648   5.490   7.434   2.096  0.3054 -0.7233 -0.4568
 1623SOL     OW 5649   2.180   1.168   4.009 -0.4363 -0.1148  0.1780
 1623SOL    HW1 5650   2.116   1.231   4.043  0.2942  1.5365 -1.2916
 1623SOL    HW2 5651   2.263   1.196   4.047  0.0060  0.3164 -1.0355
 1624SOL     OW 5652   3.019   2.468   7.632  0.1247  0.5798  0.2006
 1624SOL    HW1 5653   3.063   2.384   7.642 -0.3551 -0.0263 -2.0762
 1624SOL    HW2 5654   3.085   2.526   7.593 -0.3285  0.4086 -0.8541
 1625SOL     OW 5655   6.566   0.994   0.414 -0.1321 -0.6521  0.5549
 1625SOL    HW1 5656   6.628   1.021   0.347 -0.6202  0.2709  0.4605
 1625SOL    HW2 5657   6.589   1.046   0.491 -0.8855 -0.1792  0.4667
 1626SOL     OW 5658   3.871   2.011   1.356 -0.6035 -0.7057 -0.1246
 1626SOL    HW1 5659   3.905   1.981   1.271 -2.9694 -1.1042 -1.0151
 1626SOL    HW2 5660   3.949   2.039   1.404  1.1064 -2.7476 -1.4873
 1627SOL     OW 5661   4.754   7.741   6.897 -0.0417 -0.4086 -0.1734
 1627SOL    HW1 5662   4.779   7.826   6.861 -1.3565  0.7527  1.5137
 1627SOL    HW2 5663   4.667   7.725   6.862  0.1099 -0.9904 -0.3000
 1628SOL     OW 5664   6.531   6.850   7.277 -0.4835 -0.0238  0.0984
 1628SOL    HW1 5665   6.620   6.816   7.290 -0.2852 -0.0775 -1.2468
 1628SOL    HW2 5666   6.487   6.783   7.225 -1.1844  0.2075  0.3761
 1629SOL     OW 5667   0.446   0.784   0.904 -0.0932 -0.6271 -0.5717
 1629SOL    HW1 5668   0.421   0.769   0.812 -1.1686 -0.4083 -0.3352
 1629SOL    HW2 5669   0.442   0.879   0.914 -0.0194 -0.6539 -0.2915
 1630SOL     OW 5670   5.625   0.459   1.429 -0.5918 -0.3648 -0.5248
 1630SOL    HW1 5671   5.677   0.428   1.356  0.2897 -0.5566  0.1693
 1630SOL    HW2 5672   5.594   0.379   1.472 -1.5829 -0.2555 -1.0004
 1631SOL     OW 5673   2.040   1.810   3.344  0.0074 -0.0817  0.4533
 1631SOL    HW1 5674   2.053   1.849   3.258 -0.0299 -0.7675  0.1323
 1631SOL    HW2 5675   1.960   1.850   3.377  1.4324  2.2917  1.3770
 1632SOL     OW 5676   3.782   3.458   3.088 -0.2424  0.3374 -0.3016
 1632SOL    HW1 5677   3.713   3.482   3.149 -0.2900 -0.0909 -0.1864
 1632SOL    HW2 5678   3.769   3.365   3.071 -0.5676  0.5622 -1.3951
 1633SOL     OW 5679   6.859   1.061   7.147 -0.0513 -0.4500 -0.2196
 1633SOL    HW1 5680   6.867   0.968   7.129 -0.9626 -0.8129  1.0924
 1633SOL    HW2 5681   6.878   1.070   7.241  1.8225  0.9471 -0.6816
 1634SOL     OW 5682   7.204   1.854   5.507  0.4365  0.1971  0.0787
 1634SOL    HW1 5683   7.287   1.888   5.540 -0.1149  0.3233  1.3897
 1634SOL    HW2 5684   7.221   1.836   5.415  2.0811 -0.3064  0.4476
 1635SOL     OW 5685   3.682   1.711   1.756  0.0566  0.2637 -0.6698
 1635SOL    HW1 5686   3.766   1.756   1.744 -0.7450  1.7503 -1.0237
 1635SOL    HW2 5687   3.627   1.776   1.799 -0.0002 -1.7449  2.5633
 1636SOL     OW 5688   3.355   5.058   8.056  0.2972 -0.7883  0.3338
 1636SOL    HW1 5689   3.419   5.110   8.006  0.5259 -0.1131  1.2910
 1636SOL    HW2 5690   3.408   4.991   8.099  0.9740  1.5199  3.5247
 1637SOL     OW 5691   7.880   3.877   1.466  0.3819 -0.6481  0.5949
 1637SOL    HW1 5692   7.865   3.962   1.426  0.1081 -1.6410 -1.5422
 1637SOL    HW2 5693   7.910   3.897   1.555 -0.5305  1.6277  0.4444
 1638SOL     OW 5694   3.900   1.931   2.272  0.5384 -0.1694  0.1662
 1638SOL    HW1 5695   3.856   1.971   2.347  1.8095  0.8292  0.4139
 1638SOL    HW2 5696   3.948   1.857   2.310  0.6221 -0.0817  0.2336
 1639SOL     OW 5697   1.228   2.436   2.624 -0.2064 -0.1184 -0.1955
 1639SOL    HW1 5698   1.185   2.422   2.708  0.2862 -1.4452 -0.1314
 1639SOL    HW2 5699   1.206   2.526   2.600 -0.5044  0.2270  1.2587
 1640SOL     OW 5700   4.184   0.872   0.369 -0.4000  0.1461  0.2073
 1640SOL    HW1 5701   4.193   0.941   0.435  0.4026  0.8962 -0.6559
 1640SOL    HW2 5702   4.273   0.856   0.338 -0.4402 -1.8980  0.9711
 1641SOL     OW 5703   6.962   3.959   7.776 -0.9466  0.0902  0.1517
 1641SOL    HW1 5704   6.967   4.013   7.698  0.1166  2.2386  1.6132
 1641SOL    HW2 5705   6.889   3.995   7.826 -1.8748 -1.5116  0.0445
 1642SOL     OW 5706   6.663   5.413   2.782 -0.2421  0.2459  0.3314
 1642SOL    HW1 5707   6.671   5.463   2.701  0.0543  0.3707  0.4362
 1642SOL    HW2 5708   6.570   5.418   2.804 -0.6684 -1.3116 -0.9704
 1643SOL     OW 5709   5.832   2.616   2.768  0.2261  0.2396 -0.1380
 1643SOL    HW1 5710   5.760   2.660   2.724 -0.8215 -0.3261  0.9458
 1643SOL    HW2 5711   5.794   2.535   2.801  1.0508  0.4777  1.4846
 1644SOL     OW 5712   0.442   1.590   3.089  0.6430  0.0682 -0.0023
 1644SOL    HW1 5713   0.424   1.504   3.049 -0.4936  0.7257 -0.9754
 1644SOL    HW2 5714   0.464   1.570   3.180  1.0516 -1.3047 -0.3743
 1645SOL     OW 5715   3.617   2.747   5.418  0.0260 -0.3090 -0.3203
 1645SOL    HW1 5716   3.686   2.680   5.408  0.4490  0.0646  0.0236
 1645SOL    HW2 5717   3.645   2.819   5.361 -0.6789 -0.6127 -1.0653
 1646SOL     OW 5718   7.796   6.503   8.273 -0.7000  0.0054 -0.5012
 1646SOL    HW1 5719   7.710   6.492   8.234 -0.5469 -0.5610 -0.6862
 1646SOL    HW2 5720   7.784   6.572   8.338 -1.2664  0.0005 -0.5947
 1647SOL     OW 5721   4.453   1.656   5.552  0.6533  0.0159 -0.0675
 1647SOL    HW1 5722   4.415   1.694   5.473  1.5644  2.0886  0.4120
 1647SOL    HW2 5723   4.384   1.662   5.617 -0.0945 -1.6827 -0.6691
 1648SOL     OW 5724   6.728   7.542   3.115  0.4791  0.6600 -0.3065
 1648SOL    HW1 5725   6.690   7.626   3.089 -0.7361  0.4405  0.6953
 1648SOL    HW2 5726   6.790   7.565   3.184 -0.6863  0.6502  0.7773
 1649SOL     OW 5727   8.062   2.915   4.707  0.0558  0.0250 -0.1288
 1649SOL    HW1 5728   8.098   2.998   4.737  0.5422 -0.0653 -0.4461
 1649SOL    HW2 5729   7.989   2.940   4.650  0.5897  0.2640 -0.7292
 1650SOL     OW 5730   7.887   0.561   3.454 -0.1486 -0.4135 -0.5331
 1650SOL    HW1 5731   7.811   0.522   3.497  0.6701 -1.3471  0.1102
 1650SOL    HW2 5732   7.862   0.568   3.362 -0.6838 -1.5501 -0.4860
 1651SOL     OW 5733   6.331   2.466   6.851  0.5952  0.5633 -0.5029
 1651SOL    HW1 5734   6.394   2.433   6.914 -0.9595  0.4542  1.0950
 1651SOL    HW2 5735   6.297   2.388   6.807 -0.9403  0.2196  1.1747
 1652SOL     OW 5736   3.959   3.178   6.050 -0.0814  0.0697 -0.7424
 1652SOL    HW1 5737   4.050   3.199   6.069  0.2972 -0.9377 -1.4222
 1652SOL    HW2 5738   3.912   3.201   6.131  1.3281 -3.1045  1.1357
 1653SOL     OW 5739   2.979   0.724   5.640 -0.4782 -0.4802 -0.2550
 1653SOL    HW1 5740   3.066   0.685   5.645 -0.4695 -0.4698 -0.3226
 1653SOL    HW2 5741   2.983   0.783   5.565 -0.2785  0.1888  0.2687
 1654SOL     OW 5742   8.081   7.661   7.431  0.1793  0.1256  0.0936
 1654SOL    HW1 5743   8.135   7.584   7.448 -1.1748 -0.5888  1.5138
 1654SOL    HW2 5744   8.026   7.636   7.357  0.5105  0.1415 -0.1566
 1655SOL     OW 5745   4.818   1.089   1.371  0.0179 -0.0295  0.1644
 1655SOL    HW1 5746   4.785   1.173   1.339 -1.5810  0.3428  2.4874
 1655SOL    HW2 5747   4.743   1.030   1.363  0.1023 -0.3446  1.4752
 1656SOL     OW 5748   6.393   2.078   5.356 -0.3772 -0.3810  0.1194
 1656SOL    HW1 5749   6.342   1.998   5.367  0.9120 -1.4919 -1.5779
 1656SOL    HW2 5750   6.364   2.135   5.427 -1.1447 -2.4398  1.5281
 1657SOL     OW 5751   2.465   6.124   6.819 -0.7273 -0.0911  0.0826
 1657SOL    HW1 5752   2.528   6.186   6.782 -2.0472  0.4306 -1.4198
 1657SOL    HW2 5753   2.519   6.056   6.859  0.7746  0.7547 -0.4144
 1658SOL     OW 5754   1.410   1.382   4.078  0.0433 -0.0356  0.0376
 1658SOL    HW1 5755   1.352   1.368   4.154 -0.0979 -1.9798 -0.3755
 1658SOL    HW2 5756   1.379   1.464   4.039 -1.9270 -0.6065  0.3020
 1659SOL     OW 5757   6.020   8.080   8.154  0.0192 -0.3023 -0.0416
 1659SOL    HW1 5758   6.007   8.052   8.245  1.0809 -0.4318  0.0787
 1659SOL    HW2 5759   6.090   8.146   8.159 -0.6616  0.4869 -0.6410
 1660SOL     OW 5760   6.734   5.777   2.340  0.2635 -0.2456  0.0560
 1660SOL    HW1 5761   6.787   5.713   2.292  0.7125 -1.5166  2.1287
 1660SOL    HW2 5762   6.767   5.862   2.310  1.9047 -0.9950 -0.3870
 1661SOL     OW 5763   7.549   1.659   7.735  0.0427  0.4319 -0.2802
 1661SOL    HW1 5764   7.606   1.727   7.770  1.1370 -1.9798  3.2213
 1661SOL    HW2 5765   7.608   1.603   7.685 -0.2629  0.5346 -0.7554
 1662SOL     OW 5766   4.382   0.707   8.190 -0.5692 -0.3717 -0.4664
 1662SOL    HW1 5767   4.429   0.785   8.219  1.5675 -1.5926 -0.4581
 1662SOL    HW2 5768   4.392   0.707   8.095 -1.3211 -0.1994 -0.5541
 1663SOL     OW 5769   7.702   0.830   4.499  0.1189  0.4525  0.0104
 1663SOL    HW1 5770   7.745   0.775   4.565  0.0344  1.7976  1.2295
 1663SOL    HW2 5771   7.609   0.809   4.507  0.0704  0.8477  0.5734
 1664SOL     OW 5772   6.973   6.178   1.947  0.0894  0.2739  0.4180
 1664SOL    HW1 5773   6.935   6.126   1.876 -0.6366  0.6063  0.5609
 1664SOL    HW2 5774   7.047   6.223   1.906  2.5929 -2.9806  0.8821
 1665SOL     OW 5775   2.528   7.193   5.420 -0.1754 -0.2864  0.2880
 1665SOL    HW1 5776   2.467   7.193   5.346 -0.2376 -0.4403  0.3384
 1665SOL    HW2 5777   2.577   7.275   5.411 -1.0768  0.3240  0.8125
 1666SOL     OW 5778   2.020   4.506   3.532  0.1195  0.0991  0.0742
 1666SOL    HW1 5779   2.056   4.536   3.615  1.7346  3.4421 -1.6707
 1666SOL    HW2 5780   2.095   4.498   3.474 -1.1110 -0.8599 -1.4838
 1667SOL     OW 5781   6.587   1.445   0.721 -0.3697 -0.4705  0.4948
 1667SOL    HW1 5782   6.530   1.386   0.769 -1.3876  0.1317  0.0575
 1667SOL    HW2 5783   6.626   1.501   0.789 -0.2049 -0.9510  0.8034
 1668SOL     OW 5784   8.092   6.968   3.920  0.2281 -0.2079  0.3351
 1668SOL    HW1 5785   8.037   7.043   3.946  1.4089  0.5009  0.8730
 1668SOL    HW2 5786   8.068   6.898   3.981 -0.6552 -0.1782  0.0372
 1669SOL     OW 5787   0.208   4.811   2.204 -0.7152  0.1720  0.0371
 1669SOL    HW1 5788   0.181   4.761   2.281  1.5908 -1.8888 -0.3624
 1669SOL    HW2 5789   0.298   4.783   2.188 -0.2560  2.4844 -1.8999
 1670SOL     OW 5790   0.110   6.017   3.864 -0.2955 -0.3824 -0.0233
 1670SOL    HW1 5791   0.194   5.984   3.897 -0.7232 -0.1703  1.3559
 1670SOL    HW2 5792   0.053   5.940   3.863 -1.0260  0.0462  2.3072
 1671SOL     OW 5793   2.592   6.470   2.127 -0.1964 -0.0435 -0.6207
 1671SOL    HW1 5794   2.593   6.374   2.129 -0.1151 -0.0338  0.5013
 1671SOL    HW2 5795   2.663   6.496   2.185 -0.3785  0.7007 -0.7207
 1672SOL     OW 5796   2.877   5.423   3.994  0.4470  0.1342  0.1152
 1672SOL    HW1 5797   2.920   5.405   3.911  0.4379  2.0243 -0.3467
 1672SOL    HW2 5798   2.907   5.511   4.018 -0.7790  0.2681  1.3037
 1673SOL     OW 5799   2.437   2.074   8.067  0.1872 -0.4742  0.7136
 1673SOL    HW1 5800   2.451   1.988   8.106 -1.2952 -0.5457  1.1358
 1673SOL    HW2 5801   2.404   2.128   8.138  0.4394  0.2501  0.2869
 1674SOL     OW 5802   0.446   7.764   1.354  0.2763 -0.2855  0.0490
 1674SOL    HW1 5803   0.379   7.707   1.314  0.9083 -1.0798  0.0969
 1674SOL    HW2 5804   0.476   7.820   1.283 -0.7700  0.4071  0.1340
 1675SOL     OW 5805   0.583   3.953   2.902  0.2565  0.4594  0.1967
 1675SOL    HW1 5806   0.532   3.874   2.885 -2.2836  1.9371  0.5243
 1675SOL    HW2 5807   0.621   3.938   2.989  0.8494 -0.8677 -0.2598
 1676SOL     OW 5808   6.291   7.588   2.362  0.2980 -0.3617  0.2975
 1676SOL    HW1 5809   6.371   7.612   2.316  1.1328 -0.5267  1.6129
 1676SOL    HW2 5810   6.279   7.495   2.343  0.3922 -0.3213  0.0447
 1677SOL     OW 5811   2.743   5.843   5.825  0.9998 -0.4497 -0.2105
 1677SOL    HW1 5812   2.727   5.842   5.731 -0.1251 -0.6926 -0.0398
 1677SOL    HW2 5813   2.837   5.832   5.834  1.0861 -0.7036 -1.2998
 1678SOL     OW 5814   0.365   3.085   6.370 -0.6421  0.2805 -0.1173
 1678SOL    HW1 5815   0.290   3.125   6.413 -1.1307 -0.1818 -0.5220
 1678SOL    HW2 5816   0.351   3.101   6.277 -0.7685 -0.6693 -0.2763
 1679SOL     OW 5817   3.768   1.191   1.538  0.2510 -0.3459  0.3596
 1679SOL    HW1 5818   3.748   1.114   1.590  0.2411 -0.1489  0.6474
 1679SOL    HW2 5819   3.814   1.250   1.598 -1.6233  0.7848  0.7737
 1680SOL     OW 5820   4.218   4.764   5.688  0.4600  0.0054 -0.0375
 1680SOL    HW1 5821   4.251   4.834   5.745  0.7090 -0.5787  0.5527
 1680SOL    HW2 5822   4.295   4.711   5.669  0.2890 -0.0577 -0.5617
 1681SOL     OW 5823   2.570   4.549   5.527 -0.7598  0.5532 -0.5840
 1681SOL    HW1 5824   2.503   4.607   5.562 -0.3000  0.4832  0.4463
 1681SOL    HW2 5825   2.541   4.530   5.438 -2.8132 -0.5351  0.2495
 1682SOL     OW 5826   0.042   4.320   4.987 -0.1267  0.2176  0.5335
 1682SOL    HW1 5827   0.060   4.247   4.927 -1.4728  1.4178 -1.4479
 1682SOL    HW2 5828  -0.030   4.288   5.042  0.2329 -0.4279  0.6469
 1683SOL     OW 5829   4.315   2.150   5.814  0.0306  0.1247 -0.3527
 1683SOL    HW1 5830   4.325   2.241   5.842  0.8419 -0.6300  2.0085
 1683SOL    HW2 5831   4.401   2.125   5.780 -0.1613  0.1899 -0.8971
 1684SOL     OW 5832   7.052   4.900   1.083 -0.6377 -0.2838  0.3607
 1684SOL    HW1 5833   7.011   4.837   1.024 -1.2509  0.7245 -0.3131
 1684SOL    HW2 5834   7.146   4.881   1.075 -0.7753 -0.7671 -0.2317
 1685SOL     OW 5835   2.108   5.060   6.809 -0.1718  0.4355 -0.0454
 1685SOL    HW1 5836   2.019   5.030   6.831 -0.4221  0.7788 -0.5651
 1685SOL    HW2 5837   2.097   5.153   6.789  0.3581  0.5452  0.1637
 1686SOL     OW 5838   5.675   6.717   5.437 -0.3937 -0.2173  0.6083
 1686SOL    HW1 5839   5.765   6.726   5.469 -0.5921 -2.1329  1.8734
 1686SOL    HW2 5840   5.685   6.679   5.349  0.0605  2.3300 -0.5343
 1687SOL     OW 5841   4.870   3.391   5.330  0.4175 -0.0853  0.7785
 1687SOL    HW1 5842   4.929   3.428   5.396  2.2407 -1.0704 -0.2358
 1687SOL    HW2 5843   4.858   3.300   5.357 -3.0613  0.6947  2.5678
 1688SOL     OW 5844   7.800   5.287   4.271  0.1857 -0.2204  0.3072
 1688SOL    HW1 5845   7.768   5.205   4.234 -3.5275  0.3297  1.9298
 1688SOL    HW2 5846   7.808   5.346   4.195  0.2692 -1.2750 -0.5260
 1689SOL     OW 5847   6.815   2.110   8.051  0.1971  0.2403 -0.6951
 1689SOL    HW1 5848   6.778   2.022   8.046  0.1775  0.1887  0.1463
 1689SOL    HW2 5849   6.873   2.116   7.975 -1.1009  0.1324 -1.7319
 1690SOL     OW 5850   3.784   5.145   6.987 -0.6445  0.1426  0.0729
 1690SOL    HW1 5851   3.741   5.195   7.056  0.4107  1.7902 -0.3958
 1690SOL    HW2 5852   3.787   5.205   6.912  0.7160 -0.6030 -0.5050
 1691SOL     OW 5853   4.221   0.849   7.661  0.2395 -0.3582 -0.0934
 1691SOL    HW1 5854   4.311   0.852   7.629  1.0756 -1.0684  2.0341
 1691SOL    HW2 5855   4.171   0.813   7.588  1.8399 -0.8543 -0.9919
 1692SOL     OW 5856   2.608   7.457   6.989 -0.2878  0.8969 -0.0490
 1692SOL    HW1 5857   2.613   7.441   6.895  0.4912  2.1580 -0.2525
 1692SOL    HW2 5858   2.530   7.510   7.000 -0.8640  0.0218  0.1422
 1693SOL     OW 5859   4.715   2.528   0.494 -0.0045  0.6776 -0.0994
 1693SOL    HW1 5860   4.715   2.522   0.398 -1.1788  3.1620 -0.3531
 1693SOL    HW2 5861   4.639   2.583   0.514 -0.3978 -0.6437  2.3696
 1694SOL     OW 5862   2.839   2.189   0.846  0.0728 -0.6645  0.9998
 1694SOL    HW1 5863   2.914   2.149   0.890  1.9598  1.4999 -0.0775
 1694SOL    HW2 5864   2.828   2.138   0.766  3.1862  1.4307 -0.9402
 1695SOL     OW 5865   6.391   2.673   2.975 -0.2890  0.4024 -0.1176
 1695SOL    HW1 5866   6.447   2.749   2.991  1.1778 -0.3142 -1.4528
 1695SOL    HW2 5867   6.310   2.710   2.938 -0.6931  1.4559  1.7209
 1696SOL     OW 5868   6.934   2.348   8.181  0.2067  0.3887 -0.0337
 1696SOL    HW1 5869   6.884   2.267   8.188  1.4923 -0.4007  0.4123
 1696SOL    HW2 5870   6.904   2.401   8.254 -0.8777  0.4607 -0.5198
 1697SOL     OW 5871   0.713   4.295   5.596 -0.8718 -0.1202  0.0001
 1697SOL    HW1 5872   0.643   4.272   5.534 -0.6097  1.7329 -1.0589
 1697SOL    HW2 5873   0.720   4.390   5.590  1.7299 -0.2399  0.0790
 1698SOL     OW 5874   5.235   5.214   5.400  0.0776 -0.1054  0.3187
 1698SOL    HW1 5875   5.259   5.125   5.376 -0.1850  0.0050 -0.3764
 1698SOL    HW2 5876   5.140   5.216   5.393 -0.0182 -0.0758  1.4249
 1699SOL     OW 5877   3.214   2.805   2.157  0.2450 -0.1613  0.2177
 1699SOL    HW1 5878   3.309   2.800   2.146  0.3368  1.2998  0.0698
 1699SOL    HW2 5879   3.196   2.755   2.237  1.0995 -0.6933  0.0893
 1700SOL     OW 5880   3.331   6.271   3.834 -0.0542  0.1438  0.2307
 1700SOL    HW1 5881   3.270   6.342   3.855  0.1325 -0.5053  3.5188
 1700SOL    HW2 5882   3.277   6.193   3.830  0.0979  0.0745 -0.6101
 1701SOL     OW 5883   3.339   6.804   0.379  0.5032  0.0758 -0.4997
 1701SOL    HW1 5884   3.310   6.737   0.317  1.0643 -0.8126  0.1709
 1701SOL    HW2 5885   3.434   6.802   0.375  0.5525 -0.0274  0.4029
 1702SOL     OW 5886   2.447   3.627   7.833 -0.1691  0.1378  0.1117
 1702SOL    HW1 5887   2.443   3.555   7.769 -0.1917 -0.2899  0.5885
 1702SOL    HW2 5888   2.363   3.671   7.825 -1.0992 -1.3044  1.4369
 1703SOL     OW 5889   2.057   4.170   0.351  0.2155 -0.2222  0.3840
 1703SOL    HW1 5890   2.047   4.127   0.266  0.0007  0.8493 -0.1534
 1703SOL    HW2 5891   1.970   4.206   0.369  0.8651  1.7670 -0.2000
 1704SOL     OW 5892   1.848   2.024   2.993  0.0289  0.3953  0.5139
 1704SOL    HW1 5893   1.839   2.091   2.926  1.9161  0.5306  0.3269
 1704SOL    HW2 5894   1.762   1.982   2.998 -0.7593  1.8395 -0.4033
 1705SOL     OW 5895   0.068   5.510   6.063  0.1684  0.4528  0.5179
 1705SOL    HW1 5896   0.163   5.507   6.048  0.1184  0.0437  0.2687
 1705SOL    HW2 5897   0.053   5.441   6.128  0.3320  1.9304  2.2232
 1706SOL     OW 5898   3.705   2.424   7.047  0.1375 -0.0776  0.5937
 1706SOL    HW1 5899   3.632   2.388   7.097  0.2643  0.2304  1.0053
 1706SOL    HW2 5900   3.698   2.382   6.961 -0.9354  0.4701  0.3999
 1707SOL     OW 5901   4.259   6.044   0.502  0.4463  0.2479  0.2191
 1707SOL    HW1 5902   4.240   6.019   0.592  1.5313 -1.4720  0.0186
 1707SOL    HW2 5903   4.248   5.963   0.452  1.2753  0.8226 -0.9460
 1708SOL     OW 5904   7.751   6.129   1.507 -0.3424  0.0104  0.0766
 1708SOL    HW1 5905   7.842   6.113   1.533 -0.3665  0.4726  0.4504
 1708SOL    HW2 5906   7.728   6.053   1.453  0.0978 -0.3565  0.3986
 1709SOL     OW 5907   3.341   5.574   3.968 -0.0600 -0.2467  0.4637
 1709SOL    HW1 5908   3.308   5.484   3.968 -1.5118  0.1971 -2.1626
 1709SOL    HW2 5909   3.336   5.601   4.060 -0.2025 -2.6008  1.2130
 1710SOL     OW 5910   0.919   0.342   8.041 -0.0031  0.0815 -0.2371
 1710SOL    HW1 5911   0.895   0.316   7.952  0.6495  1.0073 -0.7065
 1710SOL    HW2 5912   0.934   0.260   8.088  2.3193 -0.4312 -1.7327
 1711SOL     OW 5913   5.459   0.772   7.733 -0.4522  0.0926  0.0299
 1711SOL    HW1 5914   5.448   0.774   7.828 -2.5522  0.0338 -0.1546
 1711SOL    HW2 5915   5.381   0.815   7.699  0.9273  1.3779 -1.6721
 1712SOL     OW 5916   3.918   4.277   1.225  0.2848  0.1958 -0.1860
 1712SOL    HW1 5917   3.947   4.320   1.145 -0.6133 -1.2118 -1.3345
 1712SOL    HW2 5918   3.999   4.250   1.269  0.8287  2.2376  0.1564
 1713SOL     OW 5919   1.782   5.001   8.262 -0.2030 -0.3289  0.2349
 1713SOL    HW1 5920   1.712   5.061   8.287 -1.8893 -1.7113 -0.9736
 1713SOL    HW2 5921   1.816   5.037   8.180  0.2796  0.1439  0.6357
 1714SOL     OW 5922   3.073   0.102   6.523  0.5265  0.0617 -0.1011
 1714SOL    HW1 5923   3.129   0.126   6.449  0.8739  2.3714  0.8004
 1714SOL    HW2 5924   3.049   0.186   6.562 -0.2990 -1.0517  1.9298
 1715SOL     OW 5925   6.527   1.339   1.901  0.9047 -0.0172 -0.5928
 1715SOL    HW1 5926   6.585   1.265   1.915  2.2291  0.9435 -0.7694
 1715SOL    HW2 5927   6.442   1.300   1.881  0.5949 -1.4960  2.8532
 1716SOL     OW 5928   8.287   1.595   1.480  0.1774  0.3810 -0.0690
 1716SOL    HW1 5929   8.229   1.535   1.527 -0.2391  0.8514  0.0272
 1716SOL    HW2 5930   8.262   1.586   1.388 -0.0846  0.6252 -0.0209
 1717SOL     OW 5931   0.598   5.368   1.594  0.3217  0.4353 -0.0610
 1717SOL    HW1 5932   0.643   5.330   1.669  1.0311  1.4919  0.0627
 1717SOL    HW2 5933   0.507   5.379   1.624  0.5533  0.6605  0.5601
 1718SOL     OW 5934   6.476   2.577   0.731 -0.2575  0.9529  0.0276
 1718SOL    HW1 5935   6.570   2.596   0.727  0.3107 -1.6605 -0.9940
 1718SOL    HW2 5936   6.451   2.599   0.820  1.5463  0.8530  0.6085
 1719SOL     OW 5937   7.700   5.558   1.101  0.1147 -0.4542  0.2598
 1719SOL    HW1 5938   7.637   5.580   1.033  0.5514  1.4237  0.4078
 1719SOL    HW2 5939   7.651   5.503   1.163 -0.4357 -1.7125 -1.2453
 1720SOL     OW 5940   4.502   8.080   4.636 -0.1711 -0.0061 -0.0679
 1720SOL    HW1 5941   4.453   8.000   4.655 -0.7840  0.5918  0.9619
 1720SOL    HW2 5942   4.494   8.091   4.541 -2.3016  0.2057  0.0835
 1721SOL     OW 5943   5.955   3.175   4.922  0.2403  0.0789  0.4735
 1721SOL    HW1 5944   5.885   3.215   4.973 -0.7269  0.0637 -0.7740
 1721SOL    HW2 5945   6.009   3.249   4.893  1.0991  0.0403  1.9060
 1722SOL     OW 5946   4.372   6.607   1.880 -0.0884 -0.7217  0.3586
 1722SOL    HW1 5947   4.450   6.561   1.848  0.3215 -0.7743  1.3943
 1722SOL    HW2 5948   4.367   6.583   1.973 -0.8370 -0.0117  0.5076
 1723SOL     OW 5949   3.998   5.823   1.819 -0.3685 -0.1017 -0.2439
 1723SOL    HW1 5950   3.979   5.754   1.883  2.0637 -0.0223  0.6612
 1723SOL    HW2 5951   3.939   5.894   1.842 -1.6654 -1.2022 -0.0550
 1724SOL     OW 5952   1.895   1.875   0.919  0.0510 -0.2737 -0.5603
 1724SOL    HW1 5953   1.887   1.786   0.953 -2.7409 -0.0274 -0.3346
 1724SOL    HW2 5954   1.923   1.864   0.828  2.0662 -1.1912  0.1022
 1725SOL     OW 5955   5.306   3.678   8.107 -0.2202 -0.2667 -0.0325
 1725SOL    HW1 5956   5.305   3.707   8.199 -1.7872  1.4166 -0.5044
 1725SOL    HW2 5957   5.385   3.717   8.071 -2.1351  3.6891 -0.5833
 1726SOL     OW 5958   0.570   2.634   6.432  0.0908  0.4469 -0.6042
 1726SOL    HW1 5959   0.649   2.603   6.476 -0.6728 -0.1984  0.3483
 1726SOL    HW2 5960   0.555   2.569   6.363  0.7952  0.9806 -1.2774
 1727SOL     OW 5961   5.804   4.170   5.777 -0.0196  0.1243  0.0449
 1727SOL    HW1 5962   5.730   4.161   5.836 -0.4316 -0.6626 -0.5742
 1727SOL    HW2 5963   5.765   4.180   5.691  0.5876 -0.6942 -0.3384
 1728SOL     OW 5964   2.334   5.338   0.105  0.4362  0.4279 -0.0109
 1728SOL    HW1 5965   2.304   5.353   0.016  0.3053 -0.3875 -0.1109
 1728SOL    HW2 5966   2.291   5.257   0.132  1.3423  0.0677  0.4002
 1729SOL     OW 5967   2.080   3.987   3.240 -0.3276 -0.1341  0.1173
 1729SOL    HW1 5968   2.064   4.080   3.258  0.9280  0.1288  0.0054
 1729SOL    HW2 5969   2.175   3.982   3.227 -0.5698 -1.1538 -1.4857
 1730SOL     OW 5970   7.714   1.631   0.426 -0.0862  0.2234 -0.3359
 1730SOL    HW1 5971   7.732   1.540   0.449  0.9966  0.2985 -0.8035
 1730SOL    HW2 5972   7.621   1.642   0.443 -0.0347 -0.6875  0.6708
 1731SOL     OW 5973   6.512   1.507   7.405 -0.1765  0.3127  0.0661
 1731SOL    HW1 5974   6.533   1.515   7.498 -1.3188  0.9324  0.2839
 1731SOL    HW2 5975   6.537   1.418   7.382 -0.6145 -0.1002  1.1519
 1732SOL     OW 5976   7.527   0.567   4.248  0.0966  0.1759  0.1083
 1732SOL    HW1 5977   7.564   0.479   4.256  2.1701  1.0132  0.5155
 1732SOL    HW2 5978   7.533   0.603   4.336 -0.1918  0.9231 -0.1712
 1733SOL     OW 5979   6.966   2.491   7.343 -0.0652  0.7580  0.1541
 1733SOL    HW1 5980   7.028   2.527   7.280 -0.2572 -0.5399 -0.8299
 1733SOL    HW2 5981   7.021   2.462   7.416  0.5210 -0.3698 -0.7008
 1734SOL     OW 5982   6.805   7.490   4.404 -0.0983 -0.3955  0.5448
 1734SOL    HW1 5983   6.868   7.517   4.471  0.0222  0.0746  0.2429
 1734SOL    HW2 5984   6.765   7.411   4.440 -0.0624 -0.1270  1.1958
 1735SOL     OW 5985   5.201   6.249   0.478  1.1373  0.1375 -0.1288
 1735SOL    HW1 5986   5.209   6.207   0.392  1.3134  2.4257 -1.3029
 1735SOL    HW2 5987   5.149   6.187   0.529 -1.2026 -0.2154 -2.6692
 1736SOL     OW 5988   4.913   0.648   3.460 -0.8410 -0.0476 -0.0917
 1736SOL    HW1 5989   4.830   0.604   3.441 -2.5555  2.2119  1.5877
 1736SOL    HW2 5990   4.896   0.740   3.439  1.8205  0.2718 -1.1981
 1737SOL     OW 5991   7.966   4.322   2.422  0.8432  0.4901 -0.5127
 1737SOL    HW1 5992   7.983   4.283   2.508  1.1738 -0.9818 -1.2021
 1737SOL    HW2 5993   8.021   4.271   2.362  1.2312  2.0027 -1.5004
 1738SOL     OW 5994   4.452   2.554   2.945 -0.0017  0.1417  0.5251
 1738SOL    HW1 5995   4.507   2.487   2.986 -0.1392 -1.8949 -2.3813
 1738SOL    HW2 5996   4.515   2.619   2.912  0.1907  0.9570  2.3433
 1739SOL     OW 5997   3.504   5.968   2.200  0.0429 -0.2802 -0.4288
 1739SOL    HW1 5998   3.469   5.937   2.283  0.4028  0.2083 -0.0955
 1739SOL    HW2 5999   3.460   5.913   2.134  0.2590 -1.1175  0.1105
 1740SOL     OW 6000   2.642   2.559   5.324 -0.1549  0.1916 -0.6760
 1740SOL    HW1 6001   2.644   2.489   5.258  1.8009 -0.2742 -0.2042
 1740SOL    HW2 6002   2.559   2.548   5.369 -0.2507 -1.3093 -1.1661
 1741SOL     OW 6003   7.323   5.219   1.180  0.2581  0.1682  0.1878
 1741SOL    HW1 6004   7.233   5.217   1.210  0.1162 -0.8996 -0.2861
 1741SOL    HW2 6005   7.340   5.132   1.145  1.2035  0.6070 -0.5153
 1742SOL     OW 6006   2.330   2.141   3.166 -0.5264 -0.3595 -0.5415
 1742SOL    HW1 6007   2.294   2.152   3.078 -1.6346 -1.4043 -0.2434
 1742SOL    HW2 6008   2.271   2.190   3.223 -0.1227 -0.1445 -0.2994
 1743SOL     OW 6009   7.443   3.448   6.238 -0.2377  0.7604 -0.4268
 1743SOL    HW1 6010   7.452   3.513   6.168  1.2675  0.3136 -0.6819
 1743SOL    HW2 6011   7.530   3.443   6.278 -0.4060 -0.8280 -0.1840
 1744SOL     OW 6012   7.479   1.366   0.991  0.1418 -0.2033 -0.6745
 1744SOL    HW1 6013   7.408   1.346   1.051  0.1245 -1.7871 -1.1904
 1744SOL    HW2 6014   7.521   1.282   0.973  1.5537  0.5563 -1.1361
 1745SOL     OW 6015   6.981   1.684   5.385  0.0421  0.0647 -0.0742
 1745SOL    HW1 6016   6.933   1.680   5.303  1.0307  0.2447 -0.6852
 1745SOL    HW2 6017   7.033   1.765   5.379  3.6896 -2.1172 -1.3728
 1746SOL     OW 6018   5.631   2.466   8.074 -0.3587  0.3569  0.8541
 1746SOL    HW1 6019   5.659   2.527   8.142 -0.2113  0.7085  0.4817
 1746SOL    HW2 6020   5.575   2.403   8.120  0.9823 -0.3265  1.6000
 1747SOL     OW 6021   3.704   1.308   0.591  0.4442 -0.0867  0.2028
 1747SOL    HW1 6022   3.665   1.367   0.527 -0.3066 -0.8019 -0.0220
 1747SOL    HW2 6023   3.651   1.319   0.670  1.4262  0.8653  0.7620
 1748SOL     OW 6024   0.485   6.603   3.331 -0.8085  0.2539  0.0857
 1748SOL    HW1 6025   0.411   6.569   3.382  0.2358 -0.7968  0.9893
 1748SOL    HW2 6026   0.461   6.587   3.240 -2.1815  1.0105  0.2872
 1749SOL     OW 6027   2.286   2.347   3.588 -0.7729 -0.4748 -0.4246
 1749SOL    HW1 6028   2.262   2.438   3.604  0.3731 -0.2859  0.3552
 1749SOL    HW2 6029   2.380   2.343   3.609 -0.2143 -1.2938 -2.7834
 1750SOL     OW 6030   0.344   5.841   0.355 -0.0604 -0.3496 -0.0428
 1750SOL    HW1 6031   0.422   5.854   0.408 -0.8411  0.8589  0.8606
 1750SOL    HW2 6032   0.282   5.906   0.387 -1.1989 -0.8107 -1.2184
 1751SOL     OW 6033   1.706   0.012   5.403 -0.3940 -0.2204 -0.0892
 1751SOL    HW1 6034   1.635   0.074   5.386 -1.6501 -1.1525  1.5053
 1751SOL    HW2 6035   1.770   0.029   5.334 -1.2941  1.9409 -0.4522
 1752SOL     OW 6036   7.872   6.907   1.820  0.3072 -0.3117  0.8936
 1752SOL    HW1 6037   7.778   6.911   1.800  0.1699 -1.5945  1.2245
 1752SOL    HW2 6038   7.913   6.960   1.752 -0.6704  0.4576  0.8772
 1753SOL     OW 6039   0.162   7.208   4.631 -0.4687 -0.2949  0.4804
 1753SOL    HW1 6040   0.119   7.200   4.716 -2.1681 -2.5368 -0.4805
 1753SOL    HW2 6041   0.103   7.264   4.580  0.5965  1.1304  0.7296
 1754SOL     OW 6042   1.767   1.070   6.158 -0.4636  0.1268 -0.6800
 1754SOL    HW1 6043   1.690   1.015   6.149  0.6262 -1.3182 -1.8983
 1754SOL    HW2 6044   1.779   1.081   6.252 -1.3330 -0.8261 -0.4470
 1755SOL     OW 6045   1.888   2.576   1.479  0.0813  0.4301  0.1685
 1755SOL    HW1 6046   1.886   2.528   1.561  1.0079  1.3916  0.7679
 1755SOL    HW2 6047   1.920   2.513   1.414  0.2047 -0.0744  0.7179
 1756SOL     OW 6048   8.266   6.122   5.864 -0.4012  0.4888  0.3934
 1756SOL    HW1 6049   8.288   6.159   5.950 -1.0609  0.1890  0.6972
 1756SOL    HW2 6050   8.202   6.182   5.827 -1.7290 -0.4845  1.0325
 1757SOL     OW 6051   1.619   4.999   5.093  0.7633 -0.0446  0.0073
 1757SOL    HW1 6052   1.604   4.911   5.059  2.5802 -0.4414  0.0975
 1757SOL    HW2 6053   1.577   5.057   5.030  0.6024 -0.9307 -0.7205
 1758SOL     OW 6054   6.626   5.895   0.704 -0.0032 -0.0663 -0.1566
 1758SOL    HW1 6055   6.686   5.831   0.666 -0.2381  0.8145 -2.1134
 1758SOL    HW2 6056   6.638   5.974   0.651 -1.4949  0.7396  0.6343
 1759SOL     OW 6057   6.598   6.793   4.874  0.2352  0.2842  0.0837
 1759SOL    HW1 6058   6.507   6.817   4.858 -0.2754 -1.0289  0.8792
 1759SOL    HW2 6059   6.620   6.732   4.803  0.1979 -0.0825  0.3796
 1760SOL     OW 6060   3.526   4.552   0.735 -0.2158 -0.0039  0.3281
 1760SOL    HW1 6061   3.435   4.567   0.711 -0.1255  0.2740  0.1441
 1760SOL    HW2 6062   3.552   4.476   0.683  0.0429  0.7322 -0.6508
 1761SOL     OW 6063   0.459   3.249   0.388  0.8575 -0.7393  0.0666
 1761SOL    HW1 6064   0.445   3.303   0.310 -0.1710 -1.0113  0.0455
 1761SOL    HW2 6065   0.448   3.159   0.357  0.3774 -0.8458  0.5259
 1762SOL     OW 6066   0.080   1.611   5.530  0.0661  0.6112 -0.7157
 1762SOL    HW1 6067  -0.008   1.633   5.561  0.3887  0.9048  0.0237
 1762SOL    HW2 6068   0.103   1.531   5.577  1.0377  1.7208  0.7850
 1763SOL     OW 6069   2.450   4.795   5.253 -0.0774 -0.7930 -0.8123
 1763SOL    HW1 6070   2.532   4.745   5.256 -0.3446 -1.2225  0.2178
 1763SOL    HW2 6071   2.409   4.770   5.170  0.3941 -1.3141 -0.8941
 1764SOL     OW 6072   7.933   3.805   7.579 -0.2855 -0.5919  0.7452
 1764SOL    HW1 6073   7.930   3.737   7.512  2.5412  0.6882 -0.8953
 1764SOL    HW2 6074   7.867   3.869   7.553  0.3554 -0.4215 -0.5378
 1765SOL     OW 6075   2.295   5.230   2.790 -0.3803 -0.6957 -0.3019
 1765SOL    HW1 6076   2.219   5.216   2.846 -1.3866 -1.3198 -1.7521
 1765SOL    HW2 6077   2.331   5.314   2.819 -0.8256 -1.0196  1.2796
 1766SOL     OW 6078   6.052   1.338   5.682 -0.0430  0.0214  0.0120
 1766SOL    HW1 6079   6.053   1.429   5.653  0.5994  0.5271  1.5436
 1766SOL    HW2 6080   6.072   1.342   5.776  4.5744 -1.9223 -0.5901
 1767SOL     OW 6081   4.827   4.982   6.515 -0.3085 -0.3756  0.7908
 1767SOL    HW1 6082   4.774   4.966   6.436 -1.5334 -1.1404  1.7223
 1767SOL    HW2 6083   4.784   4.930   6.583  1.9753 -1.4749  1.5012
 1768SOL     OW 6084   0.878   6.903   7.381 -0.2453  0.0982 -0.0464
 1768SOL    HW1 6085   0.855   6.823   7.428 -1.3903  0.5109  0.1423
 1768SOL    HW2 6086   0.973   6.901   7.374 -0.2394 -1.1149  0.2417
 1769SOL     OW 6087   5.197   1.165   7.136 -0.6289  0.0210  0.3169
 1769SOL    HW1 6088   5.175   1.205   7.052  2.5404  0.0126 -0.6454
 1769SOL    HW2 6089   5.190   1.236   7.200  1.3243  1.2801 -0.7727
 1770SOL     OW 6090   0.551   6.531   5.267 -0.1450  0.0989 -0.2354
 1770SOL    HW1 6091   0.554   6.437   5.281 -1.2391  0.1810  0.7102
 1770SOL    HW2 6092   0.635   6.552   5.226  0.0872 -1.2821 -0.5091
 1771SOL     OW 6093   3.954   4.254   6.901  0.0922 -0.5271 -0.1065
 1771SOL    HW1 6094   4.010   4.302   6.840 -0.0765  2.2213  1.7207
 1771SOL    HW2 6095   3.909   4.323   6.952 -2.1539 -2.6373  0.9885
 1772SOL     OW 6096   4.868   7.551   4.009 -0.1198 -0.2597 -0.6402
 1772SOL    HW1 6097   4.803   7.505   3.955 -0.7645  0.2698 -0.3140
 1772SOL    HW2 6098   4.905   7.482   4.064  1.5850 -1.1149 -2.7160
 1773SOL     OW 6099   1.162   4.093   4.942  0.2858 -0.2319 -0.2957
 1773SOL    HW1 6100   1.151   4.007   4.983  0.5861 -0.7458 -1.2537
 1773SOL    HW2 6101   1.158   4.075   4.848 -1.7859  1.0989 -0.5258
 1774SOL     OW 6102   4.826   1.794   0.176  0.1496  1.0510 -0.5050
 1774SOL    HW1 6103   4.760   1.860   0.195 -0.4139  0.2515  0.3642
 1774SOL    HW2 6104   4.842   1.750   0.259  0.0143 -0.3610 -1.1814
 1775SOL     OW 6105   5.005   7.177   5.011 -0.2805 -0.2961  0.2775
 1775SOL    HW1 6106   5.019   7.149   4.921  0.5373  1.2821 -0.1205
 1775SOL    HW2 6107   4.912   7.196   5.016 -0.1224  0.8119 -0.6233
 1776SOL     OW 6108   0.340   1.968   6.386 -0.0436 -0.0391  0.1251
 1776SOL    HW1 6109   0.296   1.925   6.460 -1.3466 -2.2187 -1.8068
 1776SOL    HW2 6110   0.428   1.932   6.387 -0.1722 -0.3579  0.3750
 1777SOL     OW 6111   0.813   6.775   4.759  0.6065 -0.1441 -0.1251
 1777SOL    HW1 6112   0.792   6.684   4.738 -1.6454 -0.0712  1.3871
 1777SOL    HW2 6113   0.863   6.770   4.840  0.7826 -0.0472 -0.2280
 1778SOL     OW 6114   3.823   2.223   5.388  0.0816  0.2135 -0.2713
 1778SOL    HW1 6115   3.898   2.163   5.382  0.9067  1.0718  0.9388
 1778SOL    HW2 6116   3.860   2.303   5.425 -1.5770  0.3818  1.1609
 1779SOL     OW 6117   3.724   5.818   7.214  0.3048 -0.2006  0.2739
 1779SOL    HW1 6118   3.682   5.904   7.202 -0.8017 -0.8502 -0.6815
 1779SOL    HW2 6119   3.675   5.777   7.286 -0.6529 -0.9014 -0.7470
 1780SOL     OW 6120   7.897   6.966   2.110  0.0189  0.6499 -0.6971
 1780SOL    HW1 6121   7.905   6.935   2.020  0.7316  1.2831 -0.8603
 1780SOL    HW2 6122   7.866   7.056   2.102 -0.2163  0.6079 -0.2970
 1781SOL     OW 6123   0.303   3.356   6.602 -0.1910  0.5050  0.3074
 1781SOL    HW1 6124   0.220   3.312   6.583  0.0481  0.5852 -1.0044
 1781SOL    HW2 6125   0.350   3.357   6.519  1.3982 -0.0779  1.1499
 1782SOL     OW 6126   3.589   4.196   6.014 -0.2863 -0.4205  0.1100
 1782SOL    HW1 6127   3.658   4.175   5.952  1.1330  2.4753  0.4977
 1782SOL    HW2 6128   3.508   4.180   5.967  0.7283  0.4913 -2.1039
 1783SOL     OW 6129   0.719   0.419   0.549 -0.0597 -0.4937 -0.1731
 1783SOL    HW1 6130   0.805   0.431   0.508 -0.3835  0.8150 -0.5156
 1783SOL    HW2 6131   0.737   0.366   0.627  0.8335 -1.4833 -1.0093
 1784SOL     OW 6132   4.448   7.917   0.146 -0.2533  0.0255 -0.2275
 1784SOL    HW1 6133   4.526   7.862   0.157  0.1558 -0.4231 -4.0198
 1784SOL    HW2 6134   4.472   8.000   0.186  2.1652 -0.1726 -1.0991
 1785SOL     OW 6135   2.747   6.114   5.964  0.7529  0.3725  0.0475
 1785SOL    HW1 6136   2.680   6.047   5.978 -2.9568  3.3676 -1.6841
 1785SOL    HW2 6137   2.759   6.154   6.050  0.7942 -0.5574  0.4886
 1786SOL     OW 6138   5.041   1.899   4.979 -0.4592  0.4267  0.3077
 1786SOL    HW1 6139   5.050   1.992   4.958 -0.1994  0.5338  0.8929
 1786SOL    HW2 6140   4.953   1.876   4.948 -0.0306  0.5425 -1.0606
 1787SOL     OW 6141   4.381   3.208   3.076 -1.0232  0.2311  0.0406
 1787SOL    HW1 6142   4.468   3.168   3.080 -2.0395 -2.2104 -0.2181
 1787SOL    HW2 6143   4.370   3.233   2.984 -0.5289  0.7592  0.1194
 1788SOL     OW 6144   4.632   4.334   0.396 -0.2771  0.4499 -0.1125
 1788SOL    HW1 6145   4.677   4.411   0.361 -2.0106  1.3736 -0.4496
 1788SOL    HW2 6146   4.666   4.261   0.343  0.8105  1.0821 -0.3249
 1789SOL     OW 6147   1.467   2.239   6.322 -0.1875 -0.1230 -0.2016
 1789SOL    HW1 6148   1.529   2.230   6.395 -1.5186  0.1925  1.0164
 1789SOL    HW2 6149   1.522   2.260   6.246  1.2059 -0.0611  0.7837
 1790SOL     OW 6150   1.044   7.075   1.179 -0.1967 -0.1148  0.4179
 1790SOL    HW1 6151   1.002   7.040   1.257 -1.8013 -1.1861 -0.8510
 1790SOL    HW2 6152   0.994   7.155   1.159  0.7631  0.6436  0.9286
 1791SOL     OW 6153   3.547   2.060   2.733  0.0738 -0.1721 -0.6396
 1791SOL    HW1 6154   3.567   1.967   2.731  0.2378 -0.1398 -0.5108
 1791SOL    HW2 6155   3.530   2.079   2.825  0.0482 -0.0733 -0.6645
 1792SOL     OW 6156   3.154   8.287   0.833 -0.2492  0.1991  0.0990
 1792SOL    HW1 6157   3.140   8.330   0.749  0.4223 -2.5207 -1.5391
 1792SOL    HW2 6158   3.070   8.245   0.853  0.0717 -0.5588 -0.1073
 1793SOL     OW 6159   1.588   6.131   3.080 -0.1049  0.2942 -0.1061
 1793SOL    HW1 6160   1.521   6.065   3.094  0.4133 -0.1463  0.3330
 1793SOL    HW2 6161   1.642   6.096   3.009 -0.8681  1.0747 -1.1055
 1794SOL     OW 6162   3.999   3.688   4.614 -0.3666 -0.3262  0.1340
 1794SOL    HW1 6163   3.999   3.741   4.693  2.9550 -0.5253  0.4097
 1794SOL    HW2 6164   3.914   3.643   4.615 -1.9378  2.3958  1.5881
 1795SOL     OW 6165   8.275   0.932   8.051  0.1843 -0.2066 -0.2124
 1795SOL    HW1 6166   8.275   0.838   8.069  2.3412 -0.2600 -0.3299
 1795SOL    HW2 6167   8.256   0.972   8.136  0.7536 -0.7180  0.1621
 1796SOL     OW 6168   0.003   7.209   1.321  0.2063  0.4975  0.1151
 1796SOL    HW1 6169   0.039   7.192   1.234  0.2153  1.0178  0.0166
 1796SOL    HW2 6170  -0.055   7.135   1.338  1.3598 -0.3976  0.2982
 1797SOL     OW 6171   4.674   4.247   7.804 -0.5142 -0.0424 -0.2569
 1797SOL    HW1 6172   4.706   4.334   7.828 -2.5101  0.5932  0.2439
 1797SOL    HW2 6173   4.707   4.233   7.715  0.1625  1.0475 -0.1947
 1798SOL     OW 6174   2.671   5.265   4.096  0.2420 -0.4696 -0.6454
 1798SOL    HW1 6175   2.703   5.275   4.185 -0.9645 -0.9175 -0.1406
 1798SOL    HW2 6176   2.741   5.300   4.041  0.9148 -0.0066  0.4798
 1799SOL     OW 6177   1.247   6.838   3.255  0.8206 -0.3723 -0.1356
 1799SOL    HW1 6178   1.321   6.888   3.221 -0.5775  2.4023  0.5939
 1799SOL    HW2 6179   1.187   6.831   3.181  0.8303 -0.5855 -0.1232
 1800SOL     OW 6180   2.083   0.128   7.477 -0.5590 -0.0205  0.1734
 1800SOL    HW1 6181   2.165   0.081   7.491 -0.6417 -0.7886 -1.6144
 1800SOL    HW2 6182   2.030   0.068   7.424 -1.2651  1.4839 -0.9032
 1801SOL     OW 6183   1.076   7.742   5.811  0.1276  0.1172 -0.4291
 1801SOL    HW1 6184   1.106   7.664   5.766 -0.0838  0.5448 -1.3367
 1801SOL    HW2 6185   1.103   7.815   5.754 -0.3888  0.6505 -0.0086
 1802SOL     OW 6186   5.730   3.363   0.060 -0.2523 -0.3739 -0.0903
 1802SOL    HW1 6187   5.715   3.395  -0.028 -0.7985 -1.9782 -0.6267
 1802SOL    HW2 6188   5.766   3.275   0.048  0.5542 -0.2753  1.2900
 1803SOL     OW 6189   2.570   1.159   2.726 -0.2682 -0.3476 -0.7325
 1803SOL    HW1 6190   2.555   1.238   2.674  1.0601  0.4086 -0.0248
 1803SOL    HW2 6191   2.570   1.088   2.662 -4.7688 -0.3440 -1.0789
 1804SOL     OW 6192   5.065   2.186   5.675 -0.3287  0.2826 -0.0160
 1804SOL    HW1 6193   5.147   2.218   5.712 -0.4348  0.3356  0.1708
 1804SOL    HW2 6194   5.042   2.110   5.728 -1.1047  1.0672  0.7923
 1805SOL     OW 6195   7.866   4.559   4.526  0.5016  0.5213 -0.2697
 1805SOL    HW1 6196   7.787   4.552   4.581 -1.0865 -1.4311 -2.5765
 1805SOL    HW2 6197   7.870   4.651   4.501 -2.4699  0.3477 -1.8703
 1806SOL     OW 6198   5.831   2.106   3.674 -0.4108 -0.0906 -0.3632
 1806SOL    HW1 6199   5.877   2.188   3.654  0.7831 -1.0164 -1.7296
 1806SOL    HW2 6200   5.764   2.130   3.737  0.0888  1.8801 -0.5138
 1807SOL     OW 6201   7.620   7.121   2.154 -0.4118  0.1806 -0.5841
 1807SOL    HW1 6202   7.657   7.209   2.147 -0.3779  0.0710 -2.2081
 1807SOL    HW2 6203   7.615   7.090   2.063  0.0123 -1.6746 -0.0108
 1808SOL     OW 6204   4.685   3.187   6.480 -0.3190 -0.0690 -0.6991
 1808SOL    HW1 6205   4.604   3.155   6.520  0.9207 -1.3896  0.8800
 1808SOL    HW2 6206   4.657   3.226   6.397 -2.6984  0.5686  0.3133
 1809SOL     OW 6207   6.001   5.988   2.858 -0.2593 -0.2052  0.0396
 1809SOL    HW1 6208   5.925   5.935   2.881 -0.8688  0.7086  0.1833
 1809SOL    HW2 6209   5.980   6.076   2.890  1.7189 -0.3392  1.8885
 1810SOL     OW 6210   1.766   1.886   7.403  0.4229 -0.7424 -0.7464
 1810SOL    HW1 6211   1.697   1.866   7.340 -1.9878  1.0998  1.1537
 1810SOL    HW2 6212   1.770   1.809   7.459 -1.5026 -0.1627  0.2693
 1811SOL     OW 6213   6.243   2.474   7.569 -0.1993 -0.3688 -0.2353
 1811SOL    HW1 6214   6.216   2.423   7.646  0.1246 -1.6969 -0.9706
 1811SOL    HW2 6215   6.202   2.559   7.581 -2.3184 -1.3788  0.1166
 1812SOL     OW 6216   4.637   8.223   5.362 -0.2027  0.2767  0.7761
 1812SOL    HW1 6217   4.564   8.175   5.322  0.6221  0.4693 -1.0736
 1812SOL    HW2 6218   4.609   8.315   5.358  0.2126  0.3773 -0.1786
 1813SOL     OW 6219   3.992   1.430   0.847 -0.0546 -0.2873 -0.3749
 1813SOL    HW1 6220   3.914   1.485   0.836  1.0065  1.3111 -0.2240
 1813SOL    HW2 6221   4.010   1.397   0.759  0.7389  1.6807 -0.9879
 1814SOL     OW 6222   4.651   3.863   5.341  0.4226 -0.3123  0.1626
 1814SOL    HW1 6223   4.613   3.949   5.321  0.7113 -0.4375 -0.9728
 1814SOL    HW2 6224   4.745   3.880   5.351  0.6469 -0.6755 -1.2384
 1815SOL     OW 6225   2.479   3.599   5.060  0.7314  0.1229 -0.0032
 1815SOL    HW1 6226   2.447   3.605   4.970 -0.2577  0.2632  0.3462
 1815SOL    HW2 6227   2.447   3.679   5.102  4.3788  2.0809 -0.4661
 1816SOL     OW 6228   1.486   1.742   1.581  0.8297 -0.4762  0.2796
 1816SOL    HW1 6229   1.530   1.664   1.548  0.0650 -0.7565 -0.1024
 1816SOL    HW2 6230   1.395   1.715   1.594  0.0877  0.8207 -1.6857
 1817SOL     OW 6231   0.466   7.592   6.195  0.0650  0.1513  0.5160
 1817SOL    HW1 6232   0.502   7.644   6.267  0.5225 -0.4694  0.7530
 1817SOL    HW2 6233   0.372   7.590   6.211  0.2087 -0.3923  1.3917
 1818SOL     OW 6234   5.338   1.369   7.505 -0.3557 -0.2291 -0.0622
 1818SOL    HW1 6235   5.345   1.354   7.600  0.6007  1.8102  0.2270
 1818SOL    HW2 6236   5.295   1.290   7.472 -3.4332  0.1673  2.4599
 1819SOL     OW 6237   6.162   2.392   8.215  0.5354 -0.0376  0.3222
 1819SOL    HW1 6238   6.160   2.406   8.120  0.0111 -0.3849  0.2775
 1819SOL    HW2 6239   6.237   2.335   8.229  1.1656  0.7415  0.2266
 1820SOL     OW 6240   6.982   3.881   4.249 -0.2202  0.4967  1.1168
 1820SOL    HW1 6241   6.888   3.895   4.249 -0.3210  0.0528 -0.5675
 1820SOL    HW2 6242   7.019   3.967   4.270 -0.9745  1.1716 -0.2041
 1821SOL     OW 6243   6.403   1.431   4.502 -0.2885 -0.2703  0.4273
 1821SOL    HW1 6244   6.392   1.447   4.596 -0.8596  1.0635  0.1529
 1821SOL    HW2 6245   6.493   1.457   4.484 -0.1593 -0.5827  0.6100
 1822SOL     OW 6246   5.404   1.961   3.163 -0.3155  0.0773 -0.5024
 1822SOL    HW1 6247   5.311   1.949   3.143 -0.2999 -2.0337  0.5139
 1822SOL    HW2 6248   5.437   1.873   3.181  1.2587  1.0602  1.8365
 1823SOL     OW 6249   5.466   2.534   3.917  0.0866 -0.3565 -0.2939
 1823SOL    HW1 6250   5.417   2.519   3.997  1.1192 -0.6778  0.2944
 1823SOL    HW2 6251   5.558   2.522   3.942  0.4961  0.4972 -1.2941
 1824SOL     OW 6252   5.012   7.942   7.276  0.3163 -0.8585  0.3220
 1824SOL    HW1 6253   4.952   7.975   7.343  0.9167  0.4178  0.2788
 1824SOL    HW2 6254   5.021   8.016   7.215 -0.1483 -1.9566 -1.1346
 1825SOL     OW 6255   8.155   1.743   0.217 -0.3731  0.3863 -0.0701
 1825SOL    HW1 6256   8.228   1.682   0.211 -0.2825  0.3168  1.3135
 1825SOL    HW2 6257   8.115   1.724   0.302 -1.6374  0.8313 -0.5380
 1826SOL     OW 6258   0.201   4.242   7.635 -0.3044 -0.1284 -0.2603
 1826SOL    HW1 6259   0.158   4.159   7.621 -0.1454  0.0942 -2.2790
 1826SOL    HW2 6260   0.140   4.308   7.603  0.4183  0.3805 -0.6301
 1827SOL     OW 6261   7.278   0.062   6.444  0.1758 -0.3763 -0.4947
 1827SOL    HW1 6262   7.299   0.123   6.374 -0.4149  0.1825 -0.2022
 1827SOL    HW2 6263   7.286   0.114   6.524 -1.2462 -0.4004 -0.3008
 1828SOL     OW 6264   7.895   3.319   8.007 -0.2177 -0.0305  0.6038
 1828SOL    HW1 6265   7.831   3.252   7.985  0.0497  0.6308 -2.6000
 1828SOL    HW2 6266   7.871   3.347   8.095 -1.6568 -2.7563  1.1909
 1829SOL     OW 6267   3.157   3.471   8.229 -0.0145 -0.3994 -0.2584
 1829SOL    HW1 6268   3.239   3.503   8.266 -0.8348  2.0208 -0.3350
 1829SOL    HW2 6269   3.099   3.460   8.305 -0.1716 -0.3399 -0.3685
 1830SOL     OW 6270   6.880   3.251   2.516  0.5377  0.6812  0.2137
 1830SOL    HW1 6271   6.841   3.256   2.603 -2.2391  0.8772 -0.9638
 1830SOL    HW2 6272   6.927   3.168   2.516  0.2296  0.4684  1.7463
 1831SOL     OW 6273   0.347   8.044   3.575  0.0169  0.1941  0.6620
 1831SOL    HW1 6274   0.277   8.104   3.603 -2.0311 -2.1057  0.8621
 1831SOL    HW2 6275   0.426   8.097   3.577 -1.7134  3.0063  0.3034
 1832SOL     OW 6276   4.407   1.409   5.287  0.2487 -0.0360 -0.0795
 1832SOL    HW1 6277   4.382   1.319   5.306  1.3770  0.0482  2.2087
 1832SOL    HW2 6278   4.347   1.462   5.339  1.5602  0.3559  1.1161
 1833SOL     OW 6279   6.957   1.401   0.178 -0.3863 -0.0589  0.5343
 1833SOL    HW1 6280   6.967   1.329   0.117  0.7948  1.8403 -1.6731
 1833SOL    HW2 6281   6.865   1.398   0.205 -0.4839 -1.9930  0.0841
 1834SOL     OW 6282   7.298   1.650   6.606 -0.5429  0.4179  0.5943
 1834SOL    HW1 6283   7.369   1.714   6.603 -1.1130  1.0727  0.8215
 1834SOL    HW2 6284   7.342   1.565   6.605  0.1870  0.7288 -2.1333
 1835SOL     OW 6285   5.777   5.239   7.236 -0.0648  0.0225  0.3374
 1835SOL    HW1 6286   5.819   5.160   7.203 -1.0868 -1.4099  2.2578
 1835SOL    HW2 6287   5.845   5.306   7.232  0.6541 -0.7448 -1.9041
 1836SOL     OW 6288   3.936   4.542   7.842 -0.0284 -0.2253 -0.4584
 1836SOL    HW1 6289   3.864   4.489   7.809 -0.5020  0.4849 -0.5978
 1836SOL    HW2 6290   3.974   4.582   7.763 -0.0262  0.0690 -0.3089
 1837SOL     OW 6291   6.101   7.887   1.482  0.8701  0.7744  0.1350
 1837SOL    HW1 6292   6.055   7.967   1.507 -0.2103 -0.0872  0.9720
 1837SOL    HW2 6293   6.097   7.886   1.387 -1.0029  0.6541  0.1803
 1838SOL     OW 6294   1.112   7.433   7.452  0.2856  0.1244 -0.1622
 1838SOL    HW1 6295   1.095   7.511   7.398  1.4105  0.3191 -0.2654
 1838SOL    HW2 6296   1.064   7.363   7.408 -1.3482  0.8735  0.3392
 1839SOL     OW 6297   3.355   2.574   2.530  0.3603 -0.0451  0.0512
 1839SOL    HW1 6298   3.440   2.610   2.507  0.8565 -0.8444  0.5782
 1839SOL    HW2 6299   3.374   2.486   2.562 -0.9153 -1.2503 -2.2588
 1840SOL     OW 6300   4.748   5.690   6.428  0.4752 -0.5138  0.2067
 1840SOL    HW1 6301   4.777   5.687   6.337 -0.7791  0.5434 -0.2508
 1840SOL    HW2 6302   4.830   5.693   6.479  1.2007 -2.0389 -0.8069
 1841SOL     OW 6303   5.254   3.816   0.043  0.0653 -0.4750  0.2674
 1841SOL    HW1 6304   5.160   3.815   0.063  0.1856  0.7754  0.9482
 1841SOL    HW2 6305   5.296   3.803   0.128  0.5340  2.0469  0.4934
 1842SOL     OW 6306   5.969   2.844   7.070  0.3924  0.0183  0.2737
 1842SOL    HW1 6307   5.979   2.767   7.013  0.6018 -0.5958  1.1237
 1842SOL    HW2 6308   5.974   2.809   7.159 -0.3270  0.9069  0.6855
 1843SOL     OW 6309   5.404   7.497   3.570 -0.3984 -0.4070  0.0160
 1843SOL    HW1 6310   5.497   7.518   3.580 -0.7967  0.9535  1.1543
 1843SOL    HW2 6311   5.359   7.562   3.624 -1.9893 -1.3751 -0.0923
 1844SOL     OW 6312   0.435   3.959   0.736 -0.2097  0.0605  0.7201
 1844SOL    HW1 6313   0.397   3.991   0.654  1.1122  0.9131  0.4032
 1844SOL    HW2 6314   0.465   4.039   0.781  0.6514 -0.5369  1.2226
 1845SOL     OW 6315   1.296   0.782   6.114  0.2876  0.0278  0.1237
 1845SOL    HW1 6316   1.238   0.718   6.074 -0.1016  0.4440  0.0152
 1845SOL    HW2 6317   1.242   0.860   6.127  0.6531  0.2090  0.6086
 1846SOL     OW 6318   6.663   3.733   6.685  0.3564  0.8266  0.3534
 1846SOL    HW1 6319   6.591   3.796   6.686  0.8252  1.3997 -0.8520
 1846SOL    HW2 6320   6.729   3.772   6.629  0.3763 -1.0332 -1.0356
 1847SOL     OW 6321   4.150   3.074   1.555 -0.3331  0.3043  0.0354
 1847SOL    HW1 6322   4.089   3.079   1.629 -0.9482  0.1688 -0.4478
 1847SOL    HW2 6323   4.228   3.032   1.590 -0.7154  0.0164  0.5514
 1848SOL     OW 6324   4.549   4.358   0.759  0.0182  0.2277  0.5068
 1848SOL    HW1 6325   4.520   4.450   0.751  2.0700  0.8331 -0.6876
 1848SOL    HW2 6326   4.474   4.313   0.797 -0.8711  2.4935  1.6303
 1849SOL     OW 6327   2.337   6.766   2.759  0.0435  0.6497  0.1402
 1849SOL    HW1 6328   2.385   6.838   2.719  3.5523 -1.1386  0.7558
 1849SOL    HW2 6329   2.317   6.706   2.687  0.2589  0.6415  0.0857
 1850SOL     OW 6330   2.413   7.540   1.788  0.0123  0.1037 -0.0368
 1850SOL    HW1 6331   2.323   7.525   1.757  0.8622 -2.5813 -1.5977
 1850SOL    HW2 6332   2.455   7.587   1.715  0.4793 -0.8425 -0.3877
 1851SOL     OW 6333   3.466   5.154   5.802  0.2275  0.9539  0.0247
 1851SOL    HW1 6334   3.426   5.073   5.769 -0.5729  0.7127  1.5298
 1851SOL    HW2 6335   3.424   5.224   5.752 -0.7815  0.5794  0.3298
 1852SOL     OW 6336   6.486   6.872   4.569 -0.4785  0.0206 -0.5012
 1852SOL    HW1 6337   6.582   6.873   4.564 -0.4615  0.4121 -0.2360
 1852SOL    HW2 6338   6.458   6.824   4.492 -0.0811  0.4090 -0.8982
 1853SOL     OW 6339   7.192   0.348   7.129  0.5410  0.4340  0.2704
 1853SOL    HW1 6340   7.146   0.333   7.211  0.6181  0.7942  0.3820
 1853SOL    HW2 6341   7.191   0.263   7.085 -1.2932  0.7118 -0.2835
 1854SOL     OW 6342   4.473   1.378   7.934 -0.5105 -0.5734  0.3416
 1854SOL    HW1 6343   4.501   1.454   7.986  0.8581 -0.1486 -0.9408
 1854SOL    HW2 6344   4.451   1.311   7.999 -0.4361  0.4683  1.4743
 1855SOL     OW 6345   5.747   5.312   6.042  0.0516 -0.0285  0.1519
 1855SOL    HW1 6346   5.666   5.362   6.050  0.3653  0.9534 -2.0861
 1855SOL    HW2 6347   5.726   5.240   5.984  0.6842 -0.0003 -0.1226
 1856SOL     OW 6348   5.603   1.943   8.236  0.2011 -0.1631  0.0050
 1856SOL    HW1 6349   5.642   1.914   8.319 -1.4450  0.2793  0.9770
 1856SOL    HW2 6350   5.521   1.895   8.230 -0.0693  0.3940 -0.9959
 1857SOL     OW 6351   5.421   1.120   7.376  0.0384 -0.8454 -0.1439
 1857SOL    HW1 6352   5.349   1.067   7.343 -0.9225  0.2027  0.1770
 1857SOL    HW2 6353   5.482   1.127   7.303 -1.5322  0.5346 -1.4107
 1858SOL     OW 6354   7.806   3.846   6.271 -0.3559  0.0661 -0.6417
 1858SOL    HW1 6355   7.851   3.870   6.352  0.3398 -2.1331 -0.2843
 1858SOL    HW2 6356   7.714   3.860   6.290 -0.0167  3.5278 -0.9775
 1859SOL     OW 6357   1.151   0.037   7.379  0.0967  0.0519 -0.5187
 1859SOL    HW1 6358   1.230   0.039   7.325  1.1053 -0.6452  0.8659
 1859SOL    HW2 6359   1.184   0.034   7.469 -1.5277  0.6410  0.1188
 1860SOL     OW 6360   7.917   3.823   7.224 -0.1519  0.2408  0.3115
 1860SOL    HW1 6361   7.919   3.857   7.135  0.4509  0.5877  0.4537
 1860SOL    HW2 6362   7.828   3.841   7.254 -0.5069 -0.3215 -0.3825
 1861SOL     OW 6363   0.553   1.629   5.111  0.8379 -0.1427 -0.2496
 1861SOL    HW1 6364   0.475   1.585   5.148  0.9201 -1.0798 -1.1312
 1861SOL    HW2 6365   0.521   1.714   5.082  0.3139 -0.2217  0.0714
 1862SOL     OW 6366   3.815   0.234   7.952 -0.1255  0.1792 -0.4038
 1862SOL    HW1 6367   3.773   0.264   7.871  1.0770  0.7473 -0.8443
 1862SOL    HW2 6368   3.880   0.301   7.971 -0.4483  0.0997  1.1049
 1863SOL     OW 6369   0.266   1.272   6.984  0.1244  0.0032 -0.5581
 1863SOL    HW1 6370   0.316   1.279   7.066  0.8237  2.3666 -1.1163
 1863SOL    HW2 6371   0.175   1.284   7.011  0.3878  1.2525 -0.1259
 1864SOL     OW 6372   0.781   4.249   6.704 -0.1224  0.1762  0.8478
 1864SOL    HW1 6373   0.701   4.292   6.676  0.9189  1.9253  0.4066
 1864SOL    HW2 6374   0.815   4.208   6.624  0.4995  1.2665  0.5358
 1865SOL     OW 6375   4.120   2.282   3.324  0.1451  0.3875 -0.4271
 1865SOL    HW1 6376   4.156   2.201   3.360 -0.6073  0.4139  0.4154
 1865SOL    HW2 6377   4.073   2.255   3.245 -0.4916 -0.0758  0.1006
 1866SOL     OW 6378   6.292   4.107   5.823 -0.4929  0.0181  0.1410
 1866SOL    HW1 6379   6.323   4.132   5.736 -0.9404  1.5133  0.3858
 1866SOL    HW2 6380   6.308   4.184   5.877 -2.3818 -0.0402  0.8338
 1867SOL     OW 6381   7.143   2.783   0.935  0.0511 -0.1511  0.9658
 1867SOL    HW1 6382   7.093   2.859   0.963 -0.5380  0.3021 -1.1720
 1867SOL    HW2 6383   7.180   2.807   0.851  2.3681 -1.1692  1.6051
 1868SOL     OW 6384   3.356   7.091   5.498  0.0887 -0.3991  0.3757
 1868SOL    HW1 6385   3.427   7.115   5.557 -0.8267 -0.7026  1.6195
 1868SOL    HW2 6386   3.290   7.051   5.554 -1.2636  0.2583 -0.6921
 1869SOL     OW 6387   3.835   3.020   5.427  0.5790 -0.1546 -0.1886
 1869SOL    HW1 6388   3.775   2.996   5.356  1.1024  0.2805 -0.7857
 1869SOL    HW2 6389   3.914   2.970   5.409  0.9584  0.4809 -0.3067
 1870SOL     OW 6390   3.712   6.219   0.565 -0.2022 -0.5270  0.0428
 1870SOL    HW1 6391   3.700   6.279   0.492 -0.5634  0.0397  0.5630
 1870SOL    HW2 6392   3.797   6.243   0.602 -0.1450 -0.6316 -0.0195
 1871SOL     OW 6393   5.726   1.314   7.993 -0.0504 -0.0288  0.3508
 1871SOL    HW1 6394   5.758   1.253   8.060  1.0030 -1.6210 -1.5043
 1871SOL    HW2 6395   5.675   1.260   7.934 -0.6061  1.2536 -0.3825
 1872SOL     OW 6396   3.586   2.586   2.850  0.1527 -0.5254  0.4639
 1872SOL    HW1 6397   3.518   2.592   2.916 -0.4387 -0.3705 -0.1535
 1872SOL    HW2 6398   3.617   2.496   2.855 -2.6041 -1.7577 -1.6612
 1873SOL     OW 6399   0.657   0.750   1.484 -0.2944  0.0607  0.6788
 1873SOL    HW1 6400   0.707   0.720   1.560  0.9672  1.5929  0.4977
 1873SOL    HW2 6401   0.578   0.695   1.485  1.1303 -2.1382  1.2390
 1874SOL     OW 6402   3.386   2.779   3.192 -0.2768  0.1989  0.2106
 1874SOL    HW1 6403   3.374   2.709   3.127  0.0098  0.9681 -0.6900
 1874SOL    HW2 6404   3.478   2.804   3.183 -0.5592  1.2028 -0.0169
 1875SOL     OW 6405   3.294   4.716   8.138 -0.1229 -0.0185 -0.5513
 1875SOL    HW1 6406   3.267   4.775   8.208  0.5722 -0.6735  0.2903
 1875SOL    HW2 6407   3.388   4.727   8.132  0.3872 -2.5799  1.1480
 1876SOL     OW 6408   2.174   4.956   1.163 -0.1678 -0.0581 -0.2612
 1876SOL    HW1 6409   2.265   4.961   1.132  0.1400 -1.4078  0.3220
 1876SOL    HW2 6410   2.165   4.866   1.193 -1.3133  0.4215  0.9059
 1877SOL     OW 6411   2.370   7.492   1.236  0.7297  0.4508 -0.1386
 1877SOL    HW1 6412   2.429   7.448   1.175 -1.0797 -0.3840 -1.3631
 1877SOL    HW2 6413   2.330   7.563   1.185 -0.9897 -0.4058 -0.0583
 1878SOL     OW 6414   7.694   7.898   8.313  0.8086 -0.2208  0.5303
 1878SOL    HW1 6415   7.700   7.992   8.296 -1.0504 -0.3956 -1.6558
 1878SOL    HW2 6416   7.772   7.861   8.271  0.1867  0.1405 -1.0180
 1879SOL     OW 6417   5.658   2.975   4.259 -0.0008  0.0204 -0.6624
 1879SOL    HW1 6418   5.593   2.916   4.297  0.6367  0.4495  1.2208
 1879SOL    HW2 6419   5.739   2.924   4.260  0.4938  0.7696  0.7201
 1880SOL     OW 6420   8.311   2.310   5.985 -0.3017 -0.0823  0.3104
 1880SOL    HW1 6421   8.248   2.260   6.039  1.1399 -0.6780  1.5205
 1880SOL    HW2 6422   8.374   2.345   6.048  0.3246  0.9045 -0.8238
 1881SOL     OW 6423   5.206   2.187   1.586  0.2080  0.3326  0.3312
 1881SOL    HW1 6424   5.126   2.214   1.630 -0.3639  0.9596 -1.0234
 1881SOL    HW2 6425   5.274   2.190   1.653 -1.0271 -1.0134  1.7155
 1882SOL     OW 6426   8.174   3.965   8.139  0.5807  1.1936  0.0192
 1882SOL    HW1 6427   8.183   3.870   8.128 -0.0043  0.6187  3.4717
 1882SOL    HW2 6428   8.100   3.988   8.082 -0.9242 -0.9198  0.9755
 1883SOL     OW 6429   1.339   5.647   4.988  0.1038  0.3307  0.0278
 1883SOL    HW1 6430   1.247   5.649   4.962  0.3942 -0.7021 -1.2044
 1883SOL    HW2 6431   1.356   5.554   5.007  1.0067  0.4309 -0.2447
 1884SOL     OW 6432   7.789   1.458   2.153 -0.1190  0.5800 -0.2102
 1884SOL    HW1 6433   7.880   1.447   2.181 -0.9459 -1.3885  2.0188
 1884SOL    HW2 6434   7.779   1.397   2.080  0.3916  0.9600 -0.6051
 1885SOL     OW 6435   6.827   7.129   7.166 -0.3337 -0.5946  0.4891
 1885SOL    HW1 6436   6.817   7.194   7.096  0.0956 -0.9833  0.0554
 1885SOL    HW2 6437   6.882   7.172   7.231 -0.2243 -0.4464  0.3008
 1886SOL     OW 6438   3.592   6.012   5.529  0.1094  0.2163 -0.5432
 1886SOL    HW1 6439   3.654   6.066   5.579  0.2695  0.0521 -0.5598
 1886SOL    HW2 6440   3.620   5.922   5.547 -0.8740  0.0908  0.4186
 1887SOL     OW 6441   2.485   4.998   3.238  0.2134  0.3245 -0.5022
 1887SOL    HW1 6442   2.481   5.093   3.225 -0.2696  0.1349 -1.8986
 1887SOL    HW2 6443   2.577   4.975   3.226  0.3449  0.6155 -0.0819
 1888SOL     OW 6444   6.910   5.596   2.223  0.1043  0.7957  0.0477
 1888SOL    HW1 6445   6.960   5.561   2.149  0.0973  0.0004  0.4103
 1888SOL    HW2 6446   6.952   5.558   2.300 -1.0597  0.1008  0.3577
 1889SOL     OW 6447   6.456   5.173   6.546 -0.2730  0.1209 -0.2065
 1889SOL    HW1 6448   6.407   5.135   6.619  1.3974 -0.4806  0.6505
 1889SOL    HW2 6449   6.463   5.266   6.568 -0.8342  0.1723 -0.2320
 1890SOL     OW 6450   1.576   8.257   1.702 -0.2202  0.0944 -0.4140
 1890SOL    HW1 6451   1.595   8.289   1.614 -0.5949 -0.4287 -0.6908
 1890SOL    HW2 6452   1.484   8.232   1.699 -0.4372  0.7750  0.3498
 1891SOL     OW 6453   7.991   1.829   7.536 -0.1400  0.1472  0.1403
 1891SOL    HW1 6454   7.904   1.870   7.539  0.1419  0.7203  0.7490
 1891SOL    HW2 6455   8.047   1.889   7.585  0.7083  0.0255 -0.6688
 1892SOL     OW 6456   3.675   6.108   7.201 -0.1255 -0.1579  0.5619
 1892SOL    HW1 6457   3.646   6.199   7.192  0.1245  0.0767  1.8394
 1892SOL    HW2 6458   3.767   6.115   7.229 -0.6444 -0.7277  2.5577
 1893SOL     OW 6459   2.336   5.540   2.030  0.5718  0.0545  0.1691
 1893SOL    HW1 6460   2.364   5.575   1.945  0.2742 -2.5578 -1.1081
 1893SOL    HW2 6461   2.417   5.520   2.076  0.7843 -0.6784 -0.4998
 1894SOL     OW 6462   2.305   3.946   3.406  0.2000  0.4057  0.2969
 1894SOL    HW1 6463   2.333   3.898   3.484 -0.5920  0.6035  0.7173
 1894SOL    HW2 6464   2.221   3.986   3.431  0.6683  1.7169 -0.1544
 1895SOL     OW 6465   1.093   4.422   7.130 -0.2174 -0.3240  0.1039
 1895SOL    HW1 6466   1.158   4.370   7.082 -1.5578 -1.0298 -1.0124
 1895SOL    HW2 6467   1.038   4.461   7.061 -0.0945  1.4709  0.9704
 1896SOL     OW 6468   8.080   8.052   4.842  0.5154  0.6260  0.1000
 1896SOL    HW1 6469   8.087   8.146   4.861  0.1204  0.6795  0.0018
 1896SOL    HW2 6470   8.071   8.049   4.746 -0.8043  0.5856  0.2014
 1897SOL     OW 6471   5.777   1.368   5.165  0.3779  0.2406  0.3064
 1897SOL    HW1 6472   5.790   1.462   5.177  0.6838  0.2100  0.2282
 1897SOL    HW2 6473   5.780   1.331   5.253 -0.3118  0.3709  0.3920
 1898SOL     OW 6474   5.507   6.679   4.477 -0.3470 -0.4724  0.1078
 1898SOL    HW1 6475   5.414   6.662   4.494 -0.4643 -1.1600 -1.1058
 1898SOL    HW2 6476   5.553   6.608   4.522 -0.5083 -0.9921 -0.5368
 1899SOL     OW 6477   3.835   4.023   6.786  0.0492 -0.1538  0.6672
 1899SOL    HW1 6478   3.858   4.104   6.831 -0.3085  0.0553  0.4842
 1899SOL    HW2 6479   3.750   3.998   6.823 -0.8188  0.6479 -0.6814
 1900SOL     OW 6480   0.631   0.374   4.051 -0.2317  0.0773  0.1319
 1900SOL    HW1 6481   0.637   0.438   4.122 -0.0213 -0.7398  0.8704
 1900SOL    HW2 6482   0.677   0.415   3.978 -0.6619  1.0311  0.3838
 1901SOL     OW 6483   2.846   2.323   0.309  0.1696 -0.4196  0.1038
 1901SOL    HW1 6484   2.896   2.269   0.249  1.9235  0.0166  1.1210
 1901SOL    HW2 6485   2.793   2.380   0.252  0.7528 -0.9491 -0.9879
 1902SOL     OW 6486   3.729   3.167   1.055 -0.1031  0.0030  0.2292
 1902SOL    HW1 6487   3.761   3.242   1.106  0.7777 -0.1028 -0.1454
 1902SOL    HW2 6488   3.807   3.113   1.042 -0.6318 -0.7339  0.0715
 1903SOL     OW 6489   4.117   7.437   5.091 -0.5487 -0.0695  0.0463
 1903SOL    HW1 6490   4.127   7.443   4.997  0.4681 -1.8799 -0.0039
 1903SOL    HW2 6491   4.204   7.454   5.126 -0.9018  0.5161  0.6648
 1904SOL     OW 6492   4.063   3.750   6.033  0.2193  0.0783  0.1329
 1904SOL    HW1 6493   3.999   3.767   5.963  0.3573  1.0806  0.2484
 1904SOL    HW2 6494   4.122   3.825   6.031  0.9703 -0.4914  0.5109
 1905SOL     OW 6495   4.459   6.955   7.898  0.2743 -0.3123 -0.0409
 1905SOL    HW1 6496   4.509   6.889   7.947 -0.6520  0.0615  1.4487
 1905SOL    HW2 6497   4.393   6.986   7.959 -0.1063  1.1201 -1.1233
 1906SOL     OW 6498   4.870   5.886   7.552  0.2458 -0.5893 -0.0064
 1906SOL    HW1 6499   4.805   5.817   7.565  0.4805 -1.0359 -1.1189
 1906SOL    HW2 6500   4.943   5.842   7.510  1.1182 -0.0058  0.8681
 1907SOL     OW 6501   0.447   8.080   0.146  0.1602  0.3610 -0.1446
 1907SOL    HW1 6502   0.398   7.999   0.154 -0.8284  0.7583 -1.7467
 1907SOL    HW2 6503   0.465   8.106   0.236 -0.8044 -0.8497  0.4295
 1908SOL     OW 6504   0.544   8.263   3.552 -0.1483  0.4978  0.1691
 1908SOL    HW1 6505   0.473   8.327   3.543 -0.3709  0.0330 -1.8443
 1908SOL    HW2 6506   0.623   8.313   3.531 -0.3823  0.0634 -2.0327
 1909SOL     OW 6507   4.663   2.839   8.258  0.2201 -0.5527  0.0189
 1909SOL    HW1 6508   4.595   2.902   8.281  0.3246 -0.6571  0.6321
 1909SOL    HW2 6509   4.687   2.861   8.168 -0.0342  0.0215  0.0878
 1910SOL     OW 6510   0.202   8.107   6.861  0.2498 -0.0886 -0.6229
 1910SOL    HW1 6511   0.258   8.182   6.879 -0.0958 -0.4131  2.2314
 1910SOL    HW2 6512   0.135   8.110   6.929 -1.1727 -1.6776 -1.8557
 1911SOL     OW 6513   1.749   1.415   1.131  0.2115  0.0265  0.2083
 1911SOL    HW1 6514   1.728   1.378   1.217  0.1920  0.4030  0.3683
 1911SOL    HW2 6515   1.761   1.338   1.074  0.7240 -0.2432  0.6645
 1912SOL     OW 6516   3.523   0.291   4.752  0.3154 -0.2685  0.0312
 1912SOL    HW1 6517   3.454   0.333   4.803 -0.3584  0.7965 -1.6798
 1912SOL    HW2 6518   3.499   0.198   4.753  0.5605 -0.3579  1.9446
 1913SOL     OW 6519   0.947   4.689   2.629 -0.1039 -0.5565 -0.4244
 1913SOL    HW1 6520   0.878   4.660   2.690 -0.1387  0.4969  0.0553
 1913SOL    HW2 6521   1.025   4.695   2.683  0.1481 -0.7900 -0.7607
 1914SOL     OW 6522   5.651   7.603   2.289  0.2478  0.0937  0.0083
 1914SOL    HW1 6523   5.615   7.647   2.212 -1.2613 -0.5861  0.2929
 1914SOL    HW2 6524   5.656   7.671   2.356 -1.1814  0.0772  0.1597
 1915SOL     OW 6525   7.576   1.295   6.406 -0.3371  0.3411 -0.2788
 1915SOL    HW1 6526   7.619   1.366   6.453 -0.9960  1.7724 -1.7076
 1915SOL    HW2 6527   7.638   1.271   6.336 -0.2287 -0.3229  0.0377
 1916SOL     OW 6528   2.480   5.942   7.548  0.1063  0.4634 -0.3862
 1916SOL    HW1 6529   2.430   5.934   7.467 -0.0557  0.0673 -0.2457
 1916SOL    HW2 6530   2.493   5.853   7.578  0.5546  0.5849 -0.2068
 1917SOL     OW 6531   3.958   4.384   4.949 -0.1081 -0.5314  0.5592
 1917SOL    HW1 6532   3.946   4.408   4.857 -0.1571  0.0548  0.7159
 1917SOL    HW2 6533   3.895   4.439   4.996  1.4299  0.7783  1.1575
 1918SOL     OW 6534   6.234   8.221   5.330  0.7665 -0.4486 -0.0385
 1918SOL    HW1 6535   6.204   8.230   5.420  0.3120  1.1569 -0.3107
 1918SOL    HW2 6536   6.329   8.235   5.334  0.5319  1.3967  0.0176
 1919SOL     OW 6537   2.425   4.492   5.064 -0.7303  0.3514  0.3959
 1919SOL    HW1 6538   2.453   4.454   5.147 -0.0586  1.2593  0.6003
 1919SOL    HW2 6539   2.497   4.550   5.038 -1.5953  1.2718 -0.0343
 1920SOL     OW 6540   4.507   0.641   0.883  0.8077 -0.2122  0.2363
 1920SOL    HW1 6541   4.549   0.559   0.906  1.6371  0.3772  0.8987
 1920SOL    HW2 6542   4.517   0.696   0.961 -1.5425 -0.1561  0.5608
 1921SOL     OW 6543   1.005   2.849   3.751 -0.1957  0.1066 -0.1250
 1921SOL    HW1 6544   0.912   2.824   3.745  0.3374 -2.5509  1.1313
 1921SOL    HW2 6545   1.035   2.851   3.660 -1.5083  1.2934 -0.5722
 1922SOL     OW 6546   5.594   6.701   8.177  0.1027 -0.3075  0.4881
 1922SOL    HW1 6547   5.527   6.639   8.207 -0.3840 -0.0492 -0.0512
 1922SOL    HW2 6548   5.567   6.785   8.213 -1.0095  0.1898 -1.3920
 1923SOL     OW 6549   3.147   4.776   3.120 -0.4399 -0.7045  0.1288
 1923SOL    HW1 6550   3.211   4.716   3.083  0.7730  1.4020 -1.3987
 1923SOL    HW2 6551   3.186   4.804   3.204  0.1268 -0.2848 -0.2668
 1924SOL     OW 6552   2.410   4.739   1.491  0.4231  0.4793 -0.8038
 1924SOL    HW1 6553   2.486   4.730   1.434  0.8027  1.0145 -0.3980
 1924SOL    HW2 6554   2.433   4.688   1.569  0.8006  1.4404 -0.2650
 1925SOL     OW 6555   2.212   5.341   2.517 -1.0015  0.7383  0.4552
 1925SOL    HW1 6556   2.219   5.293   2.600  0.1191 -0.0033 -0.0402
 1925SOL    HW2 6557   2.118   5.346   2.499 -1.1861 -0.2729  1.0998
 1926SOL     OW 6558   2.300   6.236   0.383  0.3228  0.4125 -0.3627
 1926SOL    HW1 6559   2.236   6.240   0.455 -0.2229 -1.7863 -0.6503
 1926SOL    HW2 6560   2.331   6.146   0.384  1.8890  0.9003 -1.5777
 1927SOL     OW 6561   2.295   7.097   2.096 -0.0783 -0.3289 -0.0358
 1927SOL    HW1 6562   2.208   7.138   2.090 -0.7943 -1.6493  0.7508
 1927SOL    HW2 6563   2.353   7.157   2.051 -1.8157 -0.5502 -2.8351
 1928SOL     OW 6564   0.451   2.958   6.853 -0.7328  0.4092 -0.0268
 1928SOL    HW1 6565   0.540   2.946   6.886 -0.3696  1.5057 -0.5578
 1928SOL    HW2 6566   0.407   3.008   6.921 -1.3925 -1.3094  0.8770
 1929SOL     OW 6567   6.162   3.117   6.462  0.4322  0.6342  0.3952
 1929SOL    HW1 6568   6.137   3.059   6.533  0.1259 -0.2303 -0.3964
 1929SOL    HW2 6569   6.254   3.138   6.479  0.0192  1.4946  1.7423
 1930SOL     OW 6570   2.255   0.961   3.128  0.1013  0.2045 -0.0056
 1930SOL    HW1 6571   2.265   1.023   3.200 -1.8637  0.7967 -0.1996
 1930SOL    HW2 6572   2.232   0.878   3.170 -1.1019  0.5633  0.0752
 1931SOL     OW 6573   7.359   1.021   0.854 -0.4792 -0.9925  0.0905
 1931SOL    HW1 6574   7.450   1.041   0.834 -0.4846 -1.3235 -0.2757
 1931SOL    HW2 6575   7.363   0.942   0.908 -0.6433 -2.4344 -1.8911
 1932SOL     OW 6576   5.000   6.414   7.389  0.8675 -0.5570 -0.1267
 1932SOL    HW1 6577   5.074   6.365   7.423  0.7527 -0.4022  0.3533
 1932SOL    HW2 6578   5.030   6.449   7.305  2.2634  1.6676  1.2046
 1933SOL     OW 6579   7.178   5.958   2.301 -0.0109 -0.1392 -0.1749
 1933SOL    HW1 6580   7.201   6.029   2.361 -1.5192  1.6496 -1.5856
 1933SOL    HW2 6581   7.083   5.964   2.293  0.1515  0.1034 -3.1278
 1934SOL     OW 6582   6.887   5.461   1.863 -0.2668 -0.5164  0.0527
 1934SOL    HW1 6583   6.870   5.414   1.781 -0.0499 -0.7813  0.1614
 1934SOL    HW2 6584   6.953   5.409   1.908 -0.5502 -0.4948  0.5035
 1935SOL     OW 6585   8.183   5.371   6.817  0.0227  0.1931 -0.2672
 1935SOL    HW1 6586   8.108   5.430   6.809 -0.9686 -1.0672 -0.5982
 1935SOL    HW2 6587   8.240   5.414   6.880 -0.7953  1.3729 -0.2911
 1936SOL     OW 6588   3.673   6.981   6.096  0.2534 -0.1601 -0.4215
 1936SOL    HW1 6589   3.752   6.977   6.151 -1.1665  0.9023  1.8778
 1936SOL    HW2 6590   3.648   6.890   6.083  0.6772 -0.4507  0.6967
 1937SOL     OW 6591   3.083   3.308   2.012  0.7702 -0.1265 -0.3798
 1937SOL    HW1 6592   3.052   3.218   2.017  0.4008  0.0330  2.8628
 1937SOL    HW2 6593   3.178   3.301   2.021  0.7771 -0.2305 -0.5427
 1938SOL     OW 6594   7.257   0.616   1.618  0.4976 -0.3443 -0.1093
 1938SOL    HW1 6595   7.221   0.558   1.550 -2.4062  0.3210  0.7181
 1938SOL    HW2 6596   7.350   0.620   1.598  0.3603 -2.9578 -1.9416
 1939SOL     OW 6597   5.113   3.254   2.365 -0.1496 -0.1387  0.1790
 1939SOL    HW1 6598   5.075   3.271   2.451  1.6894 -0.1385  1.0318
 1939SOL    HW2 6599   5.136   3.161   2.366 -0.2945 -0.1865 -0.3897
 1940SOL     OW 6600   3.552   5.945   2.661 -0.3510 -0.3745  0.3297
 1940SOL    HW1 6601   3.620   5.970   2.598 -0.1563  0.3712  0.8283
 1940SOL    HW2 6602   3.600   5.911   2.737 -0.4963  0.8589  0.9892
 1941SOL     OW 6603   2.132   4.315   4.815 -0.0452 -0.2182 -0.1448
 1941SOL    HW1 6604   2.143   4.329   4.909  1.8670 -0.2997 -0.3269
 1941SOL    HW2 6605   2.106   4.400   4.781 -2.5927 -0.5865  0.6535
 1942SOL     OW 6606   6.630   3.658   1.569 -0.3324  0.2113  0.5891
 1942SOL    HW1 6607   6.671   3.736   1.532 -1.0515  0.4800  0.3276
 1942SOL    HW2 6608   6.609   3.604   1.492  0.9662 -0.6657  0.8182
 1943SOL     OW 6609   1.596   5.693   4.997 -0.2468  0.3153  0.4354
 1943SOL    HW1 6610   1.504   5.669   4.992 -0.1165 -0.1411  0.2453
 1943SOL    HW2 6611   1.614   5.702   5.091 -0.0655 -1.2216  0.5664
 1944SOL     OW 6612   3.953   6.919   2.015 -0.0460 -0.0945  0.3249
 1944SOL    HW1 6613   3.892   6.909   2.088 -1.1568  0.5232 -0.4808
 1944SOL    HW2 6614   3.930   6.847   1.956  0.5673 -0.3463  0.3934
 1945SOL     OW 6615   0.330   7.176   3.304  0.2460  0.3249  0.3021
 1945SOL    HW1 6616   0.344   7.199   3.213 -0.8482  0.6216  0.1932
 1945SOL    HW2 6617   0.326   7.080   3.304  2.4346  0.1893  0.3961
 1946SOL     OW 6618   2.483   8.030   2.999 -0.2647 -0.1877 -0.1861
 1946SOL    HW1 6619   2.566   8.066   3.030 -0.8234  2.6526 -1.6178
 1946SOL    HW2 6620   2.508   7.949   2.953  1.6509  0.3451 -0.1758
 1947SOL     OW 6621   4.251   7.264   6.191 -0.0710  0.0657  0.8763
 1947SOL    HW1 6622   4.330   7.212   6.204  0.7026  0.6431 -1.1724
 1947SOL    HW2 6623   4.239   7.311   6.274  1.4469 -0.4020  1.3875
 1948SOL     OW 6624   5.926   4.353   7.841 -0.7343 -0.0068  0.2654
 1948SOL    HW1 6625   6.004   4.321   7.884 -0.5939  1.6544  1.3373
 1948SOL    HW2 6626   5.948   4.443   7.816 -1.9730  0.1634 -0.2784
 1949SOL     OW 6627   3.162   4.113   5.049  0.6145 -0.2035  0.0557
 1949SOL    HW1 6628   3.169   4.053   4.975  0.2939 -0.0754 -0.0842
 1949SOL    HW2 6629   3.241   4.167   5.044  0.7976 -0.4752  0.0557
 1950SOL     OW 6630   7.701   2.044   3.254 -0.4668 -0.1897  0.0183
 1950SOL    HW1 6631   7.710   1.967   3.198  1.1018 -0.3830  0.4776
 1950SOL    HW2 6632   7.640   2.018   3.322  1.0728 -1.5514  0.9512
 1951SOL     OW 6633   4.472   1.708   2.011  0.0107  0.1062  0.0203
 1951SOL    HW1 6634   4.488   1.618   1.983 -1.3586 -0.3982  0.7546
 1951SOL    HW2 6635   4.538   1.726   2.078 -0.7052 -0.9441  1.0438
 1952SOL     OW 6636   2.162   2.643   5.393 -0.4331 -0.1789 -0.1824
 1952SOL    HW1 6637   2.215   2.657   5.472 -1.2394 -0.6259  0.4538
 1952SOL    HW2 6638   2.178   2.551   5.371 -0.2000 -0.0506 -0.5556
 1953SOL     OW 6639   5.877   0.107   3.744  0.4729 -0.3929  0.0625
 1953SOL    HW1 6640   5.833   0.183   3.706  0.3928 -0.3169  0.3108
 1953SOL    HW2 6641   5.952   0.092   3.686  1.2022  0.6299  0.7101
 1954SOL     OW 6642   6.965   1.431   6.362 -0.4693  0.0854  0.4652
 1954SOL    HW1 6643   7.056   1.432   6.333 -0.6692  0.8417 -0.1564
 1954SOL    HW2 6644   6.921   1.495   6.306 -1.4670 -0.5601  0.4866
 1955SOL     OW 6645   1.214   5.438   7.942  0.2957 -0.3882 -0.3409
 1955SOL    HW1 6646   1.194   5.360   7.994 -0.5108 -0.0852 -0.1918
 1955SOL    HW2 6647   1.131   5.483   7.932  0.5577 -0.1022 -1.3620
 1956SOL     OW 6648   0.541   8.038   1.598  0.4637 -0.1351  0.3668
 1956SOL    HW1 6649   0.579   8.026   1.511  1.8698 -0.3613  0.9782
 1956SOL    HW2 6650   0.539   8.133   1.611  0.8339 -0.1214  0.3271
 1957SOL     OW 6651   2.363   6.807   6.904 -0.2360 -0.4570 -0.0331
 1957SOL    HW1 6652   2.270   6.802   6.883 -0.1088 -0.0311 -0.6999
 1957SOL    HW2 6653   2.393   6.889   6.865  0.4066 -0.5620  0.2263
 1958SOL     OW 6654   3.307   2.052   4.975 -0.4626  0.4434  0.0284
 1958SOL    HW1 6655   3.251   2.110   5.028 -1.3030  1.6581 -2.0864
 1958SOL    HW2 6656   3.246   1.988   4.938 -0.4162  1.3658 -1.7506
 1959SOL     OW 6657   3.407   5.124   1.520 -0.5561 -0.5704 -0.2012
 1959SOL    HW1 6658   3.358   5.043   1.537 -0.8220 -0.4262 -0.2784
 1959SOL    HW2 6659   3.493   5.108   1.560 -0.7695 -0.7027  0.2139
 1960SOL     OW 6660   5.048   1.766   7.590  0.3936  0.6049  1.1177
 1960SOL    HW1 6661   5.021   1.731   7.675 -0.0792 -3.3684 -0.4140
 1960SOL    HW2 6662   5.131   1.722   7.571  0.9833  2.1380 -0.0757
 1961SOL     OW 6663   5.421   1.528   5.648  0.2746 -0.1918  0.5555
 1961SOL    HW1 6664   5.461   1.586   5.583 -1.5073  0.5931  0.0740
 1961SOL    HW2 6665   5.406   1.446   5.601  4.3630 -1.8399  1.6991
 1962SOL     OW 6666   3.168   4.246   5.308  0.1489  0.3238  0.0407
 1962SOL    HW1 6667   3.252   4.221   5.347  0.3120  0.6070 -0.1230
 1962SOL    HW2 6668   3.158   4.187   5.233 -0.3732 -0.5136  0.7511
 1963SOL     OW 6669   4.592   2.339   5.922  0.6004  0.0437 -1.1456
 1963SOL    HW1 6670   4.632   2.296   5.997  0.8244 -1.0138 -1.8574
 1963SOL    HW2 6671   4.665   2.378   5.874  0.7591 -1.4336 -2.1565
 1964SOL     OW 6672   4.986   4.715   6.225  0.3031 -0.2147 -0.3359
 1964SOL    HW1 6673   4.949   4.744   6.142 -0.4288 -0.2098 -0.0193
 1964SOL    HW2 6674   4.913   4.673   6.270  0.1441  1.4672  1.1041
 1965SOL     OW 6675   3.842   1.629   6.967 -0.2221  0.1976  0.3407
 1965SOL    HW1 6676   3.893   1.647   7.046  0.2984 -2.8968  0.8681
 1965SOL    HW2 6677   3.753   1.617   6.998 -0.2759  0.3721  0.2515
 1966SOL     OW 6678   2.615   7.914   7.289 -0.4181  0.3685 -0.1812
 1966SOL    HW1 6679   2.626   7.820   7.277 -0.7222  0.3872 -0.6274
 1966SOL    HW2 6680   2.569   7.923   7.372 -2.2696  0.0091 -1.1108
 1967SOL     OW 6681   7.326   6.339   7.275  0.1665 -0.4303 -0.0445
 1967SOL    HW1 6682   7.337   6.284   7.352 -0.6951 -0.1092  0.3088
 1967SOL    HW2 6683   7.233   6.362   7.274  0.6520  1.7335  0.3010
 1968SOL     OW 6684   1.175   8.059   2.647 -0.0268  0.1668  0.1062
 1968SOL    HW1 6685   1.203   7.985   2.700  0.2274  1.3595  1.6918
 1968SOL    HW2 6686   1.247   8.075   2.587  0.8849  0.5099  1.2640
 1969SOL     OW 6687   5.821   5.114   7.891  0.2458  0.3230  0.2899
 1969SOL    HW1 6688   5.857   5.177   7.953  3.7594 -1.9007  0.8203
 1969SOL    HW2 6689   5.885   5.111   7.820 -0.6053 -1.4856 -0.4785
 1970SOL     OW 6690   4.951   0.668   4.425  0.1360  0.3808  0.1197
 1970SOL    HW1 6691   4.940   0.754   4.466  3.2982  0.8591  0.1721
 1970SOL    HW2 6692   5.013   0.682   4.354  0.3028 -1.7606 -0.2266
 1971SOL     OW 6693   6.352   2.970   3.945 -0.1288 -0.5101  0.4498
 1971SOL    HW1 6694   6.405   2.892   3.928  1.7818  0.8758 -0.1990
 1971SOL    HW2 6695   6.351   2.978   4.040  1.4714 -0.1492  0.4490
 1972SOL     OW 6696   1.340   1.436   6.211 -0.1222 -0.3061  0.2279
 1972SOL    HW1 6697   1.296   1.447   6.296 -0.0569  0.1956  0.2017
 1972SOL    HW2 6698   1.312   1.512   6.160 -0.6361 -0.9170 -0.4162
 1973SOL     OW 6699   4.405   1.388   7.294 -0.2237 -0.0713  0.2763
 1973SOL    HW1 6700   4.312   1.395   7.276 -0.1300 -0.2629 -0.3103
 1973SOL    HW2 6701   4.425   1.462   7.351 -0.7463 -0.0720  0.4575
 1974SOL     OW 6702   5.517   4.195   7.413 -0.0544  0.8393 -1.2752
 1974SOL    HW1 6703   5.577   4.194   7.338  1.5377  2.0589 -0.0877
 1974SOL    HW2 6704   5.574   4.196   7.490 -1.6318 -1.6850  0.0446
 1975SOL     OW 6705   7.267   2.179   5.175  0.4281 -0.5557  0.8532
 1975SOL    HW1 6706   7.238   2.260   5.132  0.1065 -1.5383 -0.8808
 1975SOL    HW2 6707   7.345   2.205   5.223 -0.0568  0.9304  0.9076
 1976SOL     OW 6708   3.976   1.044   1.302 -0.4065  0.0173 -0.2112
 1976SOL    HW1 6709   3.960   1.002   1.386  0.1260  0.4449  0.1097
 1976SOL    HW2 6710   4.027   1.122   1.323  0.0106 -0.0370 -0.9597
 1977SOL     OW 6711   7.751   3.872   5.953  0.0814  0.1437  0.5266
 1977SOL    HW1 6712   7.688   3.917   6.009  1.3577  1.4301  0.9791
 1977SOL    HW2 6713   7.778   3.795   6.004  0.1118  0.4926  1.0414
 1978SOL     OW 6714   8.172   3.635   0.594 -0.2188 -0.0243 -0.1412
 1978SOL    HW1 6715   8.246   3.583   0.626  0.1496  0.3919 -0.3104
 1978SOL    HW2 6716   8.097   3.602   0.643 -0.3791 -2.1652 -1.6893
 1979SOL     OW 6717   7.495   7.662   5.401  0.1788  0.1653 -0.4847
 1979SOL    HW1 6718   7.557   7.599   5.366  0.9139  0.7494 -0.2693
 1979SOL    HW2 6719   7.548   7.738   5.425 -0.4941  0.3468  0.5231
 1980SOL     OW 6720   2.539   3.556   2.289  0.2917 -0.1561 -0.0320
 1980SOL    HW1 6721   2.575   3.494   2.225  1.9228 -2.2024  2.6301
 1980SOL    HW2 6722   2.453   3.520   2.312 -0.0750  0.3018 -0.6426
 1981SOL     OW 6723   2.942   0.531   6.501  0.7132  0.2049 -0.5757
 1981SOL    HW1 6724   3.017   0.473   6.486  0.5487  0.1513 -1.1850
 1981SOL    HW2 6725   2.881   0.478   6.552  0.5608 -0.1641 -1.1339
 1982SOL     OW 6726   1.032   0.307   3.965  0.4545 -0.0155  0.0761
 1982SOL    HW1 6727   0.956   0.337   3.916  0.9696  0.7125 -0.2973
 1982SOL    HW2 6728   1.055   0.381   4.021  1.4576  0.1297 -0.5088
 1983SOL     OW 6729   7.216   5.222   7.941  0.3095  0.0016 -0.3396
 1983SOL    HW1 6730   7.240   5.159   7.874 -0.1992 -0.3161 -0.2305
 1983SOL    HW2 6731   7.159   5.285   7.895 -0.7507 -0.7009 -0.0281
 1984SOL     OW 6732   8.170   6.776   1.050  0.3223 -0.0857 -0.5824
 1984SOL    HW1 6733   8.116   6.749   1.124  0.0442 -1.7025 -1.3411
 1984SOL    HW2 6734   8.251   6.809   1.089 -0.5336  0.8086  0.4947
 1985SOL     OW 6735   2.536   1.879   4.625 -0.0572  0.6681  0.3147
 1985SOL    HW1 6736   2.556   1.801   4.676 -2.4813 -1.0583 -1.1779
 1985SOL    HW2 6737   2.599   1.944   4.656  2.2357 -1.8924  1.4677
 1986SOL     OW 6738   1.703   6.687   0.635  0.3131 -0.4044 -0.0308
 1986SOL    HW1 6739   1.740   6.720   0.717  1.9575  0.2670 -0.9956
 1986SOL    HW2 6740   1.660   6.605   0.660 -0.9157  0.7243  1.8182
 1987SOL     OW 6741   1.470   4.119   3.762 -0.3631  0.4050 -0.4964
 1987SOL    HW1 6742   1.410   4.105   3.689  0.6181  0.3322 -1.3091
 1987SOL    HW2 6743   1.496   4.031   3.789  1.1376  0.4557 -1.6616
 1988SOL     OW 6744   4.417   4.614   4.616 -0.4832  0.1710 -0.1156
 1988SOL    HW1 6745   4.441   4.672   4.543 -0.7183  2.4780  1.5491
 1988SOL    HW2 6746   4.417   4.671   4.693 -0.9315 -2.0373  1.6088
 1989SOL     OW 6747   5.859   6.036   5.096 -0.3603 -0.4231  0.2827
 1989SOL    HW1 6748   5.766   6.024   5.116 -0.6230  1.1695  0.1625
 1989SOL    HW2 6749   5.860   6.079   5.011  0.4403  0.3905  0.6796
 1990SOL     OW 6750   3.969   3.158   6.442 -0.1867  0.0889  0.3899
 1990SOL    HW1 6751   3.902   3.146   6.374  1.3844 -0.8650 -1.0619
 1990SOL    HW2 6752   3.957   3.248   6.471 -0.7186  0.6568 -1.4284
 1991SOL     OW 6753   2.418   7.909   4.994 -0.3456 -0.0379 -0.4079
 1991SOL    HW1 6754   2.492   7.851   4.981  1.1273  1.7921 -0.6561
 1991SOL    HW2 6755   2.431   7.947   5.081 -1.7313 -0.6489  0.1028
 1992SOL     OW 6756   1.477   2.289   1.660  0.5298  0.7278 -0.2646
 1992SOL    HW1 6757   1.549   2.228   1.674  0.3014  0.5076 -0.0207
 1992SOL    HW2 6758   1.403   2.250   1.707  0.1296  0.7234 -0.8830
 1993SOL     OW 6759   7.838   0.456   4.857  0.1733 -0.3402  0.1139
 1993SOL    HW1 6760   7.832   0.508   4.777  1.3828 -1.3788 -0.6925
 1993SOL    HW2 6761   7.783   0.379   4.839  0.0032 -0.3051  0.4946
 1994SOL     OW 6762   6.559   8.060   2.698  0.2617  0.5854  0.2833
 1994SOL    HW1 6763   6.476   8.090   2.662 -0.6708 -0.5401  1.3925
 1994SOL    HW2 6764   6.625   8.090   2.635 -1.0455  0.8444 -1.0213
 1995SOL     OW 6765   3.803   2.913   2.444  0.0748 -0.2196 -0.6134
 1995SOL    HW1 6766   3.752   2.984   2.482  0.0217 -0.4339 -0.2813
 1995SOL    HW2 6767   3.752   2.834   2.461  0.9199 -0.5543  0.5071
 1996SOL     OW 6768   6.437   0.703   3.795  0.4513 -0.6448  0.6913
 1996SOL    HW1 6769   6.520   0.702   3.842 -0.5663  1.6493  2.7735
 1996SOL    HW2 6770   6.385   0.634   3.835  2.1353 -4.2267 -2.6244
 1997SOL     OW 6771   0.216   2.487   2.318 -0.1321  0.3233 -0.5413
 1997SOL    HW1 6772   0.140   2.490   2.260  1.0074 -0.7818 -2.1857
 1997SOL    HW2 6773   0.224   2.395   2.343 -0.0046  0.6230  0.5807
 1998SOL     OW 6774   7.983   0.211   3.550 -0.1501  0.3234 -0.1908
 1998SOL    HW1 6775   8.067   0.178   3.519 -0.5638 -1.7109  0.6488
 1998SOL    HW2 6776   7.984   0.193   3.644 -0.2542  3.2909  0.4843
 1999SOL     OW 6777   0.889   1.986   6.204  0.0554  0.1186  0.1334
 1999SOL    HW1 6778   0.959   1.963   6.266  1.1665 -0.3875 -1.2565
 1999SOL    HW2 6779   0.844   1.904   6.187  1.2598 -0.2456 -1.5003
 2000SOL     OW 6780   0.579   2.579   4.145 -1.5992  0.1953 -0.1127
 2000SOL    HW1 6781   0.550   2.670   4.147 -0.4083  0.5780  0.7319
 2000SOL    HW2 6782   0.541   2.540   4.224 -1.8957  0.0145 -0.3401
 2001SOL     OW 6783   1.144   1.312   0.964 -0.4949  0.2238  0.3708
 2001SOL    HW1 6784   1.232   1.347   0.948  0.0939 -1.4541 -0.2678
 2001SOL    HW2 6785   1.104   1.376   1.022  0.7112  1.6482 -0.2846
 2002SOL     OW 6786   6.941   2.350   7.633  0.0905 -0.2391 -0.0738
 2002SOL    HW1 6787   6.860   2.399   7.623 -0.4609 -0.8113  1.2524
 2002SOL    HW2 6788   6.960   2.354   7.727  1.4936 -0.2782 -0.3405
 2003SOL     OW 6789   2.309   2.520   4.119  0.5020 -0.3014  0.0735
 2003SOL    HW1 6790   2.222   2.542   4.087  0.3714  0.0915  0.6954
 2003SOL    HW2 6791   2.369   2.570   4.063  0.4319 -1.7403 -1.3769
 2004SOL     OW 6792   6.295   3.980   8.128  0.3211 -0.0983 -0.2567
 2004SOL    HW1 6793   6.287   3.943   8.216  1.4680 -2.5530 -1.0958
 2004SOL    HW2 6794   6.388   3.995   8.116  0.1513  0.4201 -0.9912
 2005SOL     OW 6795   6.239   5.788   7.041  1.2398 -0.6748 -0.2775
 2005SOL    HW1 6796   6.227   5.709   6.988  0.9360 -1.4030  0.8289
 2005SOL    HW2 6797   6.150   5.813   7.067  1.1615  1.0930 -2.0521
 2006SOL     OW 6798   5.413   3.557   3.150 -0.4303 -0.3130 -0.2301
 2006SOL    HW1 6799   5.322   3.530   3.165  0.3823 -1.9880  2.4876
 2006SOL    HW2 6800   5.416   3.647   3.181 -1.1912 -0.1972 -0.4626
 2007SOL     OW 6801   0.271   2.348   4.803  0.6946 -0.2345  0.1772
 2007SOL    HW1 6802   0.315   2.405   4.740  1.0227 -1.3495 -0.6240
 2007SOL    HW2 6803   0.217   2.407   4.855  1.8097  0.9385  0.0396
 2008SOL     OW 6804   7.478   4.517   4.989  0.6019  0.2809 -0.3489
 2008SOL    HW1 6805   7.413   4.583   4.963  3.4225  2.6068 -2.0859
 2008SOL    HW2 6806   7.471   4.449   4.923  0.0114  0.5309 -0.5560
 2009SOL     OW 6807   0.298   7.380   4.885  0.3332 -0.0664  0.0560
 2009SOL    HW1 6808   0.304   7.316   4.955 -1.3097 -0.0185  0.2774
 2009SOL    HW2 6809   0.334   7.335   4.808 -0.5830 -1.1862  0.2607
 2010SOL     OW 6810   2.316   7.227   4.157 -0.0755  0.1696  0.1319
 2010SOL    HW1 6811   2.246   7.161   4.157 -0.3944  0.4866  1.3184
 2010SOL    HW2 6812   2.293   7.286   4.085 -0.5679 -0.2097 -0.0271
 2011SOL     OW 6813   4.719   0.699   4.148  0.1428 -0.1357 -0.1108
 2011SOL    HW1 6814   4.657   0.749   4.202  1.7831  0.2450  1.5130
 2011SOL    HW2 6815   4.743   0.624   4.203  2.2924  0.5725 -0.0077
 2012SOL     OW 6816   3.585   4.015   2.984  0.7038  0.6825  0.1770
 2012SOL    HW1 6817   3.596   3.920   2.979  0.7562  0.6455  0.9394
 2012SOL    HW2 6818   3.638   4.049   2.911 -1.0518  0.0182 -1.4735
 2013SOL     OW 6819   4.605   8.155   6.313  0.4508 -0.2765 -0.0838
 2013SOL    HW1 6820   4.597   8.205   6.232  1.0665 -0.9811 -0.5860
 2013SOL    HW2 6821   4.535   8.190   6.369  0.4483  0.6846 -0.6571
 2014SOL     OW 6822   4.378   0.242   4.659  0.3902 -0.0152  0.4960
 2014SOL    HW1 6823   4.380   0.147   4.664  0.6526  0.0072  0.8660
 2014SOL    HW2 6824   4.453   0.271   4.713 -0.5970  0.4357  1.6779
 2015SOL     OW 6825   7.325   5.290   4.711  0.3284  0.0518 -0.0138
 2015SOL    HW1 6826   7.308   5.300   4.617  0.9123 -0.3786 -0.1773
 2015SOL    HW2 6827   7.420   5.302   4.719  0.0041  2.5257  0.8774
 2016SOL     OW 6828   7.751   7.321   0.250 -0.1076 -0.4631 -0.5710
 2016SOL    HW1 6829   7.730   7.305   0.158  0.1606 -0.7064 -0.5927
 2016SOL    HW2 6830   7.795   7.406   0.251 -0.5617 -0.2273 -0.6014
 2017SOL     OW 6831   1.919   6.106   7.731 -0.2691  0.2366  0.4116
 2017SOL    HW1 6832   2.012   6.106   7.751  0.2309 -0.9649 -1.6347
 2017SOL    HW2 6833   1.877   6.135   7.813  1.7768 -0.4839  1.8067
 2018SOL     OW 6834   7.306   7.289   2.329 -0.0169 -0.2966  0.0906
 2018SOL    HW1 6835   7.288   7.291   2.423  0.7028 -1.1263  0.2566
 2018SOL    HW2 6836   7.370   7.359   2.316 -0.3537  0.0259  0.1663
 2019SOL     OW 6837   3.500   4.476   1.013 -0.5108  0.1079  0.2174
 2019SOL    HW1 6838   3.575   4.507   1.064 -1.5687 -0.9305  2.5175
 2019SOL    HW2 6839   3.524   4.495   0.922  1.6969  1.5382  1.0159
 2020SOL     OW 6840   4.412   1.996   7.709  0.4428  0.8902 -0.1324
 2020SOL    HW1 6841   4.496   2.021   7.748  0.1811  0.1171  0.9824
 2020SOL    HW2 6842   4.417   1.901   7.702 -0.0519  0.9057 -0.7590
 2021SOL     OW 6843   3.015   1.695   6.010  0.4242  0.5191 -0.3103
 2021SOL    HW1 6844   2.992   1.759   6.076 -0.2638  1.4976 -1.4632
 2021SOL    HW2 6845   3.101   1.723   5.978  1.0524 -0.3183  0.5713
 2022SOL     OW 6846   5.183   6.014   2.346 -0.0508 -0.4247 -0.2180
 2022SOL    HW1 6847   5.119   6.063   2.397 -0.7673 -1.4003 -0.1456
 2022SOL    HW2 6848   5.132   5.975   2.274  0.6840 -0.2447 -0.8539
 2023SOL     OW 6849   2.644   1.095   0.305  0.4900 -0.2732  0.0892
 2023SOL    HW1 6850   2.619   1.004   0.319 -1.4477  0.3978  1.3629
 2023SOL    HW2 6851   2.618   1.114   0.215  0.0551 -0.7142  0.1205
 2024SOL     OW 6852   2.243   5.190   0.549 -0.0469 -0.0468  0.5274
 2024SOL    HW1 6853   2.306   5.263   0.547  2.0872 -1.7802  0.5024
 2024SOL    HW2 6854   2.245   5.159   0.639 -0.7313 -0.2764  0.4719
 2025SOL     OW 6855   4.965   2.961   3.090 -0.4979 -0.0240  0.1577
 2025SOL    HW1 6856   4.920   2.958   3.174  0.6824  1.7487  0.8912
 2025SOL    HW2 6857   4.945   3.048   3.055 -1.9666 -1.1316 -2.0162
 2026SOL     OW 6858   1.002   2.868   5.848  0.2744  0.2674 -0.0909
 2026SOL    HW1 6859   0.913   2.876   5.815 -0.0422 -1.2684  0.3268
 2026SOL    HW2 6860   1.024   2.775   5.837  1.4341  0.4059  0.7963
 2027SOL     OW 6861   3.187   3.977   7.301  0.3812 -0.1378 -0.2742
 2027SOL    HW1 6862   3.249   4.039   7.339  0.3566 -0.7059  0.7232
 2027SOL    HW2 6863   3.125   3.958   7.372  0.5205 -1.4658 -0.4899
 2028SOL     OW 6864   0.218   4.861   3.562 -0.1329  0.1764 -0.1428
 2028SOL    HW1 6865   0.293   4.813   3.527  0.9709  0.2515  1.9856
 2028SOL    HW2 6866   0.157   4.793   3.590  0.3439  0.0390  0.5916
 2029SOL     OW 6867   6.632   7.753   5.539  0.3404  0.2612  0.1922
 2029SOL    HW1 6868   6.639   7.664   5.573 -0.0924  0.2476  0.2510
 2029SOL    HW2 6869   6.722   7.783   5.530  0.5341 -0.6538 -1.0868
 2030SOL     OW 6870   3.538   8.182   3.033  0.0572 -0.0152 -0.0367
 2030SOL    HW1 6871   3.563   8.110   3.090  1.4515  0.0443 -0.5539
 2030SOL    HW2 6872   3.621   8.218   3.001 -0.3881  3.2189  1.8980
 2031SOL     OW 6873   0.477   5.625   0.204  1.0192  0.5238 -0.2996
 2031SOL    HW1 6874   0.478   5.539   0.244 -1.9004 -0.0019 -1.0746
 2031SOL    HW2 6875   0.429   5.680   0.266  1.1859  1.0919 -0.6658
 2032SOL     OW 6876   3.380   3.208   6.715 -0.1395  0.4067  0.0107
 2032SOL    HW1 6877   3.338   3.148   6.653  0.4829 -0.1354  0.0975
 2032SOL    HW2 6878   3.421   3.274   6.660 -1.0059  0.8850 -0.0785
 2033SOL     OW 6879   7.287   6.947   3.348 -0.3463 -0.5837 -0.4622
 2033SOL    HW1 6880   7.261   7.024   3.298 -1.3753  0.0730  1.0010
 2033SOL    HW2 6881   7.243   6.874   3.305  0.2014 -0.2967 -1.5373
 2034SOL     OW 6882   4.590   1.404   6.898  0.2839 -0.1463  0.5425
 2034SOL    HW1 6883   4.552   1.478   6.945  0.7571 -0.5089  1.5057
 2034SOL    HW2 6884   4.616   1.342   6.966  1.0951 -0.6250 -0.1797
 2035SOL     OW 6885   3.974   6.756   5.743  0.0175  0.3263  0.2803
 2035SOL    HW1 6886   3.979   6.850   5.765 -2.6486  0.9560 -1.3508
 2035SOL    HW2 6887   4.032   6.714   5.806  0.1213  2.9203  2.0957
 2036SOL     OW 6888   7.660   4.646   6.363  0.0931  0.0869 -0.8319
 2036SOL    HW1 6889   7.735   4.600   6.326  0.1698  0.7106 -1.4730
 2036SOL    HW2 6890   7.586   4.619   6.309  0.0580  0.3579 -0.9217
 2037SOL     OW 6891   0.846   6.378   3.740  0.4665 -1.1778 -0.3773
 2037SOL    HW1 6892   0.915   6.372   3.805 -0.4761 -0.6504  0.7027
 2037SOL    HW2 6893   0.851   6.468   3.707  1.0755 -1.5013 -1.2204
 2038SOL     OW 6894   5.987   2.735   2.159  0.2624  0.2366 -0.6057
 2038SOL    HW1 6895   5.926   2.700   2.225  2.4549 -0.7338  1.0349
 2038SOL    HW2 6896   6.007   2.660   2.103  2.6776 -0.5191  1.1111
 2039SOL     OW 6897   7.371   1.004   0.220  0.0077 -0.1958  0.3523
 2039SOL    HW1 6898   7.344   1.075   0.162 -0.9892  0.1981  1.2682
 2039SOL    HW2 6899   7.419   1.047   0.291 -0.9537 -0.3759  1.1269
 2040SOL     OW 6900   3.273   2.671   5.340 -0.0401 -0.5663  0.0660
 2040SOL    HW1 6901   3.333   2.731   5.295 -1.1760  1.2696  0.9105
 2040SOL    HW2 6902   3.254   2.603   5.275 -0.3518  1.1159 -1.6748
 2041SOL     OW 6903   1.543   4.371   3.754 -0.0787 -0.4649 -1.3750
 2041SOL    HW1 6904   1.512   4.284   3.779 -0.9772  0.5920  1.6847
 2041SOL    HW2 6905   1.482   4.400   3.686  0.0390 -2.0612 -2.1963
 2042SOL     OW 6906   3.601   5.333   1.357  0.4619  0.0835  0.4747
 2042SOL    HW1 6907   3.595   5.282   1.277  0.5987  0.3194  0.3111
 2042SOL    HW2 6908   3.686   5.309   1.394  1.6208  1.8807 -0.7964
 2043SOL     OW 6909   7.067   6.290   5.776 -0.2872  0.6856  0.5422
 2043SOL    HW1 6910   7.104   6.378   5.783  0.3299  0.5310 -0.5643
 2043SOL    HW2 6911   7.081   6.265   5.685  2.2080 -1.7103  1.4383
 2044SOL     OW 6912   3.924   7.700   6.750 -0.5367  0.2901 -0.1580
 2044SOL    HW1 6913   3.889   7.769   6.694 -0.5990  0.1015 -0.3518
 2044SOL    HW2 6914   4.010   7.680   6.714 -1.2519 -1.0042 -1.2214
 2045SOL     OW 6915   1.499   2.341   4.943 -0.2149 -0.1165 -0.0478
 2045SOL    HW1 6916   1.503   2.264   4.999 -0.4514  0.4194  0.7256
 2045SOL    HW2 6917   1.585   2.382   4.951 -0.2676 -0.0071 -0.0298
 2046SOL     OW 6918   1.843   3.929   5.030 -0.4477  0.0858  0.5233
 2046SOL    HW1 6919   1.885   4.002   5.075  1.4083 -0.4735 -0.1786
 2046SOL    HW2 6920   1.765   3.967   4.990  0.2205  1.5961  0.5773
 2047SOL     OW 6921   7.443   3.356   7.302 -0.3319  0.4859  0.1876
 2047SOL    HW1 6922   7.379   3.359   7.230 -0.1378 -0.8772 -0.0604
 2047SOL    HW2 6923   7.435   3.267   7.337  1.5375  0.2334  0.0440
 2048SOL     OW 6924   1.441   3.574   7.557 -1.0195  0.3894  0.1286
 2048SOL    HW1 6925   1.356   3.553   7.595 -0.1729  0.2687  2.1043
 2048SOL    HW2 6926   1.477   3.489   7.530 -1.3640  0.3930 -0.3387
 2049SOL     OW 6927   7.364   7.380   4.854 -0.3849 -0.1805 -0.2336
 2049SOL    HW1 6928   7.273   7.351   4.865 -0.5258 -0.0775 -1.0751
 2049SOL    HW2 6929   7.382   7.432   4.933 -1.1644  0.0805 -0.2179
 2050SOL     OW 6930   1.934   6.313   2.860  0.6855  0.6113  0.3071
 2050SOL    HW1 6931   1.888   6.275   2.935  0.0256 -1.0010 -0.8602
 2050SOL    HW2 6932   1.868   6.316   2.791  1.5235  1.2390 -0.4834
 2051SOL     OW 6933   3.723   1.369   5.785  0.2493  0.5880 -0.1603
 2051SOL    HW1 6934   3.686   1.419   5.712  2.0911  0.4619 -1.2238
 2051SOL    HW2 6935   3.786   1.428   5.826  1.3790 -0.3444 -0.5150
 2052SOL     OW 6936   3.337   2.372   4.917 -0.1500  0.0420  0.8057
 2052SOL    HW1 6937   3.420   2.332   4.889  0.9262  3.1262 -0.8592
 2052SOL    HW2 6938   3.277   2.357   4.844  0.7489  2.6152 -0.5859
 2053SOL     OW 6939   4.525   0.857   7.062  0.0534  0.0860  0.0624
 2053SOL    HW1 6940   4.467   0.889   7.131  1.6750  1.3195  0.9147
 2053SOL    HW2 6941   4.501   0.908   6.984 -0.1056  0.4689  0.3603
 2054SOL     OW 6942   3.923   0.499   4.011 -0.1482 -0.4015 -0.0375
 2054SOL    HW1 6943   4.004   0.547   4.029 -0.7728  0.4270  0.6317
 2054SOL    HW2 6944   3.907   0.512   3.918  1.0677 -1.5095 -0.4361
 2055SOL     OW 6945   3.207   6.889   5.266  0.4500  0.2330  0.3711
 2055SOL    HW1 6946   3.218   6.805   5.311  3.0311 -0.1768 -0.8043
 2055SOL    HW2 6947   3.152   6.869   5.191 -0.4523  0.0259  1.0654
 2056SOL     OW 6948   2.119   7.071   7.615  0.3883 -0.2396  0.0767
 2056SOL    HW1 6949   2.199   7.064   7.563 -0.4726 -2.2857 -1.1054
 2056SOL    HW2 6950   2.141   7.131   7.685  2.0554  1.5617 -1.8501
 2057SOL     OW 6951   7.712   0.227   4.141 -0.1548 -0.6601  0.0449
 2057SOL    HW1 6952   7.621   0.198   4.146 -1.5115  3.1322  2.7527
 2057SOL    HW2 6953   7.757   0.179   4.210 -0.2128 -2.0744 -0.8739
 2058SOL     OW 6954   7.019   2.029   6.766  0.0316 -0.4275  0.5140
 2058SOL    HW1 6955   6.973   2.075   6.836 -1.2322 -0.0767 -0.5140
 2058SOL    HW2 6956   6.950   1.994   6.710  1.0002 -1.5573 -0.0318
 2059SOL     OW 6957   2.640   6.775   0.065 -0.0549  0.2199 -0.0222
 2059SOL    HW1 6958   2.720   6.724   0.074 -0.7890 -0.7412  1.4788
 2059SOL    HW2 6959   2.634   6.826   0.146  0.4278  2.4270 -1.2929
 2060SOL     OW 6960   0.397   3.987   2.702  0.3897  0.0975  0.0836
 2060SOL    HW1 6961   0.354   3.979   2.617  2.3545 -1.1109 -0.8894
 2060SOL    HW2 6962   0.379   3.903   2.745 -1.0170  0.8889  1.1390
 2061SOL     OW 6963   1.193   1.326   5.668 -0.1434  0.2888  0.2592
 2061SOL    HW1 6964   1.152   1.295   5.749  0.1004  0.6715  0.5358
 2061SOL    HW2 6965   1.164   1.417   5.659 -1.6479 -0.2818 -1.0755
 2062SOL     OW 6966   7.713   4.212   0.578  0.2841 -0.2963 -0.4187
 2062SOL    HW1 6967   7.709   4.257   0.662  2.4434 -1.4099  0.3344
 2062SOL    HW2 6968   7.629   4.165   0.572 -0.6408  1.1930  0.2400
 2063SOL     OW 6969   4.097   0.081   8.127 -0.0511  0.2374 -0.0383
 2063SOL    HW1 6970   4.112   0.069   8.033 -1.0789 -0.0008 -0.1883
 2063SOL    HW2 6971   4.134   0.166   8.147  2.6777 -0.8529 -0.0583
 2064SOL     OW 6972   7.055   5.312   6.343 -0.2195 -0.2237 -0.4338
 2064SOL    HW1 6973   7.005   5.231   6.350 -1.0838  0.3167 -0.1268
 2064SOL    HW2 6974   7.091   5.327   6.430  0.2286 -0.4485 -0.5761
 2065SOL     OW 6975   7.053   6.629   0.839  0.2884 -0.1324 -1.1039
 2065SOL    HW1 6976   7.083   6.715   0.868  0.0596 -0.2615 -0.4832
 2065SOL    HW2 6977   7.105   6.566   0.890 -1.0262 -0.3590  0.0113
 2066SOL     OW 6978   3.964   4.855   3.568 -0.1757 -0.3365  0.2628
 2066SOL    HW1 6979   3.965   4.759   3.562  0.2834 -0.3571  0.5632
 2066SOL    HW2 6980   4.015   4.874   3.648  2.4527  0.2656 -1.4233
 2067SOL     OW 6981   1.933   6.616   1.866 -0.0088 -0.1047  0.1970
 2067SOL    HW1 6982   1.953   6.532   1.826 -0.8160  0.3087 -1.1147
 2067SOL    HW2 6983   1.848   6.602   1.909  0.3897 -0.2664  0.9489
 2068SOL     OW 6984   2.134   1.847   4.948 -0.8044  0.5891  0.8204
 2068SOL    HW1 6985   2.205   1.911   4.941 -0.7990  0.5245  0.2202
 2068SOL    HW2 6986   2.056   1.900   4.965 -0.4440  0.5772  2.7411
 2069SOL     OW 6987   2.362   3.701   0.781 -0.8600  0.7019 -0.1997
 2069SOL    HW1 6988   2.290   3.671   0.727 -0.7009  1.9488 -1.1603
 2069SOL    HW2 6989   2.395   3.779   0.736  1.2485  0.0324  0.0604
 2070SOL     OW 6990   6.940   7.985   4.035 -0.2381 -0.0928 -0.4062
 2070SOL    HW1 6991   6.960   8.000   3.943  1.0345 -1.2723 -0.3446
 2070SOL    HW2 6992   6.863   7.928   4.033 -0.3300  0.0356 -0.7230
 2071SOL     OW 6993   0.242   4.943   7.069 -0.8129 -0.4273 -0.5516
 2071SOL    HW1 6994   0.238   5.007   6.998 -1.7803 -0.2593 -0.3524
 2071SOL    HW2 6995   0.204   4.863   7.031  2.7726 -1.7952 -1.6888
 2072SOL     OW 6996   3.945   3.000   0.986 -0.2808 -0.4305 -0.1505
 2072SOL    HW1 6997   3.999   3.067   1.029  1.2649 -0.3727 -2.0760
 2072SOL    HW2 6998   3.954   2.923   1.042  0.3105  0.1084  0.5183
 2073SOL     OW 6999   1.525   1.697   8.156  0.1964 -0.1300 -0.3529
 2073SOL    HW1 7000   1.467   1.628   8.186 -0.1444 -0.0853 -0.8806
 2073SOL    HW2 7001   1.611   1.657   8.153  0.2943 -0.0515  0.9312
 2074SOL     OW 7002   5.383   7.726   3.305  0.0872 -0.1594 -0.1248
 2074SOL    HW1 7003   5.297   7.721   3.263 -1.4745 -1.0285  2.8605
 2074SOL    HW2 7004   5.382   7.809   3.352  1.3704  0.3368 -0.9357
 2075SOL     OW 7005   3.436   4.867   5.249 -0.0052 -0.4196 -0.2059
 2075SOL    HW1 7006   3.405   4.946   5.205 -0.4688 -1.3118 -1.5020
 2075SOL    HW2 7007   3.424   4.886   5.342 -0.7324  0.7717 -0.5202
 2076SOL     OW 7008   4.233   7.114   6.655 -0.0686  0.1829  0.3665
 2076SOL    HW1 7009   4.249   7.032   6.702  0.1777  0.1239  0.1808
 2076SOL    HW2 7010   4.320   7.143   6.627 -0.1936  0.3174  0.1133
 2077SOL     OW 7011   2.627   5.415   5.503 -0.0940 -0.2079  0.1304
 2077SOL    HW1 7012   2.559   5.481   5.486  0.0215 -0.1103  0.0449
 2077SOL    HW2 7013   2.578   5.335   5.522 -0.2349 -0.1785 -0.0932
 2078SOL     OW 7014   2.647   2.347   0.665 -0.1543 -0.0009 -0.3236
 2078SOL    HW1 7015   2.624   2.287   0.736 -0.5951 -1.3518 -1.5641
 2078SOL    HW2 7016   2.735   2.319   0.638 -0.8326 -0.9036 -1.6882
 2079SOL     OW 7017   0.961   0.858   7.416 -0.7204  0.3242  0.1779
 2079SOL    HW1 7018   0.888   0.917   7.399  1.3639  2.3382 -2.7809
 2079SOL    HW2 7019   0.997   0.838   7.330  1.6806 -1.2919  1.4226
 2080SOL     OW 7020   1.100   2.875   0.396  0.2617  0.3655  0.1572
 2080SOL    HW1 7021   1.114   2.874   0.301 -0.0087  0.6123  0.1150
 2080SOL    HW2 7022   1.183   2.844   0.432  0.5175  0.6895 -0.1403
 2081SOL     OW 7023   3.942   8.188   2.315  0.0376  0.6448 -0.1619
 2081SOL    HW1 7024   3.858   8.216   2.279 -1.0826 -0.3039  1.6119
 2081SOL    HW2 7025   3.962   8.254   2.382  0.5823  0.7040 -0.3776
 2082SOL     OW 7026   8.054   5.394   2.494  0.1934 -0.1407 -0.3826
 2082SOL    HW1 7027   8.060   5.449   2.572  1.4453 -1.5869  0.6119
 2082SOL    HW2 7028   8.143   5.360   2.482 -0.2323 -0.8483 -1.7695
 2083SOL     OW 7029   5.753   0.523   2.975  0.0853 -0.2258 -0.2641
 2083SOL    HW1 7030   5.785   0.613   2.970  0.8374 -0.0789  3.9241
 2083SOL    HW2 7031   5.832   0.470   2.969 -0.2953 -0.6446 -2.1032
 2084SOL     OW 7032   4.076   7.918   1.492 -0.0752  0.6016 -0.4879
 2084SOL    HW1 7033   4.054   7.999   1.446 -0.1105  0.8379 -0.0616
 2084SOL    HW2 7034   4.105   7.947   1.578 -0.1258  0.1576 -0.3204
 2085SOL     OW 7035   6.639   7.812   8.321  0.3601  0.3715 -0.1452
 2085SOL    HW1 7036   6.607   7.722   8.335  0.8257  0.2869  0.4021
 2085SOL    HW2 7037   6.712   7.821   8.382  0.2011  1.1906 -0.0728
 2086SOL     OW 7038   4.763   1.755   1.435  0.4476 -0.4638 -0.1067
 2086SOL    HW1 7039   4.855   1.782   1.423 -0.0069  1.3225  0.0960
 2086SOL    HW2 7040   4.725   1.759   1.348  0.5373 -1.1873 -0.1877
 2087SOL     OW 7041   5.104   2.137   3.914 -0.0893  0.0029  0.1688
 2087SOL    HW1 7042   5.020   2.145   3.869 -0.5744  0.5826  1.1296
 2087SOL    HW2 7043   5.161   2.202   3.871  0.4457 -1.5810 -1.6439
 2088SOL     OW 7044   7.682   4.448   5.732  0.3294 -0.0304  0.5233
 2088SOL    HW1 7045   7.709   4.357   5.721 -0.0814 -0.2641  1.3840
 2088SOL    HW2 7046   7.663   4.478   5.643  0.8461 -0.6604  0.1868
 2089SOL     OW 7047   8.185   8.106   1.405  0.2890 -0.0567  0.1094
 2089SOL    HW1 7048   8.103   8.155   1.410  0.3428  0.0899 -0.3634
 2089SOL    HW2 7049   8.228   8.139   1.326  0.8402 -0.0759  0.3923
 2090SOL     OW 7050   6.377   1.350   1.134 -0.0456  0.1297  0.1011
 2090SOL    HW1 7051   6.285   1.378   1.133 -0.0943 -0.0222 -1.0114
 2090SOL    HW2 7052   6.427   1.431   1.140 -0.1716  0.6177 -3.4919
 2091SOL     OW 7053   6.259   6.798   2.307 -0.0954 -0.4258 -0.5811
 2091SOL    HW1 7054   6.200   6.773   2.378 -1.2475 -2.2974 -2.1054
 2091SOL    HW2 7055   6.229   6.885   2.281 -1.2272 -0.7226 -0.3410
 2092SOL     OW 7056   1.055   3.028   3.323  0.1660  0.0591 -0.0261
 2092SOL    HW1 7057   1.048   2.937   3.352  2.1928 -0.8340 -2.0519
 2092SOL    HW2 7058   1.011   3.030   3.239  1.5608  0.5018 -0.7755
 2093SOL     OW 7059   5.661   4.391   7.788 -0.4069 -0.5057 -0.4655
 2093SOL    HW1 7060   5.745   4.367   7.826  0.2818 -0.5641 -1.9412
 2093SOL    HW2 7061   5.684   4.441   7.709 -1.7765  1.1750  0.1332
 2094SOL     OW 7062   4.278   6.653   2.841  0.0021 -0.9941  0.3016
 2094SOL    HW1 7063   4.251   6.637   2.931 -1.9037 -0.6424 -0.1760
 2094SOL    HW2 7064   4.219   6.600   2.788 -0.9211  1.0887 -0.8706
 2095SOL     OW 7065   4.396   3.119   6.573  0.1485 -0.7841  0.1265
 2095SOL    HW1 7066   4.456   3.141   6.644  0.1602 -0.8963  0.1524
 2095SOL    HW2 7067   4.310   3.110   6.616  0.1453 -0.7970  0.1176
 2096SOL     OW 7068   3.436   7.691   6.930 -0.1200 -0.0754  0.5427
 2096SOL    HW1 7069   3.443   7.771   6.982  1.0010  0.8736 -0.9744
 2096SOL    HW2 7070   3.348   7.657   6.950 -0.4033  1.2066  1.6468
 2097SOL     OW 7071   1.979   1.677   6.463  0.2468  0.7493  0.8578
 2097SOL    HW1 7072   1.906   1.614   6.470  1.1082 -0.3068  0.6310
 2097SOL    HW2 7073   1.947   1.743   6.403 -0.0624 -0.4059 -0.2963
 2098SOL     OW 7074   0.716   3.673   4.973 -0.3840  0.2564  0.4628
 2098SOL    HW1 7075   0.793   3.616   4.969  0.9306  1.9809 -0.4328
 2098SOL    HW2 7076   0.710   3.699   5.065  0.1171  0.1121  0.5403
 2099SOL     OW 7077   4.848   4.203   7.604 -0.5887 -0.2354 -0.3193
 2099SOL    HW1 7078   4.921   4.191   7.665  0.2246 -1.5251 -1.5074
 2099SOL    HW2 7079   4.854   4.295   7.578 -1.0409  0.3924  1.6085
 2100SOL     OW 7080   4.164   2.625   3.090  0.6066 -0.4685 -0.1280
 2100SOL    HW1 7081   4.128   2.559   3.031  1.5677  0.6798 -2.1172
 2100SOL    HW2 7082   4.258   2.623   3.073  0.6027  1.8290 -0.7695
 2101SOL     OW 7083   3.351   7.136   4.282  0.0431  0.1748 -0.1695
 2101SOL    HW1 7084   3.306   7.105   4.203  0.5024 -2.0667  0.3949
 2101SOL    HW2 7085   3.438   7.162   4.251  0.4966 -1.4352 -0.3284
 2102SOL     OW 7086   8.181   7.403   7.455  0.0296  0.1040 -0.4839
 2102SOL    HW1 7087   8.260   7.348   7.457  1.3332  1.8922 -0.0805
 2102SOL    HW2 7088   8.109   7.341   7.450  1.5064 -1.5986 -2.6366
 2103SOL     OW 7089   5.375   7.977   3.419  0.1905  0.0432  0.2268
 2103SOL    HW1 7090   5.301   8.011   3.469 -1.2274 -1.3689 -0.8403
 2103SOL    HW2 7091   5.438   8.049   3.418  0.5754  0.0221  4.4378
 2104SOL     OW 7092   7.072   4.868   3.026  0.1628 -0.0800  0.1915
 2104SOL    HW1 7093   7.015   4.883   3.102  0.6688  0.3557  0.4963
 2104SOL    HW2 7094   7.073   4.952   2.981  2.2891  0.6231  1.4006
 2105SOL     OW 7095   7.018   2.699   3.083  0.2174  0.6895 -0.6327
 2105SOL    HW1 7096   7.108   2.689   3.050  0.2433 -0.8964 -0.1305
 2105SOL    HW2 7097   6.966   2.640   3.029 -0.3484  0.8150 -0.2260
 2106SOL     OW 7098   5.088   7.151   4.446  0.2226  0.4382  0.9472
 2106SOL    HW1 7099   5.159   7.216   4.441 -0.7127  1.3926 -1.6142
 2106SOL    HW2 7100   5.076   7.122   4.355 -2.7329  0.4213  1.2712
 2107SOL     OW 7101   4.432   2.886   2.455 -0.0492  0.3758  0.0847
 2107SOL    HW1 7102   4.434   2.790   2.461  0.1918  0.2303 -1.7921
 2107SOL    HW2 7103   4.493   2.915   2.523 -0.7915 -0.7500  1.2775
 2108SOL     OW 7104   2.221   1.864   5.770 -0.7534 -0.4364  0.2709
 2108SOL    HW1 7105   2.217   1.771   5.748  0.1542 -0.5788  0.6753
 2108SOL    HW2 7106   2.286   1.901   5.711 -1.3786  0.0270 -0.1439
 2109SOL     OW 7107   7.882   5.698   7.021  0.0952  0.6648  0.3247
 2109SOL    HW1 7108   7.820   5.630   7.047 -1.5294  1.5740 -0.9634
 2109SOL    HW2 7109   7.912   5.736   7.103 -0.1810 -0.5584  1.0143
 2110SOL     OW 7110   8.244   8.158   1.667  0.3174 -0.1227  0.0010
 2110SOL    HW1 7111   8.240   8.131   1.575  0.4800 -1.0546  0.2589
 2110SOL    HW2 7112   8.197   8.089   1.714 -0.7475  0.9054  0.5134
 2111SOL     OW 7113   3.988   6.904   7.816 -0.6728  0.5258  0.2401
 2111SOL    HW1 7114   4.045   6.972   7.782  0.6156 -1.3634 -1.6184
 2111SOL    HW2 7115   3.914   6.902   7.755 -1.5352  1.2979  1.2222
 2112SOL     OW 7116   6.316   6.439   1.347  0.9576  0.3282 -0.8058
 2112SOL    HW1 7117   6.295   6.399   1.263  0.4700 -2.4922  0.5234
 2112SOL    HW2 7118   6.406   6.471   1.338  1.2838 -0.8892 -2.0685
 2113SOL     OW 7119   4.219   7.876   7.233 -0.1392  0.4659 -0.3321
 2113SOL    HW1 7120   4.259   7.858   7.318 -1.3790  0.5934  0.3087
 2113SOL    HW2 7121   4.153   7.943   7.251 -0.5644  0.3474 -1.3513
 2114SOL     OW 7122   3.254   6.869   3.388 -0.4206 -0.0717  0.2196
 2114SOL    HW1 7123   3.255   6.900   3.479  1.1052 -1.0366  0.5718
 2114SOL    HW2 7124   3.229   6.946   3.337 -2.3523  0.2380  1.5124
 2115SOL     OW 7125   4.479   6.715   6.931  0.1933  0.0607 -0.0300
 2115SOL    HW1 7126   4.464   6.743   7.021  1.4466  0.4503  0.0704
 2115SOL    HW2 7127   4.416   6.644   6.917  0.3502 -0.3617  1.3196
 2116SOL     OW 7128   3.087   7.579   2.248 -0.3210 -0.0138  0.1117
 2116SOL    HW1 7129   3.083   7.530   2.166 -2.0682 -0.8347  0.6335
 2116SOL    HW2 7130   3.180   7.585   2.268  0.2453  1.1218 -2.4277
 2117SOL     OW 7131   7.298   4.533   5.752 -0.0364 -0.4769  0.6123
 2117SOL    HW1 7132   7.311   4.563   5.662  0.8829  0.2210  0.9687
 2117SOL    HW2 7133   7.374   4.566   5.800 -1.3613  0.6799  2.0294
 2118SOL     OW 7134   1.103   5.893   1.332  0.9442  0.8435 -0.5636
 2118SOL    HW1 7135   1.013   5.861   1.335  0.4709  2.1792  1.2085
 2118SOL    HW2 7136   1.145   5.840   1.264 -0.7838 -0.8055 -0.4382
 2119SOL     OW 7137   5.342   2.102   2.837 -0.1338 -0.1736 -0.8380
 2119SOL    HW1 7138   5.423   2.077   2.883 -2.1430 -1.2909  2.4678
 2119SOL    HW2 7139   5.322   2.190   2.871 -1.6867 -1.0380  0.6011
 2120SOL     OW 7140   5.703   1.999   4.434  0.6967 -0.5138 -0.3264
 2120SOL    HW1 7141   5.774   2.055   4.402  0.5107 -1.0364 -1.7469
 2120SOL    HW2 7142   5.623   2.045   4.407  0.5433 -1.2556 -1.1974
 2121SOL     OW 7143   2.904   3.111   1.459 -0.7370  0.3198 -0.1375
 2121SOL    HW1 7144   2.821   3.157   1.475 -0.7478  0.3719 -0.3436
 2121SOL    HW2 7145   2.967   3.156   1.516 -0.7070  0.7124 -0.4795
 2122SOL     OW 7146   0.946   0.031   0.242  0.0624  0.5184  0.1587
 2122SOL    HW1 7147   0.951   0.063   0.332 -2.2422 -0.5816  0.7560
 2122SOL    HW2 7148   0.896  -0.050   0.249 -0.3979  0.5509 -2.1614
 2123SOL     OW 7149   5.847   4.251   6.775 -0.2348  0.3658  0.3045
 2123SOL    HW1 7150   5.898   4.330   6.759 -0.4374  0.5040  0.3374
 2123SOL    HW2 7151   5.907   4.193   6.822 -0.1631  0.5954  0.4989
 2124SOL     OW 7152   6.834   3.149   3.896 -0.0495  0.1279  0.9462
 2124SOL    HW1 7153   6.750   3.153   3.851  0.7014  0.0104 -0.5142
 2124SOL    HW2 7154   6.830   3.218   3.962  0.0625  2.5957 -1.4988
 2125SOL     OW 7155   5.193   5.572   5.339 -0.2689  0.3528  0.2481
 2125SOL    HW1 7156   5.237   5.567   5.424 -1.4919 -0.5803  0.8636
 2125SOL    HW2 7157   5.100   5.582   5.361 -0.5608  0.5017 -0.9872
 2126SOL     OW 7158   8.249   6.738   7.671 -0.1533  0.2303  0.4176
 2126SOL    HW1 7159   8.207   6.681   7.607 -1.7236  1.2412  0.5008
 2126SOL    HW2 7160   8.183   6.804   7.692  0.4125  0.1501  2.8088
 2127SOL     OW 7161   4.213   5.100   4.228  0.0941 -0.0480 -0.3665
 2127SOL    HW1 7162   4.118   5.091   4.240 -0.0872  0.8422 -1.0701
 2127SOL    HW2 7163   4.234   5.185   4.266  0.4377  0.2263 -1.1549
 2128SOL     OW 7164   2.991   7.503   4.300 -0.0773 -0.8045  0.3077
 2128SOL    HW1 7165   2.957   7.576   4.250 -0.7525 -1.0890  0.3426
 2128SOL    HW2 7166   2.914   7.454   4.328  0.3104 -0.9254  1.2044
 2129SOL     OW 7167   0.956   1.588   0.962  0.4462 -0.5252 -0.2775
 2129SOL    HW1 7168   0.879   1.537   0.937 -0.9561  1.0834  0.5046
 2129SOL    HW2 7169   0.963   1.574   1.057  0.2359  0.4157 -0.1096
 2130SOL     OW 7170   6.563   3.296   3.772 -0.4741 -0.5359  0.6782
 2130SOL    HW1 7171   6.609   3.342   3.702 -1.1974 -0.2708  0.3720
 2130SOL    HW2 7172   6.582   3.347   3.851 -1.9298  0.7977  0.2158
 2131SOL     OW 7173   7.371   8.301   4.932 -0.2608  0.0551  0.3476
 2131SOL    HW1 7174   7.326   8.217   4.945 -0.4255 -0.0144 -0.5767
 2131SOL    HW2 7175   7.464   8.280   4.942 -0.2703 -0.3413 -0.3197
 2132SOL     OW 7176   1.848   5.414   3.131 -0.5136 -0.1344  0.4961
 2132SOL    HW1 7177   1.829   5.416   3.038 -0.3959 -0.2724  0.4690
 2132SOL    HW2 7178   1.803   5.491   3.167  0.4824  0.6519  0.1293
 2133SOL     OW 7179   5.533   2.641   4.567 -0.5038  0.1146 -0.2272
 2133SOL    HW1 7180   5.544   2.736   4.565  1.7117 -0.0780 -0.2509
 2133SOL    HW2 7181   5.557   2.615   4.656 -0.9322 -0.4333 -0.2640
 2134SOL     OW 7182   2.062   4.495   1.657  0.3426 -0.1651  0.5057
 2134SOL    HW1 7183   2.136   4.471   1.713  1.1681  0.2194 -0.3856
 2134SOL    HW2 7184   2.046   4.587   1.678  0.3793 -0.1373  0.4120
 2135SOL     OW 7185   6.172   2.050   0.189 -0.3549 -0.1729 -0.7317
 2135SOL    HW1 7186   6.265   2.051   0.209 -0.4930 -2.3102  0.2529
 2135SOL    HW2 7187   6.166   2.000   0.107 -0.6178  0.2452 -0.9716
 2136SOL     OW 7188   2.194   3.041   6.428 -0.3876  0.1299  0.4592
 2136SOL    HW1 7189   2.254   3.054   6.354 -0.7009 -1.5079 -0.1294
 2136SOL    HW2 7190   2.108   3.031   6.388 -0.4460 -1.6048  0.9480
 2137SOL     OW 7191   2.896   0.372   1.788  0.3590 -0.5228 -0.2281
 2137SOL    HW1 7192   2.989   0.386   1.808  0.0038 -0.4774  1.5756
 2137SOL    HW2 7193   2.862   0.323   1.863 -1.4065  0.8323 -0.0642
 2138SOL     OW 7194   3.517   0.912   0.572  0.6317 -0.5744  0.1010
 2138SOL    HW1 7195   3.580   0.892   0.503  0.8068  0.6426 -0.1086
 2138SOL    HW2 7196   3.449   0.845   0.563  1.0332 -0.8707 -0.7604
 2139SOL     OW 7197   1.697   7.875   5.133  0.3267 -0.3773  0.1662
 2139SOL    HW1 7198   1.772   7.856   5.077  1.6166 -2.2847  2.3404
 2139SOL    HW2 7199   1.649   7.793   5.137 -0.7476  0.2498  0.4011
 2140SOL     OW 7200   2.057   0.843   1.631  0.4939  0.2170  0.0134
 2140SOL    HW1 7201   2.055   0.800   1.717  1.3509  0.7420  0.3130
 2140SOL    HW2 7202   2.149   0.838   1.605  0.7107  2.2134  0.2538
 2141SOL     OW 7203   0.895   6.819   2.559  0.3695  0.5014 -0.3387
 2141SOL    HW1 7204   0.987   6.806   2.582  0.6027  0.3593 -1.3307
 2141SOL    HW2 7205   0.878   6.910   2.583  0.8869  0.6592 -0.5512
 2142SOL     OW 7206   4.670   5.677   7.570 -0.8512  0.3118  0.1048
 2142SOL    HW1 7207   4.658   5.590   7.532 -1.5558  0.3665  0.1884
 2142SOL    HW2 7208   4.624   5.736   7.510 -1.5076  0.4619  0.7465
 2143SOL     OW 7209   5.433   6.941   2.035  0.3016  0.0479  0.3459
 2143SOL    HW1 7210   5.488   6.869   2.065 -0.7643 -0.7886  0.3212
 2143SOL    HW2 7211   5.435   7.005   2.107 -0.3635 -0.9078  1.2442
 2144SOL     OW 7212   5.968   6.200   3.648  0.3061 -0.0364 -0.0501
 2144SOL    HW1 7213   5.915   6.145   3.707  2.7150 -2.6375 -0.0650
 2144SOL    HW2 7214   6.050   6.213   3.696  0.9590  0.9049 -1.3738
 2145SOL     OW 7215   3.356   4.586   7.789  0.4706 -0.7637 -0.0200
 2145SOL    HW1 7216   3.387   4.676   7.799 -0.6803 -0.2766 -0.6239
 2145SOL    HW2 7217   3.393   4.539   7.864  0.6356  0.3415  0.6082
 2146SOL     OW 7218   1.693   2.214   3.148 -0.3643  0.3724 -0.1233
 2146SOL    HW1 7219   1.785   2.191   3.134 -0.4436 -1.0854  1.4905
 2146SOL    HW2 7220   1.694   2.309   3.163  0.7875  0.4727 -0.7016
 2147SOL     OW 7221   6.720   0.483   0.639  0.2379  0.3477 -0.7371
 2147SOL    HW1 7222   6.684   0.537   0.709  1.2112  0.3545 -0.2241
 2147SOL    HW2 7223   6.724   0.542   0.563 -1.6183  0.1073 -1.0777
 2148SOL     OW 7224   7.452   0.884   1.827 -0.8007  0.3267 -0.4295
 2148SOL    HW1 7225   7.532   0.911   1.872  0.2723  1.0850 -2.6293
 2148SOL    HW2 7226   7.393   0.959   1.836 -1.0853 -0.0198  0.7360
 2149SOL     OW 7227   3.186   4.044   7.038  0.1059 -0.1578 -0.4882
 2149SOL    HW1 7228   3.195   4.025   7.132 -0.0862 -0.8866 -0.6085
 2149SOL    HW2 7229   3.136   4.125   7.034  1.2227  0.5792  0.0667
 2150SOL     OW 7230   0.503   6.344   2.805  0.3715 -0.0647 -0.5206
 2150SOL    HW1 7231   0.578   6.311   2.855  0.6990  0.7888 -0.4277
 2150SOL    HW2 7232   0.426   6.316   2.855  0.5498 -1.9580 -1.2230
 2151SOL     OW 7233   5.994   4.786   7.601  0.3245 -0.7135 -0.6229
 2151SOL    HW1 7234   6.069   4.790   7.542  0.6950  0.8547 -0.0864
 2151SOL    HW2 7235   5.919   4.773   7.543  0.8123 -0.3759 -1.3420
 2152SOL     OW 7236   6.101   3.666   2.283 -0.0810  0.9439 -0.7646
 2152SOL    HW1 7237   6.156   3.590   2.264  0.0050  0.9065 -0.3882
 2152SOL    HW2 7238   6.153   3.719   2.343 -1.3614 -0.3165  1.6416
 2153SOL     OW 7239   2.489   4.618   1.142 -0.1054  0.6065  0.4132
 2153SOL    HW1 7240   2.517   4.529   1.121  0.2815  0.8437 -0.0981
 2153SOL    HW2 7241   2.563   4.656   1.190  0.4829  1.2235 -0.9137
 2154SOL     OW 7242   0.859   3.637   3.621 -0.1701  0.3794  0.6810
 2154SOL    HW1 7243   0.813   3.553   3.619  1.2746 -0.4534  0.8940
 2154SOL    HW2 7244   0.926   3.626   3.688  2.3374  0.4292 -1.6715
 2155SOL     OW 7245   3.315   1.577   7.185 -0.5786 -0.5146  0.0362
 2155SOL    HW1 7246   3.350   1.610   7.103 -0.2647 -1.1418 -0.0919
 2155SOL    HW2 7247   3.225   1.609   7.188  0.2620  1.9232  0.8260
 2156SOL     OW 7248   2.941   2.909   7.478 -0.3114  0.1127  0.3125
 2156SOL    HW1 7249   3.027   2.884   7.511 -0.3809  0.7712  1.0164
 2156SOL    HW2 7250   2.959   2.973   7.409 -0.2196 -0.1857  0.0572
 2157SOL     OW 7251   1.212   8.079   3.391 -0.7530  0.8315  0.5335
 2157SOL    HW1 7252   1.304   8.104   3.398 -0.1805 -0.6292 -1.1830
 2157SOL    HW2 7253   1.168   8.132   3.458  1.2946  1.6318  1.3263
 2158SOL     OW 7254   1.343   5.328   8.280  0.4082  1.3848 -0.1022
 2158SOL    HW1 7255   1.255   5.308   8.312  0.5114 -0.6004 -0.9056
 2158SOL    HW2 7256   1.371   5.403   8.332 -2.2089  2.8573 -0.6526
 2159SOL     OW 7257   4.109   3.625   0.988  0.0586  0.1268  0.4362
 2159SOL    HW1 7258   4.075   3.590   0.905  0.6097  1.6226 -0.4600
 2159SOL    HW2 7259   4.068   3.711   0.996  0.2805  0.1390  1.5588
 2160SOL     OW 7260   2.476   7.894   3.338  0.0254  0.0333 -0.2496
 2160SOL    HW1 7261   2.553   7.931   3.380  0.7757 -1.2557 -0.4527
 2160SOL    HW2 7262   2.402   7.938   3.380  0.7607 -0.6485  1.8715
 2161SOL     OW 7263   7.393   0.321   5.047  0.4247  0.1648  0.3887
 2161SOL    HW1 7264   7.338   0.274   5.110  0.5912 -0.7936 -0.1592
 2161SOL    HW2 7265   7.356   0.299   4.962  3.0344 -2.5561 -0.2201
 2162SOL     OW 7266   4.221   3.282   5.059  0.5166  0.3239  0.4780
 2162SOL    HW1 7267   4.207   3.253   5.150  1.8447 -0.8015  0.3718
 2162SOL    HW2 7268   4.236   3.200   5.011 -1.1726  0.8340 -0.9749
 2163SOL     OW 7269   2.136   6.370   6.279  0.2859 -0.2078 -0.2106
 2163SOL    HW1 7270   2.048   6.398   6.306  0.7875  0.6317  0.5898
 2163SOL    HW2 7271   2.194   6.439   6.311  1.1683 -0.3698 -1.3946
 2164SOL     OW 7272   1.272   3.785   1.528 -0.2838  0.4818  0.4950
 2164SOL    HW1 7273   1.364   3.810   1.516  0.3439 -1.0719  1.6851
 2164SOL    HW2 7274   1.269   3.693   1.502 -1.1834  0.1221  1.7779
 2165SOL     OW 7275   4.932   7.876   0.430  0.9283 -0.0636 -0.2970
 2165SOL    HW1 7276   4.946   7.951   0.489 -1.5194 -0.1554  0.4962
 2165SOL    HW2 7277   4.921   7.801   0.488 -1.2292 -0.2085 -0.8147
 2166SOL     OW 7278   3.656   0.648   1.237 -0.0947  0.0434  0.1711
 2166SOL    HW1 7279   3.670   0.571   1.182 -1.6793 -0.5071  0.4745
 2166SOL    HW2 7280   3.562   0.645   1.259  0.2129  0.9750  1.7966
 2167SOL     OW 7281   7.445   4.695   0.845  0.2613  0.0283  0.1092
 2167SOL    HW1 7282   7.499   4.660   0.774  1.5275 -2.1050  1.9781
 2167SOL    HW2 7283   7.507   4.717   0.914 -1.1047 -0.8481  1.6799
 2168SOL     OW 7284   3.991   3.767   6.333 -0.2390  0.0413  0.0057
 2168SOL    HW1 7285   3.940   3.687   6.325 -1.4247  0.4113  2.7013
 2168SOL    HW2 7286   3.954   3.826   6.267 -0.8126 -0.9083 -0.5444
 2169SOL     OW 7287   3.414   7.698   3.221  0.0205  0.1045 -0.0933
 2169SOL    HW1 7288   3.493   7.702   3.166  0.3166 -0.0774  0.3152
 2169SOL    HW2 7289   3.386   7.607   3.215 -1.1421  0.5130 -1.5934
 2170SOL     OW 7290   0.135   0.746   0.940 -0.0055  0.4444 -0.1016
 2170SOL    HW1 7291   0.206   0.693   0.904  1.2170  1.5996  0.5129
 2170SOL    HW2 7292   0.113   0.704   1.023  0.5005  0.5158  0.0698
 2171SOL     OW 7293   0.642   0.692   3.803 -0.1798  0.2170  0.3937
 2171SOL    HW1 7294   0.568   0.673   3.861  0.0146 -0.1576  0.5221
 2171SOL    HW2 7295   0.633   0.628   3.732  0.8412 -0.8126  1.1509
 2172SOL     OW 7296   1.049   1.798   5.834  0.1790  0.0853  0.2808
 2172SOL    HW1 7297   1.016   1.888   5.837 -0.4864 -0.1653  0.7073
 2172SOL    HW2 7298   1.094   1.787   5.918  1.3458  0.4124 -0.2814
 2173SOL     OW 7299   3.183   3.106   4.625  0.0629  0.4211  0.2287
 2173SOL    HW1 7300   3.240   3.038   4.587  1.5374  1.8309 -0.1854
 2173SOL    HW2 7301   3.143   3.149   4.550 -1.1655 -0.2029  0.5044
 2174SOL     OW 7302   3.284   0.391   0.241 -0.0583 -0.3128 -0.9716
 2174SOL    HW1 7303   3.339   0.331   0.292 -2.0194  0.1105  1.8687
 2174SOL    HW2 7304   3.203   0.343   0.227 -1.4385  1.3276  0.8294
 2175SOL     OW 7305   7.483   2.013   4.152 -0.4383 -0.0509 -0.4959
 2175SOL    HW1 7306   7.434   2.090   4.181 -1.4405 -0.8937  0.1222
 2175SOL    HW2 7307   7.574   2.035   4.170 -0.6626  1.1659 -0.7599
 2176SOL     OW 7308   5.477   5.458   1.135  0.3721  0.4842  0.0108
 2176SOL    HW1 7309   5.387   5.428   1.147  0.5245 -0.3688 -0.9063
 2176SOL    HW2 7310   5.492   5.516   1.210 -2.4359  4.3571 -2.0614
 2177SOL     OW 7311   0.649   5.251   7.879 -0.2937  0.1893  0.3276
 2177SOL    HW1 7312   0.590   5.283   7.947 -0.6415  1.8736 -0.6835
 2177SOL    HW2 7313   0.733   5.292   7.900  0.1447 -0.9811  0.9079
 2178SOL     OW 7314   0.475   0.946   3.260  0.4796  0.3847  0.1663
 2178SOL    HW1 7315   0.439   0.919   3.175 -0.2553  3.0955 -0.4967
 2178SOL    HW2 7316   0.406   1.000   3.299  1.4377  0.5156  1.7663
 2179SOL     OW 7317   5.284   5.841   2.100  0.3478  0.8080  0.0992
 2179SOL    HW1 7318   5.357   5.903   2.107  0.8282  0.3082 -0.4368
 2179SOL    HW2 7319   5.230   5.875   2.030  0.2727  0.9695  0.2355
 2180SOL     OW 7320   3.445   4.406   8.000 -0.2412  0.1541 -0.6834
 2180SOL    HW1 7321   3.436   4.446   8.086  1.8000 -1.6860  0.5098
 2180SOL    HW2 7322   3.458   4.313   8.018 -0.9097 -0.4862 -3.0783
 2181SOL     OW 7323   8.317   3.167   1.055  0.3226 -0.3917  0.7287
 2181SOL    HW1 7324   8.397   3.134   1.015 -0.5528 -0.3330 -1.1855
 2181SOL    HW2 7325   8.343   3.189   1.145  2.1570 -1.4089  0.5042
 2182SOL     OW 7326   4.116   3.378   5.802 -0.0655  0.0706 -0.4396
 2182SOL    HW1 7327   4.081   3.456   5.845  0.0274 -0.6149  0.9253
 2182SOL    HW2 7328   4.185   3.347   5.860 -0.6598 -1.4976 -0.5109
 2183SOL     OW 7329   2.289   2.011   4.615 -0.1846 -0.3932  0.1038
 2183SOL    HW1 7330   2.305   2.102   4.640 -2.6431  0.0776  0.1709
 2183SOL    HW2 7331   2.361   1.963   4.655  0.1594  1.2859  1.6324
 2184SOL     OW 7332   1.373   4.612   1.389 -0.8583 -0.1601 -0.1653
 2184SOL    HW1 7333   1.327   4.617   1.473  0.9075  0.5281  0.8206
 2184SOL    HW2 7334   1.409   4.700   1.377  0.3354 -0.7177 -0.7829
 2185SOL     OW 7335   2.339   1.609   8.051  0.6658  0.1219 -0.1180
 2185SOL    HW1 7336   2.384   1.660   7.983 -1.7182  2.2932 -0.2186
 2185SOL    HW2 7337   2.257   1.581   8.010  0.6975 -1.5173  0.8398
 2186SOL     OW 7338   3.237   4.658   1.400  0.2817  0.0339  0.6568
 2186SOL    HW1 7339   3.214   4.638   1.309 -0.6175 -0.8229  1.0423
 2186SOL    HW2 7340   3.318   4.610   1.415 -0.6705 -1.5882  0.8952
 2187SOL     OW 7341   6.786   8.183   1.665  0.2191  0.2868  0.3564
 2187SOL    HW1 7342   6.858   8.135   1.707  0.2287 -1.2529 -1.3204
 2187SOL    HW2 7343   6.815   8.274   1.666  2.3509 -0.3092 -0.4806
 2188SOL     OW 7344   6.907   6.950   0.994 -0.0551 -0.4000 -0.8063
 2188SOL    HW1 7345   6.941   6.904   1.070 -0.3299 -2.0718 -1.6357
 2188SOL    HW2 7346   6.819   6.914   0.982 -0.3988  0.5757 -1.3278
 2189SOL     OW 7347   6.706   4.272   0.109  0.1167  0.0722 -0.5209
 2189SOL    HW1 7348   6.763   4.195   0.112 -0.6015 -0.4436  0.2381
 2189SOL    HW2 7349   6.619   4.237   0.088 -0.4742  0.5004  1.0506
 2190SOL     OW 7350   8.238   2.723   5.836  0.7725 -0.9252 -0.0317
 2190SOL    HW1 7351   8.151   2.741   5.801  0.6912 -0.2149  0.5087
 2190SOL    HW2 7352   8.252   2.629   5.820 -0.7336 -1.4122  1.2481
 2191SOL     OW 7353   8.001   6.195   2.189 -0.1915 -0.2179  0.2876
 2191SOL    HW1 7354   7.935   6.241   2.137 -1.3463 -1.2908  0.7503
 2191SOL    HW2 7355   7.961   6.111   2.209  0.9775 -0.5461  1.3543
 2192SOL     OW 7356   4.775   6.758   5.985  0.0303 -0.3705  0.2040
 2192SOL    HW1 7357   4.832   6.832   6.005 -0.0613  0.0150 -0.9151
 2192SOL    HW2 7358   4.763   6.761   5.890  0.3367 -2.0573  0.0708
 2193SOL     OW 7359   7.736   7.205   6.144  0.7246 -0.3069  0.1955
 2193SOL    HW1 7360   7.647   7.235   6.167  0.8282  0.7810 -0.7334
 2193SOL    HW2 7361   7.726   7.111   6.130 -0.3446 -0.1667 -0.1337
 2194SOL     OW 7362   4.795   5.138   5.619 -0.0956  0.5853  0.3503
 2194SOL    HW1 7363   4.720   5.081   5.603 -0.6275  1.5892 -0.8990
 2194SOL    HW2 7364   4.834   5.151   5.532  2.0097 -0.5234  1.0531
 2195SOL     OW 7365   3.775   6.393   1.881 -0.2336 -0.1195  0.2467
 2195SOL    HW1 7366   3.712   6.322   1.875  0.0327 -0.3837  0.5434
 2195SOL    HW2 7367   3.841   6.362   1.943  0.0184  0.2829  0.1868
 2196SOL     OW 7368   3.556   3.718   0.099 -0.7672 -0.4928  0.4192
 2196SOL    HW1 7369   3.481   3.772   0.127 -2.3384 -1.8278 -1.0252
 2196SOL    HW2 7370   3.534   3.690   0.011  1.8863 -0.2419 -0.4028
 2197SOL     OW 7371   6.557   6.026   6.635  0.5564  0.3691 -0.0225
 2197SOL    HW1 7372   6.525   6.100   6.686  2.0654  0.6488  0.5866
 2197SOL    HW2 7373   6.626   5.988   6.690  0.0441 -1.2799 -0.4767
 2198SOL     OW 7374   7.798   3.027   6.807 -0.1740 -0.0538 -0.0728
 2198SOL    HW1 7375   7.741   3.006   6.733 -3.0348  2.2298  1.2674
 2198SOL    HW2 7376   7.795   3.123   6.813  0.3261 -0.1351  2.6881
 2199SOL     OW 7377   7.124   6.078   5.578 -0.0512 -0.0146 -0.8869
 2199SOL    HW1 7378   7.130   6.020   5.654  1.0859  1.7624  0.4577
 2199SOL    HW2 7379   7.073   6.028   5.514 -2.8801 -0.8235  1.7521
 2200SOL     OW 7380   6.152   3.561   5.340  0.8468 -0.3047 -0.3736
 2200SOL    HW1 7381   6.177   3.600   5.423  1.0065 -0.4265 -0.3646
 2200SOL    HW2 7382   6.126   3.635   5.285  3.0394  0.0540 -1.0352
 2201SOL     OW 7383   6.750   3.422   5.606  0.2207 -0.0729  0.2309
 2201SOL    HW1 7384   6.821   3.373   5.648  0.6015  0.5301  0.2988
 2201SOL    HW2 7385   6.692   3.447   5.679 -1.2175 -2.3471 -0.0237
 2202SOL     OW 7386   2.429   8.012   7.737  0.6382 -0.2322 -0.3507
 2202SOL    HW1 7387   2.476   8.085   7.777  0.9069  0.0558 -1.1723
 2202SOL    HW2 7388   2.340   8.045   7.725  0.6165 -0.2380 -0.2051
 2203SOL     OW 7389   7.167   7.235   3.678  0.1081 -0.6138  0.0039
 2203SOL    HW1 7390   7.193   7.251   3.587  0.8210  1.5677  0.5284
 2203SOL    HW2 7391   7.249   7.227   3.726 -0.2428 -0.1776  0.6938
 2204SOL     OW 7392   2.640   2.884   8.012 -0.0946 -0.3857  0.2787
 2204SOL    HW1 7393   2.624   2.944   7.939 -1.0202 -1.5775 -0.5708
 2204SOL    HW2 7394   2.677   2.938   8.081 -1.2702  1.2416 -0.2888
 2205SOL     OW 7395   5.458   7.406   4.051 -0.1495  0.1005  0.4596
 2205SOL    HW1 7396   5.377   7.363   4.079  0.0772 -0.0467  0.9135
 2205SOL    HW2 7397   5.489   7.452   4.130 -0.3412  1.0309  0.0046
 2206SOL     OW 7398   0.143   2.376   6.206 -0.7272  0.9394  0.1970
 2206SOL    HW1 7399   0.191   2.302   6.243 -0.7761  0.4259 -0.7385
 2206SOL    HW2 7400   0.099   2.416   6.281  1.4359  1.6578  1.1611
 2207SOL     OW 7401   4.606   1.961   7.974  0.1019 -0.0259 -0.0521
 2207SOL    HW1 7402   4.682   1.944   8.030  0.2305 -1.9556 -0.7373
 2207SOL    HW2 7403   4.631   2.037   7.922  1.9428 -1.0926 -0.8298
 2208SOL     OW 7404   7.610   2.151   5.933  0.5280 -0.1076 -0.2270
 2208SOL    HW1 7405   7.667   2.143   6.010  1.2401  2.0006 -0.4385
 2208SOL    HW2 7406   7.670   2.148   5.858 -0.1792 -2.3641 -0.7705
 2209SOL     OW 7407   6.490   1.664   5.697 -0.7761  0.2360 -0.1683
 2209SOL    HW1 7408   6.582   1.639   5.696 -0.0428  2.2798  2.8425
 2209SOL    HW2 7409   6.443   1.581   5.688  1.2927 -0.9096 -1.3713
 2210SOL     OW 7410   3.077   2.258   2.838 -0.6975  0.0569  0.5845
 2210SOL    HW1 7411   3.144   2.194   2.864 -3.0321 -2.8493 -0.0345
 2210SOL    HW2 7412   3.090   2.331   2.899  1.7653 -1.1871  1.7319
 2211SOL     OW 7413   2.573   5.796   0.130 -0.0802  0.1252  0.1158
 2211SOL    HW1 7414   2.530   5.871   0.090  0.6075  0.3480 -0.2103
 2211SOL    HW2 7415   2.611   5.830   0.211  1.7530  0.5810 -0.8767
 2212SOL     OW 7416   3.759   2.027   7.236 -0.2573 -0.0931  0.5472
 2212SOL    HW1 7417   3.802   2.035   7.322 -0.5278 -1.7464  0.8731
 2212SOL    HW2 7418   3.752   1.933   7.222 -0.3982  0.1497 -1.2216
 2213SOL     OW 7419   2.868   3.569   5.126  0.2758  0.4116 -0.1190
 2213SOL    HW1 7420   2.777   3.562   5.157 -0.0270 -0.1557 -1.0669
 2213SOL    HW2 7421   2.871   3.510   5.051  1.3336  0.7290 -0.3339
 2214SOL     OW 7422   5.127   5.707   2.593 -0.0256  0.0808 -0.3671
 2214SOL    HW1 7423   5.059   5.656   2.550  0.2116 -0.9775  0.4585
 2214SOL    HW2 7424   5.135   5.668   2.681  1.6404  0.1633 -0.4358
 2215SOL     OW 7425   7.672   5.852   7.824 -0.5128  0.1641 -0.3173
 2215SOL    HW1 7426   7.590   5.823   7.864 -1.1825  2.1300 -0.1589
 2215SOL    HW2 7427   7.740   5.804   7.873 -1.4611  0.0904  0.9998
 2216SOL     OW 7428   5.705   0.432   7.503  0.2469  0.3045 -0.0278
 2216SOL    HW1 7429   5.791   0.392   7.517  0.0473 -0.8773 -1.8577
 2216SOL    HW2 7430   5.682   0.470   7.588  0.7906 -2.8445  1.6941
 2217SOL     OW 7431   4.083   6.579   4.471 -0.4979  0.2126  0.2494
 2217SOL    HW1 7432   4.129   6.618   4.397  0.6689  0.4843  1.0931
 2217SOL    HW2 7433   3.992   6.604   4.459 -0.7007 -1.3448 -2.1142
 2218SOL     OW 7434   2.220   0.123   0.909  0.0938 -0.1855  0.4240
 2218SOL    HW1 7435   2.184   0.183   0.844 -0.0136 -0.7427 -0.0371
 2218SOL    HW2 7436   2.302   0.164   0.937  0.4120 -0.1991 -0.4637
 2219SOL     OW 7437   2.493   0.846   0.321 -0.5219 -0.2625 -0.0723
 2219SOL    HW1 7438   2.491   0.751   0.314 -2.1191 -0.2472 -0.2467
 2219SOL    HW2 7439   2.449   0.865   0.403 -1.4251  0.3586 -0.6813
 2220SOL     OW 7440   7.479   3.034   3.725 -0.3554  0.1961  0.7951
 2220SOL    HW1 7441   7.571   3.056   3.741  0.0500 -1.5778  1.0614
 2220SOL    HW2 7442   7.460   3.076   3.641  1.5464 -1.6355 -0.6699
 2221SOL     OW 7443   1.958   5.021   7.128  0.0545 -0.2407 -0.1656
 2221SOL    HW1 7444   1.881   4.971   7.156  0.1456 -0.6338 -0.5886
 2221SOL    HW2 7445   1.938   5.048   7.039 -0.2738  1.0816  0.2994
 2222SOL     OW 7446   0.646   7.443   6.893  0.0129 -0.2405 -0.0068
 2222SOL    HW1 7447   0.616   7.354   6.915  0.2801 -0.5220 -0.7501
 2222SOL    HW2 7448   0.664   7.440   6.799 -2.0064  1.1938 -0.4996
 2223SOL     OW 7449   2.512   0.595   3.264 -0.5164  0.6087  0.2125
 2223SOL    HW1 7450   2.539   0.615   3.353 -1.3361 -0.7488  0.7932
 2223SOL    HW2 7451   2.429   0.642   3.253 -0.4885  0.6591  0.2188
 2224SOL     OW 7452   1.283   7.440   1.200  0.0597  0.1426  0.8106
 2224SOL    HW1 7453   1.304   7.347   1.198  0.4654  0.2432 -0.2603
 2224SOL    HW2 7454   1.365   7.483   1.224 -0.2282  0.2061  1.7082
 2225SOL     OW 7455   8.162   1.389   1.600  0.1414 -0.4462  0.2137
 2225SOL    HW1 7456   8.150   1.336   1.521  0.9257  0.2958 -0.4176
 2225SOL    HW2 7457   8.208   1.332   1.661 -0.2133 -0.9311  0.0284
 2226SOL     OW 7458   3.967   3.780   2.191  0.4851  0.4811  0.5639
 2226SOL    HW1 7459   3.966   3.702   2.135 -1.0079  1.2340 -0.5087
 2226SOL    HW2 7460   3.920   3.753   2.270  0.1991  0.2158  0.3048
 2227SOL     OW 7461   7.168   1.094   5.805  0.3225 -0.6545  0.3474
 2227SOL    HW1 7462   7.095   1.133   5.758  0.5247 -0.5157  0.1438
 2227SOL    HW2 7463   7.141   1.094   5.897  0.1101 -0.5100  0.2851
 2228SOL     OW 7464   0.778   2.381   1.093  0.2295  0.0946 -0.3209
 2228SOL    HW1 7465   0.854   2.323   1.082  1.0543  0.8181  1.2338
 2228SOL    HW2 7466   0.710   2.325   1.132  0.4788 -0.2063 -0.3130
 2229SOL     OW 7467   5.728   5.224   4.035 -0.3397 -0.0093  0.0138
 2229SOL    HW1 7468   5.678   5.231   3.953  1.6689  1.5852 -1.1822
 2229SOL    HW2 7469   5.724   5.312   4.073  2.0707  0.4101 -0.5219
 2230SOL     OW 7470   1.044   7.020   3.049 -0.2586  0.5956  0.5773
 2230SOL    HW1 7471   1.000   7.083   2.993  0.9687  0.7744 -0.2399
 2230SOL    HW2 7472   1.036   6.937   3.001  1.7797  0.9545 -0.5174
 2231SOL     OW 7473   6.368   4.770   8.145 -0.9234 -0.1866  0.7945
 2231SOL    HW1 7474   6.359   4.798   8.054 -0.7103 -0.6222  0.6352
 2231SOL    HW2 7475   6.461   4.750   8.155 -0.8551  0.3450  1.2559
 2232SOL     OW 7476   1.955   3.003   0.498 -0.6877 -0.3923 -0.2664
 2232SOL    HW1 7477   1.889   2.976   0.434 -1.1996 -0.7106  0.3888
 2232SOL    HW2 7478   2.027   2.942   0.485 -0.2188  0.3616 -1.4386
 2233SOL     OW 7479   0.551   5.121   2.886  0.1084  0.5849 -0.2080
 2233SOL    HW1 7480   0.624   5.101   2.827  0.0940 -0.0029 -0.0286
 2233SOL    HW2 7481   0.589   5.178   2.953  0.6825 -0.6772  0.5536
 2234SOL     OW 7482   4.903   3.957   2.785  0.5110  0.5571 -0.8684
 2234SOL    HW1 7483   4.926   3.982   2.874 -0.4428  0.2892 -0.5395
 2234SOL    HW2 7484   4.884   4.040   2.741 -2.4704  0.5421  0.1744
 2235SOL     OW 7485   8.037   5.383   6.267 -0.2698 -0.6103  0.6474
 2235SOL    HW1 7486   8.033   5.435   6.187 -3.5779 -0.5696  0.6816
 2235SOL    HW2 7487   8.118   5.333   6.261 -0.6843 -1.0548 -2.9959
 2236SOL     OW 7488   4.560   3.145   6.785  0.6402  0.3691  0.0471
 2236SOL    HW1 7489   4.581   3.234   6.811  2.1619  0.3202 -0.8809
 2236SOL    HW2 7490   4.642   3.097   6.794 -0.4577 -1.3273  1.9136
 2237SOL     OW 7491   4.920   2.841   4.202 -0.0290  0.7430 -0.4629
 2237SOL    HW1 7492   5.005   2.801   4.184  1.0966  2.2378  1.1361
 2237SOL    HW2 7493   4.907   2.902   4.130 -0.2536 -0.2120 -1.2466
 2238SOL     OW 7494   0.728   7.969   3.777 -0.4164  0.2484 -1.1397
 2238SOL    HW1 7495   0.658   7.962   3.842  0.7371  0.7635  0.1914
 2238SOL    HW2 7496   0.775   8.049   3.800  1.0309 -0.4413 -1.5602
 2239SOL     OW 7497   3.240   7.117   0.752 -0.0833 -0.9082  0.0207
 2239SOL    HW1 7498   3.300   7.071   0.811  0.9617 -2.1477 -1.8864
 2239SOL    HW2 7499   3.189   7.048   0.710 -0.5117 -0.1215 -0.8037
 2240SOL     OW 7500   7.952   5.397   1.681 -0.8533  0.5215  0.1862
 2240SOL    HW1 7501   8.026   5.368   1.628 -0.0175  2.8186  0.0033
 2240SOL    HW2 7502   7.880   5.408   1.619 -1.0789 -0.6968  0.2060
 2241SOL     OW 7503   6.044   6.900   3.942 -0.6573  0.1927 -0.0423
 2241SOL    HW1 7504   5.961   6.890   3.989 -0.4580 -1.8583 -0.0371
 2241SOL    HW2 7505   6.042   6.989   3.908 -2.8202  0.2158  0.0290
 2242SOL     OW 7506   4.855   7.987   3.760  0.3830 -0.2421 -0.3892
 2242SOL    HW1 7507   4.772   7.950   3.790  0.6225  0.3941  1.1952
 2242SOL    HW2 7508   4.872   8.059   3.821  0.2359  2.0960 -2.9317
 2243SOL     OW 7509   0.085   2.071   2.414  0.2654 -0.1856  0.1393
 2243SOL    HW1 7510   0.000   2.115   2.416  0.8367  0.9284  0.6351
 2243SOL    HW2 7511   0.101   2.053   2.321 -0.5722 -0.5588  0.0552
 2244SOL     OW 7512   0.681   5.977   0.830 -0.4610  0.6423  0.2725
 2244SOL    HW1 7513   0.650   6.025   0.753  1.5066 -0.5901 -1.3831
 2244SOL    HW2 7514   0.774   5.961   0.812 -0.9900 -3.9435  0.5300
 2245SOL     OW 7515   2.334   2.435   2.097 -0.6937  0.5870 -0.0219
 2245SOL    HW1 7516   2.284   2.356   2.116 -1.8479  0.8899 -1.6004
 2245SOL    HW2 7517   2.406   2.434   2.160 -1.1663 -1.2676  0.5398
 2246SOL     OW 7518   5.240   1.630   1.934  0.1451 -0.2307 -0.3738
 2246SOL    HW1 7519   5.199   1.700   1.985  0.1326 -0.1920 -0.4372
 2246SOL    HW2 7520   5.270   1.567   2.000  0.6745  0.1109 -0.2761
 2247SOL     OW 7521   3.850   2.528   2.523  0.1621  0.5352  0.2380
 2247SOL    HW1 7522   3.847   2.433   2.535 -1.9058  0.4367 -0.5690
 2247SOL    HW2 7523   3.935   2.554   2.558  1.1327 -1.7024 -0.2669
 2248SOL     OW 7524   2.913   1.298   6.838 -0.5469  0.1015  0.2367
 2248SOL    HW1 7525   2.955   1.290   6.752  0.6675  0.8926  0.7269
 2248SOL    HW2 7526   2.849   1.368   6.826 -0.1559  0.4353  0.0436
 2249SOL     OW 7527   4.343   1.354   7.668 -0.2317  0.6824 -0.4253
 2249SOL    HW1 7528   4.262   1.308   7.691 -0.1902  0.3018 -1.0271
 2249SOL    HW2 7529   4.389   1.363   7.751 -1.1003  1.3239  0.0098
 2250SOL     OW 7530   7.573   5.298   7.887  0.9388  0.1615  0.1665
 2250SOL    HW1 7531   7.519   5.270   7.813 -2.2785  0.0361  2.3866
 2250SOL    HW2 7532   7.612   5.217   7.920 -0.9752 -0.4508  1.0445
 2251SOL     OW 7533   6.911   4.603   7.323  0.2864 -0.7660 -0.1132
 2251SOL    HW1 7534   6.874   4.585   7.237 -5.4729  1.0679  1.5389
 2251SOL    HW2 7535   6.912   4.698   7.329  1.6758 -0.8300  1.5313
 2252SOL     OW 7536   4.119   8.080   4.344 -0.3555 -0.3626 -1.2226
 2252SOL    HW1 7537   4.070   8.162   4.339 -0.2337 -0.3477 -2.3012
 2252SOL    HW2 7538   4.189   8.098   4.407  0.1571  0.6289 -2.0508
 2253SOL     OW 7539   3.635   2.592   3.508  0.1343 -0.3136 -0.3450
 2253SOL    HW1 7540   3.586   2.558   3.583 -1.1246  0.2998 -0.8740
 2253SOL    HW2 7541   3.586   2.668   3.479  1.7306  0.6791 -0.5417
 2254SOL     OW 7542   0.185   6.958   4.533  0.0736  0.4008 -0.6752
 2254SOL    HW1 7543   0.170   7.042   4.576 -1.4846  0.8765 -2.0246
 2254SOL    HW2 7544   0.154   6.971   4.443 -0.6091 -1.7189 -0.8062
 2255SOL     OW 7545   8.017   1.187   6.707 -0.0916  0.3639  0.8423
 2255SOL    HW1 7546   8.031   1.215   6.798 -2.7021  1.0961  1.0905
 2255SOL    HW2 7547   7.956   1.114   6.713  1.6695 -1.2922 -0.2428
 2256SOL     OW 7548   0.131   6.819   7.186  0.0311  0.3253 -0.5390
 2256SOL    HW1 7549   0.077   6.740   7.185 -0.8221  0.8524  0.8176
 2256SOL    HW2 7550   0.069   6.891   7.191  0.8283  0.9430  1.2846
 2257SOL     OW 7551   3.647   6.968   0.395 -0.4770  0.5004 -0.0607
 2257SOL    HW1 7552   3.743   6.969   0.386 -0.6101  0.5424 -1.6873
 2257SOL    HW2 7553   3.631   7.012   0.478  0.9681 -0.6506  0.8947
 2258SOL     OW 7554   5.498   5.278   5.460  0.1648 -0.3375  0.4146
 2258SOL    HW1 7555   5.404   5.260   5.457  0.0690  0.1788  0.3244
 2258SOL    HW2 7556   5.505   5.373   5.464  0.7634 -0.0813 -3.4199
 2259SOL     OW 7557   0.001   2.923   3.383 -0.2352 -0.5583 -0.2805
 2259SOL    HW1 7558   0.001   2.930   3.288 -0.8504  0.4358 -0.2172
 2259SOL    HW2 7559  -0.069   2.860   3.402 -0.5450 -0.2686 -0.4570
 2260SOL     OW 7560   3.118   4.889   8.322  0.6795  0.1964  0.5876
 2260SOL    HW1 7561   3.145   4.904   8.413 -1.6716  0.1736  1.3515
 2260SOL    HW2 7562   3.120   4.976   8.282  0.2691  0.4525  1.1101
 2261SOL     OW 7563   6.952   6.167   0.944  0.2894 -0.3004 -0.4035
 2261SOL    HW1 7564   6.978   6.093   0.998  0.9100 -0.1153 -0.4396
 2261SOL    HW2 7565   6.872   6.138   0.901 -1.2082  0.1536  1.8978
 2262SOL     OW 7566   4.460   3.875   1.447  0.6035 -0.3091  0.2500
 2262SOL    HW1 7567   4.412   3.890   1.528  3.0459  0.2527  1.6930
 2262SOL    HW2 7568   4.489   3.962   1.419 -0.7213 -0.4099 -1.6326
 2263SOL     OW 7569   7.880   5.280   6.665  0.3489 -0.0437 -0.0713
 2263SOL    HW1 7570   7.854   5.362   6.624 -0.7636 -0.0301  0.6034
 2263SOL    HW2 7571   7.942   5.240   6.604  0.0598  0.7862 -0.9165
 2264SOL     OW 7572   5.451   7.348   0.070  0.5382  0.0060 -0.0343
 2264SOL    HW1 7573   5.540   7.381   0.081  0.7548 -0.9013  1.1445
 2264SOL    HW2 7574   5.403   7.382   0.145  0.5861 -1.6616  0.7963
 2265SOL     OW 7575   2.953   4.679   7.063 -0.0363  0.1927 -0.5326
 2265SOL    HW1 7576   2.901   4.665   7.142  0.3797 -0.7139 -0.4095
 2265SOL    HW2 7577   2.987   4.592   7.041  3.3177  1.0483  0.6886
 2266SOL     OW 7578   5.267   8.278   1.849  0.3537  0.1066  0.3655
 2266SOL    HW1 7579   5.190   8.261   1.904  0.9701 -0.0879  1.1864
 2266SOL    HW2 7580   5.261   8.213   1.779 -0.5940  0.5404  0.0277
 2267SOL     OW 7581   7.324   2.413   0.035  0.5313  0.0412 -0.0676
 2267SOL    HW1 7582   7.394   2.419   0.099 -0.5114  0.6090  1.0698
 2267SOL    HW2 7583   7.267   2.343   0.068  0.3685 -0.1660 -0.7724
 2268SOL     OW 7584   4.872   7.950   1.940 -0.1268 -0.7210  0.1345
 2268SOL    HW1 7585   4.952   7.898   1.942  1.1414  1.1800  0.5634
 2268SOL    HW2 7586   4.835   7.942   2.028  1.1216  0.6361  0.8166
 2269SOL     OW 7587   0.979   7.759   3.465  0.1404 -0.5980  0.2762
 2269SOL    HW1 7588   0.885   7.776   3.474  0.7477  1.8620  3.9787
 2269SOL    HW2 7589   0.998   7.783   3.374 -2.2090  2.8020  0.4742
 2270SOL     OW 7590   0.110   3.431   3.713 -0.3865  0.0068  0.0615
 2270SOL    HW1 7591   0.146   3.431   3.801 -2.9741 -1.1360  1.2058
 2270SOL    HW2 7592   0.140   3.349   3.674 -1.7138 -0.9667  1.0258
 2271SOL     OW 7593   5.636   4.821   0.979 -0.4684 -0.4940 -0.2342
 2271SOL    HW1 7594   5.594   4.738   0.958 -1.9469 -0.6537  2.8279
 2271SOL    HW2 7595   5.719   4.796   1.019 -0.6521 -0.4829  0.1570
 2272SOL     OW 7596   8.266   5.992   5.035  0.3726  0.1916  0.3307
 2272SOL    HW1 7597   8.309   6.078   5.041  0.7052  0.0661 -0.1593
 2272SOL    HW2 7598   8.178   6.011   5.004  0.8023  0.2821 -0.9166
 2273SOL     OW 7599   6.046   7.580   1.471  0.1872  0.0774  0.0270
 2273SOL    HW1 7600   6.056   7.585   1.566  0.1711  0.6756  0.0006
 2273SOL    HW2 7601   6.132   7.552   1.440 -0.5924 -3.2120  0.4211
 2274SOL     OW 7602   4.155   7.357   6.437 -0.4172  0.2103 -0.1289
 2274SOL    HW1 7603   4.213   7.347   6.512 -4.2993 -0.3673  3.1150
 2274SOL    HW2 7604   4.114   7.443   6.449 -0.2883  0.6454 -2.3551
 2275SOL     OW 7605   5.977   3.948   4.816 -0.3182  0.5909 -0.2985
 2275SOL    HW1 7606   6.014   3.977   4.733 -1.3308 -0.9693 -1.3421
 2275SOL    HW2 7607   5.901   3.896   4.792 -1.7330  1.5904  1.6900
 2276SOL     OW 7608   7.288   1.932   1.347 -0.4464  0.1563  0.3717
 2276SOL    HW1 7609   7.293   2.028   1.347 -1.4366  0.2294 -0.7786
 2276SOL    HW2 7610   7.195   1.912   1.345 -0.2471 -0.8389  0.3564
 2277SOL     OW 7611   5.166   1.373   6.565  0.2941 -0.2841 -0.9045
 2277SOL    HW1 7612   5.207   1.289   6.587  0.3536 -0.4168 -1.5091
 2277SOL    HW2 7613   5.175   1.380   6.470 -0.8481 -0.1861 -1.0134
 2278SOL     OW 7614   1.825   5.710   4.836  0.6125  0.2397  0.2687
 2278SOL    HW1 7615   1.769   5.704   4.758  0.1091  2.4147  0.4243
 2278SOL    HW2 7616   1.767   5.689   4.909  0.6204  0.0461  0.2200
 2279SOL     OW 7617   8.265   1.049   8.324  0.3056  0.4211  0.0018
 2279SOL    HW1 7618   8.316   1.118   8.282  0.3385  0.8773  0.7726
 2279SOL    HW2 7619   8.319   0.970   8.315  1.4490  1.0162  1.3299
 2280SOL     OW 7620   4.260   0.312   2.857 -0.1672  0.4618  0.0146
 2280SOL    HW1 7621   4.180   0.304   2.806  0.0620  0.3413 -0.3313
 2280SOL    HW2 7622   4.296   0.223   2.859 -1.5714 -0.1719  2.7273
 2281SOL     OW 7623   1.428   1.596   5.818 -0.9017  0.1275 -0.5391
 2281SOL    HW1 7624   1.461   1.510   5.790 -0.4125  0.3139 -0.5396
 2281SOL    HW2 7625   1.506   1.651   5.824 -1.0457  0.2384  0.6700
 2282SOL     OW 7626   3.042   4.673   2.277  0.2469  0.0255 -0.3998
 2282SOL    HW1 7627   3.127   4.640   2.248 -0.5596 -1.4407 -1.2540
 2282SOL    HW2 7628   3.055   4.695   2.369  2.2699  2.5597 -1.1644
 2283SOL     OW 7629   7.359   8.155   2.118  0.2367  0.0797  0.8236
 2283SOL    HW1 7630   7.337   8.071   2.159  0.5151 -0.6076 -0.3828
 2283SOL    HW2 7631   7.400   8.131   2.035 -2.9023  1.3746 -1.2879
 2284SOL     OW 7632   5.794   0.420   1.211  0.2844 -0.4844 -0.3753
 2284SOL    HW1 7633   5.852   0.349   1.186  2.5699  1.1058  0.0913
 2284SOL    HW2 7634   5.849   0.499   1.207 -2.0268  1.2351 -0.5533
 2285SOL     OW 7635   2.315   2.352   2.924  0.0039 -0.0906  0.0126
 2285SOL    HW1 7636   2.298   2.440   2.889  0.3242 -0.4022 -0.9635
 2285SOL    HW2 7637   2.235   2.303   2.906  0.3846 -0.4176 -0.8602
 2286SOL     OW 7638   4.869   1.999   2.641 -0.0895  0.3050  0.5676
 2286SOL    HW1 7639   4.946   2.054   2.656 -0.3876  1.1299 -0.7918
 2286SOL    HW2 7640   4.813   2.050   2.583 -1.2703 -0.6513  0.8178
 2287SOL     OW 7641   1.275   2.485   2.255 -0.2631  0.2748 -0.1472
 2287SOL    HW1 7642   1.207   2.420   2.269  1.0101 -1.0005  0.3691
 2287SOL    HW2 7643   1.314   2.461   2.171  2.1433 -1.5414  1.3574
 2288SOL     OW 7644   0.986   0.225   6.934  0.4484 -0.1727  0.1386
 2288SOL    HW1 7645   0.894   0.201   6.945  0.3664 -0.0452 -0.2325
 2288SOL    HW2 7646   1.008   0.198   6.845  0.1744  1.6056 -0.5262
 2289SOL     OW 7647   6.765   0.203   0.239  0.4890 -0.4350  0.6453
 2289SOL    HW1 7648   6.806   0.127   0.198  0.9923 -0.3942  1.0605
 2289SOL    HW2 7649   6.775   0.188   0.333  1.3334  0.5237  0.7273
 2290SOL     OW 7650   6.545   1.693   3.605 -0.1367  0.1831  0.2727
 2290SOL    HW1 7651   6.553   1.782   3.638 -0.3798  0.0628  0.6638
 2290SOL    HW2 7652   6.592   1.694   3.521 -1.3752  1.0467 -0.4381
 2291SOL     OW 7653   4.691   7.309   7.669 -0.2589  0.2404 -0.9922
 2291SOL    HW1 7654   4.601   7.284   7.691 -0.4493  0.8649 -1.0655
 2291SOL    HW2 7655   4.704   7.393   7.713  0.7613 -0.5035  0.1978
 2292SOL     OW 7656   5.927   2.892   7.602 -0.0227 -0.4322  0.0323
 2292SOL    HW1 7657   5.976   2.944   7.539  1.4021  0.3774  1.7187
 2292SOL    HW2 7658   5.904   2.954   7.671 -1.1252 -1.3834  0.5459
 2293SOL     OW 7659   7.508   2.111   6.796 -0.2649  0.0899 -0.0110
 2293SOL    HW1 7660   7.491   2.090   6.704  0.5687  0.8156 -0.3434
 2293SOL    HW2 7661   7.558   2.036   6.829 -0.3921 -0.0816 -0.2009
 2294SOL     OW 7662   5.813   1.450   1.890 -0.9114  0.2435  0.2731
 2294SOL    HW1 7663   5.783   1.426   1.978 -1.7880 -1.3081 -0.4132
 2294SOL    HW2 7664   5.786   1.376   1.835 -0.8572  1.4295 -1.3974
 2295SOL     OW 7665   3.695   1.396   2.353  0.1309 -0.1669  0.2542
 2295SOL    HW1 7666   3.619   1.453   2.362 -1.0739 -1.3985 -1.4081
 2295SOL    HW2 7667   3.749   1.414   2.430 -0.5040  2.6694  0.1385
 2296SOL     OW 7668   1.669   2.428   5.932 -0.0805  0.0437 -1.2031
 2296SOL    HW1 7669   1.657   2.500   5.870 -2.6025  1.2672  0.4902
 2296SOL    HW2 7670   1.716   2.468   6.005 -0.6986 -0.2486 -0.6360
 2297SOL     OW 7671   5.226   8.148   0.903  0.2252  0.6026 -0.0783
 2297SOL    HW1 7672   5.299   8.087   0.894 -0.6012 -0.5989  0.9581
 2297SOL    HW2 7673   5.194   8.134   0.992 -1.0867  1.3157 -0.4143
 2298SOL     OW 7674   7.251   0.359   1.228  0.3070 -0.8320 -0.3320
 2298SOL    HW1 7675   7.347   0.366   1.232  0.2756  1.1946 -1.7519
 2298SOL    HW2 7676   7.232   0.358   1.134 -1.0927 -1.0535 -0.0644
 2299SOL     OW 7677   6.323   6.486   2.117 -0.1155 -0.0123  0.4259
 2299SOL    HW1 7678   6.386   6.458   2.183  0.3965 -0.4395 -0.2221
 2299SOL    HW2 7679   6.317   6.581   2.129  1.4114  0.1958 -0.1094
 2300SOL     OW 7680   4.187   0.532   0.534 -0.4352  0.3312 -0.2440
 2300SOL    HW1 7681   4.128   0.482   0.589 -0.1652  1.0089  0.6991
 2300SOL    HW2 7682   4.132   0.599   0.493 -0.5522  0.1304 -0.4141
 2301SOL     OW 7683   2.597   4.473   2.537  0.6870  0.0521 -0.0775
 2301SOL    HW1 7684   2.605   4.504   2.446  0.5689  2.3592  0.6378
 2301SOL    HW2 7685   2.680   4.429   2.554  0.6320 -0.6090 -1.3566
 2302SOL     OW 7686   2.105   6.498   6.628 -0.0447  0.1622  0.4739
 2302SOL    HW1 7687   2.026   6.449   6.605 -0.3634  1.0039 -0.3109
 2302SOL    HW2 7688   2.079   6.552   6.702 -0.6433  1.4369 -0.6136
 2303SOL     OW 7689   1.300   4.189   4.257  0.4600  0.2724 -0.1976
 2303SOL    HW1 7690   1.281   4.255   4.190  0.5851 -0.0621 -0.5649
 2303SOL    HW2 7691   1.215   4.170   4.296  0.6655  2.0696  1.2670
 2304SOL     OW 7692   0.352   6.121   1.238  0.1356 -0.5334  0.4399
 2304SOL    HW1 7693   0.308   6.143   1.320 -1.4117  0.6253 -0.6283
 2304SOL    HW2 7694   0.445   6.115   1.261 -0.0743  1.2070  2.0232
 2305SOL     OW 7695   8.255   1.618   5.279 -0.5386  1.2691  0.0354
 2305SOL    HW1 7696   8.316   1.600   5.351 -1.3463 -4.5074 -0.3164
 2305SOL    HW2 7697   8.188   1.674   5.318  0.0243 -0.1287  3.3041
 2306SOL     OW 7698   4.360   0.272   5.894  0.2854  0.2339  0.3081
 2306SOL    HW1 7699   4.334   0.226   5.814  0.0834 -0.3195  0.6840
 2306SOL    HW2 7700   4.420   0.340   5.864 -1.1959  1.2233 -0.5175
 2307SOL     OW 7701   0.383   2.762   2.336  0.3848 -0.4307 -0.7558
 2307SOL    HW1 7702   0.448   2.750   2.405 -0.9488  1.0184  0.8518
 2307SOL    HW2 7703   0.308   2.709   2.364  0.1408 -0.5238 -1.5558
 2308SOL     OW 7704   5.399   2.305   2.283 -0.0960  0.0687 -0.4587
 2308SOL    HW1 7705   5.461   2.316   2.355  2.1926 -0.0883 -2.2851
 2308SOL    HW2 7706   5.405   2.387   2.233 -0.1538 -0.5478 -1.5249
 2309SOL     OW 7707   7.280   4.818   8.318  0.1296 -0.4229  0.5125
 2309SOL    HW1 7708   7.360   4.769   8.297 -1.0335 -2.2948  0.2244
 2309SOL    HW2 7709   7.298   4.907   8.288  1.0652 -1.4272 -2.1799
 2310SOL     OW 7710   7.170   7.707   2.101 -0.7713 -0.1230  0.1566
 2310SOL    HW1 7711   7.143   7.717   2.010 -1.0924  0.8871  0.3470
 2310SOL    HW2 7712   7.155   7.615   2.121 -1.3566 -0.1971 -0.6059
 2311SOL     OW 7713   4.129   5.345   2.849 -0.1921 -0.2377 -0.1633
 2311SOL    HW1 7714   4.150   5.320   2.938 -0.3758 -0.1131 -0.0827
 2311SOL    HW2 7715   4.200   5.310   2.796  0.8793  1.2478  0.2443
 2312SOL     OW 7716   3.186   1.619   4.891 -0.4124  0.3018  0.4368
 2312SOL    HW1 7717   3.149   1.531   4.894  0.4941 -0.1356 -0.7328
 2312SOL    HW2 7718   3.216   1.635   4.981 -0.7706 -0.4918  0.7048
 2313SOL     OW 7719   5.991   2.140   4.029 -0.5103  0.1896 -0.0159
 2313SOL    HW1 7720   5.989   2.222   3.980  3.3011 -0.0729 -0.9214
 2313SOL    HW2 7721   6.031   2.077   3.969 -1.4166 -1.8015  1.3703
 2314SOL     OW 7722   0.042   2.446   5.305 -0.0234  0.0039 -0.1519
 2314SOL    HW1 7723   0.005   2.381   5.245  2.1745 -0.2882 -1.3078
 2314SOL    HW2 7724   0.041   2.528   5.256 -0.7743  0.3921  0.4894
 2315SOL     OW 7725   6.911   8.251   7.917 -0.4270 -0.1228  0.7980
 2315SOL    HW1 7726   6.850   8.318   7.887  0.4258  0.1644 -0.3843
 2315SOL    HW2 7727   6.917   8.189   7.844  0.2163 -0.4778  1.1399
 2316SOL     OW 7728   3.210   2.270   5.542 -0.2902 -0.0200 -0.4263
 2316SOL    HW1 7729   3.146   2.215   5.586 -1.0408  1.1967  0.0663
 2316SOL    HW2 7730   3.248   2.323   5.612  0.0112  0.4900 -0.9636
 2317SOL     OW 7731   1.122   0.014   2.732  0.6180  0.8355  0.5423
 2317SOL    HW1 7732   1.137  -0.068   2.684 -0.8242 -0.1309  1.6347
 2317SOL    HW2 7733   1.108  -0.014   2.823 -0.8553  2.1795  0.7737
 2318SOL     OW 7734   7.842   0.467   8.044  0.2949 -0.3105 -0.2482
 2318SOL    HW1 7735   7.848   0.562   8.058  0.5891 -0.3120 -0.3680
 2318SOL    HW2 7736   7.867   0.454   7.953  0.0907 -0.4876 -0.2809
 2319SOL     OW 7737   6.028   5.412   0.552 -0.0558 -0.6622  0.4415
 2319SOL    HW1 7738   6.068   5.468   0.618 -0.9383 -1.7570  1.9750
 2319SOL    HW2 7739   5.934   5.427   0.561 -0.1917 -0.7903 -0.6269
 2320SOL     OW 7740   0.527   5.352   2.279  0.0271  0.2996 -0.1721
 2320SOL    HW1 7741   0.493   5.327   2.365 -0.9660 -0.7859 -0.8441
 2320SOL    HW2 7742   0.545   5.268   2.235  0.4753  0.8332 -1.0290
 2321SOL     OW 7743   1.026   6.923   3.642  0.0080 -0.4325 -0.1984
 2321SOL    HW1 7744   1.009   6.979   3.718  3.2399  0.3433  0.1162
 2321SOL    HW2 7745   0.967   6.955   3.574  1.2438  3.0522  0.1512
 2322SOL     OW 7746   2.120   5.170   2.981  0.4687  0.0451  0.5313
 2322SOL    HW1 7747   2.102   5.211   3.066  3.1304 -0.0250  1.2156
 2322SOL    HW2 7748   2.106   5.077   2.996  1.2419  0.0014  0.9860
 2323SOL     OW 7749   1.012   0.274   7.214  0.3769 -0.1208 -0.0564
 2323SOL    HW1 7750   1.105   0.272   7.235  0.2475  2.6737  1.2343
 2323SOL    HW2 7751   1.007   0.256   7.121  2.0704 -1.5682  0.0937
 2324SOL     OW 7752   1.152   7.478   6.581 -0.4541 -0.3777 -0.0465
 2324SOL    HW1 7753   1.161   7.399   6.635 -0.3735 -1.1257 -1.1286
 2324SOL    HW2 7754   1.234   7.483   6.532 -0.3849  0.4892  0.1533
 2325SOL     OW 7755   7.004   8.039   2.210  0.1721  0.1259 -0.0053
 2325SOL    HW1 7756   6.928   7.984   2.188 -0.1463  0.5357  0.0684
 2325SOL    HW2 7757   7.011   8.032   2.305  0.0848  0.2778  0.0115
 2326SOL     OW 7758   4.176   6.495   5.103  0.0236  0.4049 -0.4833
 2326SOL    HW1 7759   4.132   6.577   5.081 -1.6971 -0.6142 -1.0406
 2326SOL    HW2 7760   4.138   6.468   5.187  0.0409 -0.1838 -0.6555
 2327SOL     OW 7761   7.186   1.252   6.053 -0.2487  1.0065 -0.3218
 2327SOL    HW1 7762   7.256   1.271   5.990 -0.8620  0.5251 -1.1680
 2327SOL    HW2 7763   7.230   1.253   6.138  0.8196  0.5864 -0.8420
 2328SOL     OW 7764   4.111   5.289   5.215 -0.5290  0.7270 -0.1828
 2328SOL    HW1 7765   4.178   5.273   5.281  0.1079  0.3343 -0.9106
 2328SOL    HW2 7766   4.045   5.221   5.230  0.5473 -0.5640 -1.1477
 2329SOL     OW 7767   4.190   4.375   3.659 -0.0728  0.1824  0.1880
 2329SOL    HW1 7768   4.122   4.358   3.594 -0.1725 -0.0355  0.3444
 2329SOL    HW2 7769   4.142   4.382   3.742  0.0973  0.0036  0.3031
 2330SOL     OW 7770   6.807   6.915   1.826  0.5992  0.3828  0.3727
 2330SOL    HW1 7771   6.869   6.927   1.754 -0.1187  0.6200 -0.2224
 2330SOL    HW2 7772   6.739   6.981   1.810 -0.1067 -0.2546  0.6777
 2331SOL     OW 7773   6.593   6.498   4.716 -0.1752 -0.0656  0.1872
 2331SOL    HW1 7774   6.682   6.526   4.738  0.9802 -2.6104 -0.8483
 2331SOL    HW2 7775   6.584   6.518   4.623  0.8306 -3.1381 -0.6881
 2332SOL     OW 7776   8.177   0.514   2.334 -0.7658  0.4221 -0.2489
 2332SOL    HW1 7777   8.223   0.456   2.395  0.1282  1.3421 -0.0209
 2332SOL    HW2 7778   8.150   0.457   2.262  0.6824 -0.1772 -0.3483
 2333SOL     OW 7779   6.302   4.924   6.385  0.3537 -0.0758 -0.4633
 2333SOL    HW1 7780   6.258   5.009   6.381 -0.3677 -0.3233  1.1939
 2333SOL    HW2 7781   6.379   4.939   6.440  1.2985 -0.0932 -1.7353
 2334SOL     OW 7782   7.116   0.828   5.956  0.6600 -0.2005  0.1549
 2334SOL    HW1 7783   7.092   0.746   5.999  0.5603  0.7328  1.9370
 2334SOL    HW2 7784   7.032   0.870   5.936  0.6931 -0.7392 -1.2598
 2335SOL     OW 7785   1.425   1.367   7.229  0.3840 -0.1497 -0.0335
 2335SOL    HW1 7786   1.381   1.376   7.313 -0.4004 -0.3905 -0.4095
 2335SOL    HW2 7787   1.514   1.397   7.245 -0.5366  2.8666  0.1664
 2336SOL     OW 7788   6.505   7.488   2.172 -1.3478 -0.2468  0.9780
 2336SOL    HW1 7789   6.475   7.424   2.237  2.4670 -1.6760  1.6444
 2336SOL    HW2 7790   6.514   7.437   2.091 -0.6567  0.0277  0.8684
 2337SOL     OW 7791   5.869   1.958   2.988  0.0225 -0.2128 -0.3327
 2337SOL    HW1 7792   5.856   1.973   3.082 -2.6355  0.7568 -0.7819
 2337SOL    HW2 7793   5.822   1.877   2.969 -0.3712  0.1580 -0.9889
 2338SOL     OW 7794   3.207   7.363   6.811 -0.6159 -0.8756  0.5251
 2338SOL    HW1 7795   3.286   7.354   6.865 -0.6325 -0.5267  0.6120
 2338SOL    HW2 7796   3.238   7.403   6.730 -0.8531  0.2075  0.9550
 2339SOL     OW 7797   0.485   8.233   6.140  0.2209 -0.1209  0.7536
 2339SOL    HW1 7798   0.497   8.230   6.045  1.2354  0.4639  0.8487
 2339SOL    HW2 7799   0.565   8.275   6.173 -0.9677  1.5355  1.6933
 2340SOL     OW 7800   7.067   6.567   6.540  0.0333  0.0293  0.8263
 2340SOL    HW1 7801   6.995   6.503   6.533  0.2219 -0.0006 -1.9825
 2340SOL    HW2 7802   7.106   6.569   6.452  2.3102  1.4188  1.7857
 2341SOL     OW 7803   1.255   7.970   3.078  0.4672 -0.0397  0.7942
 2341SOL    HW1 7804   1.284   8.006   3.163  1.2534  1.1494  0.0606
 2341SOL    HW2 7805   1.200   7.895   3.101  0.4289  0.4286  2.3636
 2342SOL     OW 7806   4.317   3.668   7.854 -0.1320 -0.4405 -0.1900
 2342SOL    HW1 7807   4.342   3.651   7.945  0.3833  0.4871 -0.1466
 2342SOL    HW2 7808   4.233   3.624   7.844 -0.2816 -0.4098  0.7958
 2343SOL     OW 7809   0.586   4.054   5.377  0.7118  0.7229  0.0371
 2343SOL    HW1 7810   0.642   4.114   5.328 -0.5024  1.5364 -0.4037
 2343SOL    HW2 7811   0.642   3.979   5.396  2.2746  1.9892  0.6271
 2344SOL     OW 7812   0.344   6.762   6.103  0.0565 -0.1900  0.8448
 2344SOL    HW1 7813   0.278   6.709   6.149  0.0720  0.4620  1.6349
 2344SOL    HW2 7814   0.397   6.800   6.173  1.2238 -0.6161  0.2284
 2345SOL     OW 7815   1.009   6.377   5.433 -0.0682 -0.4540 -0.1078
 2345SOL    HW1 7816   1.066   6.300   5.434  0.2689 -0.2211  1.5045
 2345SOL    HW2 7817   1.065   6.447   5.399  0.2720 -0.4915  0.3527
 2346SOL     OW 7818   1.558   0.399   2.285  0.7347 -0.3822  0.1130
 2346SOL    HW1 7819   1.596   0.368   2.367 -1.0483  0.7893  1.4744
 2346SOL    HW2 7820   1.514   0.481   2.309 -0.0896 -0.1495 -1.9727
 2347SOL     OW 7821   7.522   4.671   5.834  0.5133  0.0476 -0.9139
 2347SOL    HW1 7822   7.574   4.738   5.878  0.0837 -0.2591  0.1016
 2347SOL    HW2 7823   7.585   4.602   5.812  0.2798 -1.5395  2.6724
 2348SOL     OW 7824   0.461   1.717   3.841 -0.2113  0.3616  0.2569
 2348SOL    HW1 7825   0.510   1.686   3.766  0.3509  0.5325  0.5496
 2348SOL    HW2 7826   0.418   1.797   3.811 -0.6998 -0.0447 -0.1396
 2349SOL     OW 7827   6.399   6.038   1.644 -0.2829 -0.2309  0.8233
 2349SOL    HW1 7828   6.447   6.079   1.716 -2.0150 -0.6306  2.2849
 2349SOL    HW2 7829   6.459   5.975   1.606  0.8373  0.3599  1.5850
 2350SOL     OW 7830   3.014   3.100   7.014 -0.2256  0.3841 -0.4595
 2350SOL    HW1 7831   3.081   3.093   6.946 -1.1469  1.6464 -1.5486
 2350SOL    HW2 7832   2.952   3.030   6.994  0.1358 -0.0288 -0.1607
 2351SOL     OW 7833   7.121   4.264   3.855  0.5167  0.6146  0.3064
 2351SOL    HW1 7834   7.118   4.170   3.871 -0.4940  0.3335 -1.2317
 2351SOL    HW2 7835   7.200   4.294   3.899  1.1761 -1.0564  0.3385
 2352SOL     OW 7836   8.205   3.868   4.468 -0.1806 -0.1870  0.2312
 2352SOL    HW1 7837   8.182   3.924   4.394  0.5586 -0.9706 -0.6096
 2352SOL    HW2 7838   8.270   3.807   4.434 -1.7537 -2.3019  0.7902
 2353SOL     OW 7839   4.947   4.807   1.585  0.3241 -0.2545 -0.1873
 2353SOL    HW1 7840   4.959   4.821   1.679  2.0739 -0.4033 -0.3464
 2353SOL    HW2 7841   4.911   4.719   1.578  1.0884 -0.6229  0.3295
 2354SOL     OW 7842   4.079   5.556   0.140  0.2999 -0.3941 -0.3201
 2354SOL    HW1 7843   3.996   5.514   0.161  0.4132 -1.0170 -1.0608
 2354SOL    HW2 7844   4.143   5.511   0.194  0.4272 -1.2402 -1.1395
 2355SOL     OW 7845   5.413   6.009   0.731  0.2775  0.0090  0.7561
 2355SOL    HW1 7846   5.446   6.098   0.745  1.9170 -0.5553  0.6321
 2355SOL    HW2 7847   5.466   5.954   0.789  0.8763 -1.1651 -0.8383
 2356SOL     OW 7848   1.944   6.811   4.273  0.1682 -1.1633 -0.4469
 2356SOL    HW1 7849   1.907   6.868   4.205  0.0826 -0.2535  0.3469
 2356SOL    HW2 7850   1.868   6.767   4.311  0.1217 -1.0041 -0.3521
 2357SOL     OW 7851   6.489   4.251   5.339  0.2595 -0.0382  0.8313
 2357SOL    HW1 7852   6.535   4.334   5.331  0.1790 -0.0201  0.5355
 2357SOL    HW2 7853   6.487   4.216   5.250 -0.2135 -0.0813  0.8536
 2358SOL     OW 7854   4.981   3.106   5.380  0.2010 -0.4084  0.5784
 2358SOL    HW1 7855   4.921   3.042   5.343 -1.1667  1.4998 -0.6889
 2358SOL    HW2 7856   5.053   3.110   5.318 -0.9365  1.0487 -0.7178
 2359SOL     OW 7857   2.173   3.576   3.492 -0.0730  0.8895  0.3352
 2359SOL    HW1 7858   2.142   3.599   3.580 -2.4505 -1.3118  0.1974
 2359SOL    HW2 7859   2.124   3.635   3.434  0.8025  1.6982  0.3816
 2360SOL     OW 7860   0.040   3.433   0.766  0.2607  0.3484 -0.5491
 2360SOL    HW1 7861   0.129   3.414   0.737  0.4636 -0.4947  0.5661
 2360SOL    HW2 7862  -0.012   3.359   0.734 -0.4655  1.8103 -2.9538
 2361SOL     OW 7863   5.350   7.584   4.392 -0.3357  0.1361 -0.0093
 2361SOL    HW1 7864   5.436   7.596   4.352 -0.6044  3.0395  0.0789
 2361SOL    HW2 7865   5.313   7.672   4.396 -3.4713 -1.0391 -0.3299
 2362SOL     OW 7866   2.271   0.139   6.292  0.4739  0.2700  0.1351
 2362SOL    HW1 7867   2.318   0.056   6.289 -1.3813 -0.8334 -0.1451
 2362SOL    HW2 7868   2.332   0.200   6.333  1.2441 -1.6726  2.0773
 2363SOL     OW 7869   5.295   3.252   1.463 -0.6524 -0.4576 -0.2380
 2363SOL    HW1 7870   5.384   3.280   1.483 -0.2115 -2.3268  0.5711
 2363SOL    HW2 7871   5.290   3.255   1.367  0.0404  0.2898 -0.2616
 2364SOL     OW 7872   8.200   6.422   5.280 -0.1204  0.2195 -0.1371
 2364SOL    HW1 7873   8.148   6.495   5.246 -0.9053  0.0638  0.7075
 2364SOL    HW2 7874   8.266   6.463   5.336  0.0938  0.3467 -0.4780
 2365SOL     OW 7875   7.830   6.146   6.439  0.3787 -0.7320 -0.3737
 2365SOL    HW1 7876   7.739   6.138   6.411  0.3436 -1.2624 -0.1040
 2365SOL    HW2 7877   7.845   6.240   6.444 -0.1608 -0.6428 -0.3954
 2366SOL     OW 7878   2.180   7.798   6.798  0.1531  0.4870  0.4978
 2366SOL    HW1 7879   2.269   7.824   6.773  0.1726  1.9354  1.9041
 2366SOL    HW2 7880   2.123   7.851   6.743  0.1536  0.0504  0.0706
 2367SOL     OW 7881   3.803   5.582   4.263 -0.4594  0.4999  0.0055
 2367SOL    HW1 7882   3.772   5.670   4.240  0.4681  1.4316  2.1224
 2367SOL    HW2 7883   3.876   5.566   4.203 -0.2714  1.3956 -0.0170
 2368SOL     OW 7884   5.682   7.425   3.583  0.3710  0.0421  0.4685
 2368SOL    HW1 7885   5.708   7.423   3.491 -0.5004 -1.4890  0.2203
 2368SOL    HW2 7886   5.761   7.452   3.630  1.5809 -1.5981 -0.5268
 2369SOL     OW 7887   3.371   6.284   4.271 -0.4534  0.2031 -0.0628
 2369SOL    HW1 7888   3.355   6.373   4.240 -1.4811 -0.3221 -1.1358
 2369SOL    HW2 7889   3.417   6.242   4.199  1.3001  0.2201  0.9845
 2370SOL     OW 7890   5.381   2.521   1.066 -0.2405  0.2835 -0.2214
 2370SOL    HW1 7891   5.396   2.543   1.157 -1.8144  2.8300 -0.4797
 2370SOL    HW2 7892   5.297   2.474   1.067  0.3518 -0.8020 -0.2611
 2371SOL     OW 7893   4.738   2.932   3.732 -0.1317 -0.1352  0.2126
 2371SOL    HW1 7894   4.673   2.998   3.707 -0.1030 -0.3293 -0.4000
 2371SOL    HW2 7895   4.687   2.852   3.746 -0.0724 -0.1967  0.0861
 2372SOL     OW 7896   2.149   3.615   0.634 -0.5897 -0.1592 -0.1068
 2372SOL    HW1 7897   2.170   3.611   0.540  1.1019 -0.7529  0.2581
 2372SOL    HW2 7898   2.070   3.669   0.639  0.4801  1.6998 -1.7044
 2373SOL     OW 7899   1.588   7.560   2.207  0.1694  0.2896  0.3330
 2373SOL    HW1 7900   1.628   7.500   2.144  0.6096  0.4259  0.4771
 2373SOL    HW2 7901   1.658   7.621   2.229 -0.4480  1.2425 -0.2799
 2374SOL     OW 7902   4.803   1.671   1.719 -0.3818 -0.1004 -0.5351
 2374SOL    HW1 7903   4.826   1.682   1.627 -1.4368 -2.4646 -1.1551
 2374SOL    HW2 7904   4.715   1.633   1.718 -1.7632  2.5800  1.5737
 2375SOL     OW 7905   0.263   8.199   1.643  0.4321  0.3701  0.4189
 2375SOL    HW1 7906   0.330   8.166   1.703  0.7592 -0.6174 -0.4727
 2375SOL    HW2 7907   0.240   8.124   1.588 -1.5049  0.6544  0.7765
 2376SOL     OW 7908   4.320   8.251   0.764  0.2760 -0.0801 -0.4408
 2376SOL    HW1 7909   4.377   8.222   0.693 -0.5761 -0.1409 -1.1154
 2376SOL    HW2 7910   4.240   8.280   0.720 -0.5794 -0.8830  0.5501
 2377SOL     OW 7911   5.174   0.393   3.287 -0.2421 -0.4536 -0.1379
 2377SOL    HW1 7912   5.094   0.399   3.234 -1.4005  0.3953  1.6010
 2377SOL    HW2 7913   5.213   0.481   3.280  0.9753 -1.0592 -1.5394
 2378SOL     OW 7914   5.538   1.464   7.822 -0.0826 -0.5165  0.1126
 2378SOL    HW1 7915   5.602   1.408   7.866 -0.0183  0.4654  1.3440
 2378SOL    HW2 7916   5.500   1.517   7.893  1.0075  2.1374 -1.1320
 2379SOL     OW 7917   0.382   3.420   6.133  0.1055 -0.4449  0.1976
 2379SOL    HW1 7918   0.463   3.463   6.161 -0.3394  0.3261  0.3395
 2379SOL    HW2 7919   0.313   3.481   6.159 -0.5177 -1.0772  0.0398
 2380SOL     OW 7920   2.197   8.079   4.001 -0.1284 -0.2411 -0.3970
 2380SOL    HW1 7921   2.223   8.093   4.092 -0.2529 -1.4077 -0.1665
 2380SOL    HW2 7922   2.276   8.047   3.958  0.3146  1.5950 -1.0568
 2381SOL     OW 7923   0.833   2.013   2.646  0.0376  0.2631  0.4902
 2381SOL    HW1 7924   0.863   2.096   2.609  1.0848  0.4194  1.6443
 2381SOL    HW2 7925   0.910   1.976   2.688 -0.7624 -0.6004  1.2353
 2382SOL     OW 7926   7.879   7.519   4.157 -0.6712  0.2301 -0.0756
 2382SOL    HW1 7927   7.852   7.571   4.232 -0.5193  0.7754 -0.3967
 2382SOL    HW2 7928   7.839   7.433   4.172 -1.8378  0.7538 -0.1001
 2383SOL     OW 7929   7.654   3.431   0.373 -0.1915  0.5361  0.1965
 2383SOL    HW1 7930   7.616   3.372   0.439 -1.8421  0.9633 -0.3306
 2383SOL    HW2 7931   7.585   3.494   0.355  0.5152  0.8904 -1.4008
 2384SOL     OW 7932   0.708   0.324   5.693 -0.4770 -0.6085 -0.4448
 2384SOL    HW1 7933   0.640   0.392   5.691 -1.3573 -1.4670 -0.7086
 2384SOL    HW2 7934   0.672   0.254   5.639 -1.0925 -2.6512  2.3655
 2385SOL     OW 7935   6.490   6.147   8.192 -0.3269  0.7172  0.2674
 2385SOL    HW1 7936   6.436   6.070   8.179  0.8732  0.0474 -1.0724
 2385SOL    HW2 7937   6.560   6.118   8.251  0.8951  0.3163 -1.2889
 2386SOL     OW 7938   7.417   3.142   3.490  0.4976 -0.1079 -0.0481
 2386SOL    HW1 7939   7.329   3.105   3.497  0.8824 -1.0486  0.1148
 2386SOL    HW2 7940   7.449   3.111   3.405  0.8166 -0.1334  0.0786
 2387SOL     OW 7941   6.114   5.127   1.489 -0.2390  0.4850  0.1081
 2387SOL    HW1 7942   6.205   5.146   1.465 -0.7252 -1.0363 -3.6715
 2387SOL    HW2 7943   6.119   5.048   1.542  0.6118 -0.9382 -1.9869
 2388SOL     OW 7944   1.027   4.707   5.491 -0.0991 -0.0864 -0.7341
 2388SOL    HW1 7945   1.063   4.640   5.432 -0.1703 -0.9288  0.1576
 2388SOL    HW2 7946   1.104   4.743   5.535 -0.1353 -0.1818 -0.5931
 2389SOL     OW 7947   1.379   3.634   5.173  0.5329 -0.0847 -0.2835
 2389SOL    HW1 7948   1.462   3.594   5.199  2.0516  0.8090 -3.3151
 2389SOL    HW2 7949   1.326   3.560   5.142  0.7481 -0.4648  0.2238
 2390SOL     OW 7950   5.869   6.190   2.959 -0.1770 -0.5876 -0.3660
 2390SOL    HW1 7951   5.815   6.205   2.882  0.9843 -1.6450 -1.4252
 2390SOL    HW2 7952   5.805   6.177   3.030 -1.2629  0.0266 -1.1970
 2391SOL     OW 7953   6.290   5.320   4.318 -0.2319  0.3496  0.0098
 2391SOL    HW1 7954   6.335   5.364   4.246 -1.6325  0.5716 -0.7642
 2391SOL    HW2 7955   6.352   5.323   4.391  1.8551 -1.2844 -1.6175
 2392SOL     OW 7956   4.142   4.585   7.466 -0.1172  1.1157 -0.3065
 2392SOL    HW1 7957   4.062   4.581   7.518 -0.3245  1.2073 -0.6151
 2392SOL    HW2 7958   4.134   4.666   7.416 -1.1297 -0.2298 -2.4349
 2393SOL     OW 7959   0.585   1.798   2.180  0.4039  0.2637 -0.4926
 2393SOL    HW1 7960   0.579   1.742   2.257  2.7692 -3.3112 -2.6439
 2393SOL    HW2 7961   0.497   1.794   2.140 -0.4688  1.1362  1.2358
 2394SOL     OW 7962   6.515   5.608   4.154 -0.2277 -0.1542 -1.2175
 2394SOL    HW1 7963   6.573   5.676   4.120 -0.6097  1.5695  1.3343
 2394SOL    HW2 7964   6.427   5.639   4.133 -0.3774 -0.4675 -1.0634
 2395SOL     OW 7965   7.073   7.788   1.328 -0.1413  0.5093  0.4169
 2395SOL    HW1 7966   7.010   7.804   1.258 -0.2448 -0.4359  0.2733
 2395SOL    HW2 7967   7.118   7.707   1.302  0.6288  0.7751  0.8737
 2396SOL     OW 7968   0.235   1.155   0.388  0.2133  0.2086  0.1734
 2396SOL    HW1 7969   0.182   1.232   0.370  0.1716  0.4657  1.3507
 2396SOL    HW2 7970   0.172   1.083   0.391  0.0022  0.4212  0.9649
 2397SOL     OW 7971   0.009   1.985   7.247 -0.2674  0.3157 -0.3321
 2397SOL    HW1 7972   0.052   2.031   7.319  1.1173 -2.1262  0.5517
 2397SOL    HW2 7973   0.072   1.987   7.175 -0.3603  0.1532 -0.4196
 2398SOL     OW 7974   6.639   7.415   5.185 -0.5860 -0.1753 -0.4031
 2398SOL    HW1 7975   6.614   7.507   5.194 -1.1626 -0.4058  0.5027
 2398SOL    HW2 7976   6.558   7.367   5.200  0.0808 -0.8974  1.1380
 2399SOL     OW 7977   7.478   3.724   4.149 -0.0901  0.2623  0.8302
 2399SOL    HW1 7978   7.498   3.636   4.117 -1.1521 -0.5815  2.3580
 2399SOL    HW2 7979   7.383   3.731   4.140  0.1536  2.0679 -1.1461
 2400SOL     OW 7980   5.547   3.207   5.481  0.0164 -0.5259 -0.4504
 2400SOL    HW1 7981   5.556   3.298   5.509  0.2753 -1.2460  2.0472
 2400SOL    HW2 7982   5.453   3.191   5.482  0.0398 -0.6795  0.6224
 2401SOL     OW 7983   3.309   3.308   2.901 -0.5414  0.3248 -0.0057
 2401SOL    HW1 7984   3.361   3.381   2.933 -0.6383  0.3763  0.0365
 2401SOL    HW2 7985   3.271   3.339   2.819  0.2099 -0.0321 -0.4934
 2402SOL     OW 7986   3.073   5.952   7.081 -0.1743  0.4007  0.5193
 2402SOL    HW1 7987   3.136   6.003   7.132  1.6987  0.6705 -1.8436
 2402SOL    HW2 7988   3.118   5.868   7.066 -1.3481 -0.2719  0.6539
 2403SOL     OW 7989   6.603   6.875   0.074 -0.1302  0.4844 -0.0373
 2403SOL    HW1 7990   6.640   6.963   0.073 -0.2998  0.5627  0.3328
 2403SOL    HW2 7991   6.546   6.872  -0.002  0.0336  0.6236 -0.1674
 2404SOL     OW 7992   8.216   6.263   4.234 -0.1493  0.1725  0.1392
 2404SOL    HW1 7993   8.252   6.291   4.150 -0.8096 -0.9090 -0.5318
 2404SOL    HW2 7994   8.253   6.177   4.249 -0.5888  0.0553  0.6081
 2405SOL     OW 7995   6.557   0.361   1.645  0.1708  0.1089  0.4196
 2405SOL    HW1 7996   6.639   0.401   1.615 -0.0321 -0.0042 -0.2947
 2405SOL    HW2 7997   6.571   0.267   1.637  0.1247  0.0768  0.7104
 2406SOL     OW 7998   2.857   3.888   2.507 -0.8786 -0.2619  0.0252
 2406SOL    HW1 7999   2.929   3.896   2.444 -2.4301  0.7903 -1.7050
 2406SOL    HW2 8000   2.816   3.805   2.486  0.3932 -1.3719  1.7053
 2407SOL     OW 8001   2.067   1.906   3.071  0.1917  0.2379  0.5462
 2407SOL    HW1 8002   1.984   1.949   3.051 -0.2802  0.5014  2.7331
 2407SOL    HW2 8003   2.053   1.814   3.050 -0.5965  0.3214  0.6741
 2408SOL     OW 8004   5.905   7.482   2.276 -0.2388  0.3488  0.3834
 2408SOL    HW1 8005   5.919   7.468   2.369 -0.4798 -1.7754  0.1546
 2408SOL    HW2 8006   5.820   7.527   2.271  0.2739  1.4572  1.1950
 2409SOL     OW 8007   6.478   5.127   4.588  0.0898  0.2197 -0.8297
 2409SOL    HW1 8008   6.529   5.195   4.543  1.1532  1.2055  1.6664
 2409SOL    HW2 8009   6.389   5.161   4.588  0.3304  0.8754 -1.0000
 2410SOL     OW 8010   7.125   6.790   4.210  0.0704 -0.9709 -0.0306
 2410SOL    HW1 8011   7.120   6.865   4.151  1.6497  0.5440  1.6151
 2410SOL    HW2 8012   7.185   6.729   4.168  0.5007 -0.3037 -0.3899
 2411SOL     OW 8013   1.501   6.130   8.253 -0.2138  0.1952 -0.8702
 2411SOL    HW1 8014   1.568   6.062   8.246  2.3331  2.5313 -1.1844
 2411SOL    HW2 8015   1.455   6.127   8.169  2.0656  0.8771 -2.2416
 2412SOL     OW 8016   8.146   6.970   1.350  0.1319 -0.1034  0.1116
 2412SOL    HW1 8017   8.084   6.990   1.281 -0.8108  0.9747  1.2313
 2412SOL    HW2 8018   8.143   6.875   1.359 -1.2670 -0.0741  0.0519
 2413SOL     OW 8019   2.233   0.869   0.184  0.0626  0.3994  0.8048
 2413SOL    HW1 8020   2.319   0.876   0.225  1.3457 -0.2258 -1.5711
 2413SOL    HW2 8021   2.209   0.777   0.193  0.4931  0.1914 -0.0310
 2414SOL     OW 8022   3.101   7.965   4.300  0.3670  0.0362  0.1414
 2414SOL    HW1 8023   3.164   7.895   4.281  1.9021  1.4389 -0.2314
 2414SOL    HW2 8024   3.152   8.031   4.347 -0.8425  1.2175 -0.1262
 2415SOL     OW 8025   2.454   8.306   3.533  0.1426  0.5696  0.0354
 2415SOL    HW1 8026   2.410   8.265   3.607 -0.9533 -1.7923 -1.7720
 2415SOL    HW2 8027   2.529   8.248   3.515 -0.2499  0.4390 -1.3350
 2416SOL     OW 8028   6.855   2.234   6.906  0.6245  0.3988 -0.1093
 2416SOL    HW1 8029   6.801   2.286   6.845  2.0473  0.9250 -0.9838
 2416SOL    HW2 8030   6.914   2.298   6.945  2.0230 -0.4475 -0.7634
 2417SOL     OW 8031   0.455   5.350   0.379  0.0451  0.0516  0.2750
 2417SOL    HW1 8032   0.492   5.385   0.461 -0.1183  1.3949 -0.1989
 2417SOL    HW2 8033   0.361   5.343   0.396 -0.3304  2.4279 -0.4557
 2418SOL     OW 8034   0.944   2.499   1.752  0.1879 -0.4804  0.0115
 2418SOL    HW1 8035   0.995   2.503   1.671  0.7332 -2.2222  0.2269
 2418SOL    HW2 8036   1.003   2.535   1.819 -0.0787  0.4945 -0.2632
 2419SOL     OW 8037   3.898   1.000   4.507 -0.4483 -0.0996 -0.1166
 2419SOL    HW1 8038   3.866   1.077   4.460 -0.1610  0.2319  0.2267
 2419SOL    HW2 8039   3.818   0.952   4.531 -0.7370  0.8836  1.0044
 2420SOL     OW 8040   7.380   4.219   3.924  0.4791  0.1319 -0.0080
 2420SOL    HW1 8041   7.400   4.253   4.011 -0.6438  0.7187  0.0405
 2420SOL    HW2 8042   7.389   4.124   3.932  0.6193  0.1985  0.6779
 2421SOL     OW 8043   5.339   8.191   7.970 -0.2964  0.0687 -0.3616
 2421SOL    HW1 8044   5.291   8.110   7.990  1.1133 -0.9248 -0.8072
 2421SOL    HW2 8045   5.350   8.189   7.875 -0.5829  0.9938 -0.4159
 2422SOL     OW 8046   7.203   2.965   5.246  0.3675 -0.2652 -0.5701
 2422SOL    HW1 8047   7.257   3.023   5.300  1.5972 -2.3024  0.5360
 2422SOL    HW2 8048   7.113   2.984   5.273  0.7255  1.0629 -0.2196
 2423SOL     OW 8049   0.655   6.344   3.473 -0.3227 -0.7098  0.7267
 2423SOL    HW1 8050   0.563   6.351   3.498 -0.4511 -1.6684  0.5426
 2423SOL    HW2 8051   0.699   6.306   3.549 -0.1049 -0.4304  0.7447
 2424SOL     OW 8052   0.351   2.707   4.398 -0.5190 -0.5503 -0.0511
 2424SOL    HW1 8053   0.388   2.621   4.376  0.3978 -0.3804  0.7662
 2424SOL    HW2 8054   0.356   2.757   4.317 -2.2346 -1.6325 -0.9083
 2425SOL     OW 8055   4.893   0.010   2.473  0.2812 -0.3574 -0.1699
 2425SOL    HW1 8056   4.914   0.093   2.517 -0.9914  0.6573 -1.3664
 2425SOL    HW2 8057   4.934   0.018   2.387  0.1901 -0.9996 -0.2744
 2426SOL     OW 8058   2.443   5.579   0.702  0.1827 -0.2574  0.0501
 2426SOL    HW1 8059   2.409   5.650   0.648  0.4022 -1.2989 -1.4982
 2426SOL    HW2 8060   2.457   5.620   0.788 -1.3237  1.1229 -0.3158
 2427SOL     OW 8061   5.445   3.244   7.080  0.3185 -0.4362  0.0395
 2427SOL    HW1 8062   5.538   3.248   7.102  0.0488 -1.8591  1.6931
 2427SOL    HW2 8063   5.422   3.334   7.056  1.7204  0.3579  1.4249
 2428SOL     OW 8064   3.873   8.100   6.635 -0.1077 -0.2578  0.5148
 2428SOL    HW1 8065   3.885   8.193   6.656 -0.7975 -0.6832  3.0644
 2428SOL    HW2 8066   3.962   8.069   6.615  0.2363  0.7698  0.3902
 2429SOL     OW 8067   0.166   6.829   3.882 -0.1563  0.2080 -0.0468
 2429SOL    HW1 8068   0.199   6.918   3.886 -1.1871  0.8293 -3.0783
 2429SOL    HW2 8069   0.156   6.811   3.788 -0.5470 -2.8847  0.4800
 2430SOL     OW 8070   0.585   3.951   4.337  0.0371  0.3550 -0.1499
 2430SOL    HW1 8071   0.521   3.944   4.266  1.0397  0.3050 -1.0783
 2430SOL    HW2 8072   0.534   3.982   4.412 -1.3517 -1.0765 -0.4357
 2431SOL     OW 8073   5.594   4.340   8.134  0.1456 -0.2558 -0.0296
 2431SOL    HW1 8074   5.645   4.409   8.093  0.4757  0.2209  1.1337
 2431SOL    HW2 8075   5.608   4.352   8.228 -2.2247  0.0045  0.3579
 2432SOL     OW 8076   2.107   5.945   1.693  0.3031  0.1055 -0.1339
 2432SOL    HW1 8077   2.060   5.944   1.609  0.8086  0.0893 -0.4165
 2432SOL    HW2 8078   2.041   5.917   1.757 -0.1528  0.3607 -0.4864
 2433SOL     OW 8079   0.531   6.081   3.815  0.1203  0.3575 -0.4506
 2433SOL    HW1 8080   0.469   6.077   3.743 -1.0612 -0.8916  0.5748
 2433SOL    HW2 8081   0.575   5.996   3.814 -0.9683 -0.2933  1.1243
 2434SOL     OW 8082   4.193   1.022   5.836  0.5642 -0.1995  0.2712
 2434SOL    HW1 8083   4.228   1.093   5.782  2.0955 -0.6887  0.5740
 2434SOL    HW2 8084   4.112   0.996   5.791  0.8409  0.6405 -0.7544
 2435SOL     OW 8085   7.822   0.414   3.972  0.2597  0.3246 -0.1912
 2435SOL    HW1 8086   7.791   0.381   4.056  2.5076  1.1100  1.0207
 2435SOL    HW2 8087   7.760   0.378   3.908 -1.0664 -0.9303  1.6925
 2436SOL     OW 8088   6.703   4.256   7.108 -0.3808 -0.6037 -0.3712
 2436SOL    HW1 8089   6.757   4.308   7.048 -1.0216  0.0021 -0.4347
 2436SOL    HW2 8090   6.724   4.290   7.195 -0.9642 -0.0642 -0.4303
 2437SOL     OW 8091   1.133   1.724   6.627 -0.1536  0.0078  0.2322
 2437SOL    HW1 8092   1.063   1.761   6.681 -0.8352 -0.1838 -0.5110
 2437SOL    HW2 8093   1.206   1.711   6.689 -0.7826  0.1562  1.0242
 2438SOL     OW 8094   2.153   7.996   4.980 -0.2252  0.3582  0.3473
 2438SOL    HW1 8095   2.245   7.975   4.992 -0.0504  2.2426  3.3239
 2438SOL    HW2 8096   2.152   8.067   4.916  0.3386  0.1623  0.1185
 2439SOL     OW 8097   2.165   2.351   4.948 -0.6691  0.6127  0.2815
 2439SOL    HW1 8098   2.105   2.284   4.917  0.6109 -0.2983 -0.3126
 2439SOL    HW2 8099   2.201   2.390   4.868  0.4177  0.3041  0.6003
 2440SOL     OW 8100   2.372   4.347   1.775 -0.1239 -0.2022 -0.0996
 2440SOL    HW1 8101   2.422   4.268   1.795  1.2690  0.3774 -1.1241
 2440SOL    HW2 8102   2.427   4.419   1.806 -1.7968  0.3847  1.7079
 2441SOL     OW 8103   1.439   6.100   1.420 -0.1238  0.3629  0.0264
 2441SOL    HW1 8104   1.397   6.023   1.458 -0.7436  0.0627 -1.2060
 2441SOL    HW2 8105   1.379   6.172   1.441 -0.6423  0.1420 -0.6458
 2442SOL     OW 8106   0.118   4.644   5.809  0.2997  0.1704 -0.0897
 2442SOL    HW1 8107   0.159   4.713   5.757  0.5211  1.5488  1.8111
 2442SOL    HW2 8108   0.031   4.679   5.831  0.7386  0.2687  1.6310
 2443SOL     OW 8109   1.981   2.082   6.759  0.0986 -0.2186 -0.1528
 2443SOL    HW1 8110   1.993   1.987   6.762 -1.3584 -0.3994  2.4733
 2443SOL    HW2 8111   1.888   2.095   6.777  0.6614  1.7431  1.6881
 2444SOL     OW 8112   4.587   4.912   4.654 -0.3559 -0.3603 -0.3132
 2444SOL    HW1 8113   4.576   4.918   4.748 -0.0261  0.6689 -0.3339
 2444SOL    HW2 8114   4.514   4.962   4.617 -0.3048 -0.4929 -0.5983
 2445SOL     OW 8115   4.809   4.207   0.029  0.4462 -0.4545 -0.4311
 2445SOL    HW1 8116   4.766   4.179   0.110  0.5146 -0.9320 -0.5591
 2445SOL    HW2 8117   4.875   4.139   0.012 -1.0979 -1.6044 -2.1371
 2446SOL     OW 8118   2.382   1.664   6.373 -0.4126  0.0880  0.1074
 2446SOL    HW1 8119   2.323   1.638   6.302 -1.0546  2.9578 -0.5362
 2446SOL    HW2 8120   2.461   1.696   6.328  0.1226 -0.2268  0.8008
 2447SOL     OW 8121   7.989   7.672   3.312  0.5091 -0.0302 -0.6645
 2447SOL    HW1 8122   7.897   7.690   3.290  0.7942 -0.3613 -2.2271
 2447SOL    HW2 8123   7.997   7.700   3.403 -0.5826  2.1055 -1.1448
 2448SOL     OW 8124   2.993   6.643   3.435  0.1105 -0.2587 -0.0333
 2448SOL    HW1 8125   3.049   6.644   3.358 -0.6494  1.5011 -0.6160
 2448SOL    HW2 8126   2.960   6.733   3.443  0.2857 -0.3272  2.4557
 2449SOL     OW 8127   0.316   7.170   2.603  0.0706  0.7907  0.7037
 2449SOL    HW1 8128   0.347   7.116   2.530 -0.7474  0.1561  0.8175
 2449SOL    HW2 8129   0.227   7.140   2.619  0.3637  0.6470  2.2157
 2450SOL     OW 8130   3.902   8.169   1.409 -0.5075  0.0837  0.3183
 2450SOL    HW1 8131   3.900   8.230   1.483 -0.9412  1.0540 -0.4805
 2450SOL    HW2 8132   3.945   8.218   1.339 -0.0604 -0.8473 -0.0739
 2451SOL     OW 8133   7.451   5.976   6.693  0.0596  0.0840 -0.0424
 2451SOL    HW1 8134   7.522   5.943   6.748  1.9364  1.5225 -1.4327
 2451SOL    HW2 8135   7.493   5.994   6.608 -1.5250  2.7039 -0.3854
 2452SOL     OW 8136   2.033   2.769   3.666 -0.0282  0.2102 -0.4545
 2452SOL    HW1 8137   2.091   2.695   3.649  3.2906  1.2220  4.5456
 2452SOL    HW2 8138   2.077   2.843   3.624  0.8246  0.4992  0.9029
 2453SOL     OW 8139   4.458   5.662   7.137 -0.1200  0.1828  0.2527
 2453SOL    HW1 8140   4.507   5.744   7.145 -0.5478  0.5094 -0.3972
 2453SOL    HW2 8141   4.380   5.686   7.087  0.2832 -0.8317 -0.9095
 2454SOL     OW 8142   4.547   6.588   3.489 -0.0824 -0.4854 -0.6306
 2454SOL    HW1 8143   4.606   6.602   3.415 -0.2540 -0.4643 -0.7637
 2454SOL    HW2 8144   4.473   6.541   3.452  0.5426 -1.8875 -0.1728
 2455SOL     OW 8145   3.097   7.455   2.011  0.4688 -0.4773  0.4666
 2455SOL    HW1 8146   3.025   7.395   2.031  0.8409 -1.4277 -0.9454
 2455SOL    HW2 8147   3.169   7.399   1.982  1.6396  0.4921  1.3879
 2456SOL     OW 8148   4.415   0.828   6.310 -0.7293 -0.1928 -0.2059
 2456SOL    HW1 8149   4.385   0.870   6.230  0.5142  0.2933 -0.4448
 2456SOL    HW2 8150   4.345   0.844   6.374 -1.1123  0.6154 -0.8145
 2457SOL     OW 8151   3.425   3.551   8.250  0.0404 -0.8460 -0.0233
 2457SOL    HW1 8152   3.389   3.605   8.179 -0.2486 -1.1493 -0.1056
 2457SOL    HW2 8153   3.513   3.528   8.220 -0.1952 -1.2330 -0.4195
 2458SOL     OW 8154   6.113   1.725   3.008  0.8011 -0.1146 -0.4211
 2458SOL    HW1 8155   6.054   1.734   3.083  1.3500  0.5226 -0.0631
 2458SOL    HW2 8156   6.060   1.750   2.932  0.4245 -0.1811 -0.1802
 2459SOL     OW 8157   6.313   7.363   3.292 -0.2202  0.1328  0.3937
 2459SOL    HW1 8158   6.336   7.360   3.199  1.0342 -1.8269  0.7044
 2459SOL    HW2 8159   6.398   7.359   3.338 -0.8939 -2.7716  1.5921
 2460SOL     OW 8160   2.110   6.278   5.030  0.1604 -0.0052  0.1966
 2460SOL    HW1 8161   2.060   6.302   4.952 -1.5985 -1.0996  0.9332
 2460SOL    HW2 8162   2.174   6.348   5.040 -0.6933  1.0267 -1.2584
 2461SOL     OW 8163   0.427   5.602   3.151 -0.5300  0.6807 -0.7359
 2461SOL    HW1 8164   0.449   5.664   3.221  2.2706 -1.0493  0.1040
 2461SOL    HW2 8165   0.420   5.657   3.072 -1.3066  2.3944  0.4573
 2462SOL     OW 8166   0.382   4.345   5.750  0.2295  0.6535  0.3130
 2462SOL    HW1 8167   0.288   4.327   5.741  0.3977 -0.0745 -0.0397
 2462SOL    HW2 8168   0.423   4.259   5.749  0.9162  0.9787  0.3220
 2463SOL     OW 8169   0.703   8.123   3.218  0.2065 -0.1326  0.3827
 2463SOL    HW1 8170   0.672   8.041   3.181 -1.8090  0.8164 -0.1627
 2463SOL    HW2 8171   0.794   8.105   3.244 -0.0156 -2.3428 -0.1966
 2464SOL     OW 8172   4.467   3.695   1.792  0.1504 -0.1320  0.4198
 2464SOL    HW1 8173   4.520   3.686   1.871 -0.1067 -2.5512  0.3879
 2464SOL    HW2 8174   4.524   3.665   1.721  0.9353  3.4246 -0.6991
 2465SOL     OW 8175   2.912   0.208   0.835  0.2079 -0.4003  0.2898
 2465SOL    HW1 8176   2.973   0.187   0.764  0.2306  0.3693  0.0667
 2465SOL    HW2 8177   2.910   0.304   0.836  0.3060 -0.3971  1.4184
 2466SOL     OW 8178   0.158   6.665   4.421 -0.3351 -0.3923 -0.5113
 2466SOL    HW1 8179   0.215   6.670   4.344 -0.0737 -0.9280 -0.3561
 2466SOL    HW2 8180   0.217   6.648   4.494 -0.3575  1.7793  0.1074
 2467SOL     OW 8181   1.132   1.953   2.852  0.8025 -0.1798  0.0847
 2467SOL    HW1 8182   1.188   2.018   2.812  2.0647  0.4211  2.6446
 2467SOL    HW2 8183   1.134   1.973   2.946 -0.9377 -2.2579  0.6597
 2468SOL     OW 8184   2.474   3.245   5.394  0.1397  0.1377  0.4156
 2468SOL    HW1 8185   2.554   3.283   5.357 -0.1514  0.0747 -0.3067
 2468SOL    HW2 8186   2.428   3.209   5.318 -0.5361  0.1069  0.8329
 2469SOL     OW 8187   5.010   2.269   2.078 -0.3184  0.3838 -0.6732
 2469SOL    HW1 8188   4.974   2.231   1.998 -1.6474  0.8791 -0.3375
 2469SOL    HW2 8189   4.946   2.246   2.146  1.1635 -0.6972  0.4234
 2470SOL     OW 8190   7.551   8.028   4.356 -0.3429  0.1890  0.0264
 2470SOL    HW1 8191   7.602   7.997   4.431  1.1380  0.9738 -0.6254
 2470SOL    HW2 8192   7.557   8.123   4.361 -0.0505  0.2460 -1.1848
 2471SOL     OW 8193   0.128   2.286   5.577 -0.3878 -0.2056 -0.0121
 2471SOL    HW1 8194   0.104   2.211   5.522 -2.3292 -0.5569  1.2309
 2471SOL    HW2 8195   0.122   2.252   5.667 -1.8157  1.5548  0.6003
 2472SOL     OW 8196   7.975   6.715   8.147 -0.2077  0.1307  0.1568
 2472SOL    HW1 8197   7.971   6.664   8.227  1.0392 -0.5954 -0.2115
 2472SOL    HW2 8198   7.995   6.652   8.078 -0.5346  0.8426 -0.6226
 2473SOL     OW 8199   3.182   1.944   3.186 -0.1897 -0.6369  0.3523
 2473SOL    HW1 8200   3.188   1.930   3.092 -2.2602  0.8396 -0.0465
 2473SOL    HW2 8201   3.157   2.036   3.196 -1.5038 -1.1336  2.2684
 2474SOL     OW 8202   0.366   0.900   4.332 -0.3367 -0.3951  0.0374
 2474SOL    HW1 8203   0.387   0.854   4.413  1.7152  0.1926 -0.0911
 2474SOL    HW2 8204   0.422   0.978   4.334 -1.1295  0.2446 -1.3920
 2475SOL     OW 8205   7.757   2.729   6.844 -0.0997  0.2191  0.2565
 2475SOL    HW1 8206   7.738   2.755   6.754  0.1766 -0.0486  0.1172
 2475SOL    HW2 8207   7.832   2.671   6.836 -0.9336 -0.9356  0.5084
 2476SOL     OW 8208   6.106   3.911   6.058  0.5473 -0.4786  0.1366
 2476SOL    HW1 8209   6.088   3.919   6.151 -1.9905  0.7473 -0.3749
 2476SOL    HW2 8210   6.076   3.993   6.020 -0.0486 -1.5989 -1.9688
 2477SOL     OW 8211   3.929   1.248   6.382 -0.4567  0.5016  0.5454
 2477SOL    HW1 8212   4.003   1.194   6.408 -0.2232  1.1565  1.2838
 2477SOL    HW2 8213   3.882   1.266   6.463 -0.9093  0.8521  0.2177
 2478SOL     OW 8214   5.006   6.357   6.412  0.0937 -0.1672 -0.1770
 2478SOL    HW1 8215   4.987   6.448   6.433 -0.5957 -0.3461  0.0158
 2478SOL    HW2 8216   5.011   6.355   6.316  1.7255  0.3667 -0.1194
 2479SOL     OW 8217   7.762   0.528   0.028 -0.0618 -0.0465  0.9503
 2479SOL    HW1 8218   7.761   0.529  -0.068 -2.6336 -1.0278  0.8920
 2479SOL    HW2 8219   7.809   0.609   0.052 -1.3490  1.4268 -1.1416
 2480SOL     OW 8220   7.826   4.997   6.990  0.0268  0.2903 -0.1940
 2480SOL    HW1 8221   7.845   4.909   6.957  1.6197  0.4492  0.2249
 2480SOL    HW2 8222   7.885   5.007   7.065 -1.7445  0.8740  1.1898
 2481SOL     OW 8223   4.295   0.266   5.468 -0.1895 -0.1163  0.2889
 2481SOL    HW1 8224   4.250   0.192   5.507  0.6191 -0.6309  0.2651
 2481SOL    HW2 8225   4.225   0.327   5.444 -0.8456 -0.7850  0.4803
 2482SOL     OW 8226   1.785   3.810   6.877 -0.9021 -0.6933 -0.3623
 2482SOL    HW1 8227   1.706   3.864   6.891 -0.8428 -1.0475  1.5935
 2482SOL    HW2 8228   1.815   3.789   6.966  0.4770 -1.9226 -1.0958
 2483SOL     OW 8229   5.827   0.138   8.289  0.3240 -0.3328  0.0755
 2483SOL    HW1 8230   5.860   0.188   8.364  0.1143 -0.2408  0.1057
 2483SOL    HW2 8231   5.733   0.153   8.289  0.4531  0.5701 -0.8619
 2484SOL     OW 8232   5.594   3.460   5.525  0.6597  0.1876 -0.3160
 2484SOL    HW1 8233   5.688   3.459   5.506  0.7468 -1.2494  0.0627
 2484SOL    HW2 8234   5.588   3.502   5.611  0.7033  2.3741 -1.3215
 2485SOL     OW 8235   3.578   2.158   0.496  0.5287  0.4887 -0.7624
 2485SOL    HW1 8236   3.556   2.250   0.485 -0.4586  0.1938 -1.4204
 2485SOL    HW2 8237   3.528   2.113   0.428 -1.8808 -0.9294  1.7686
 2486SOL     OW 8238   6.148   2.450   2.697  0.4769  0.2418  0.1146
 2486SOL    HW1 8239   6.183   2.532   2.664 -0.8108  0.5263 -0.6010
 2486SOL    HW2 8240   6.077   2.428   2.637  0.5898 -1.2352  0.4829
 2487SOL     OW 8241   5.826   4.601   6.587  0.4732  0.1780 -0.3487
 2487SOL    HW1 8242   5.892   4.546   6.629 -0.2080 -0.3871  0.0075
 2487SOL    HW2 8243   5.827   4.575   6.495 -0.3007 -0.9274 -0.0701
 2488SOL     OW 8244   7.764   7.528   7.720  0.7213  0.3310  0.2661
 2488SOL    HW1 8245   7.822   7.536   7.796  1.8533 -0.4001 -0.4848
 2488SOL    HW2 8246   7.741   7.618   7.698  1.1429  0.6011  0.8909
 2489SOL     OW 8247   6.234   3.625   0.191  0.5134  0.6133 -0.1235
 2489SOL    HW1 8248   6.316   3.594   0.228  0.1846 -0.4468 -0.2409
 2489SOL    HW2 8249   6.169   3.561   0.220  0.1819 -0.0952 -2.2180
 2490SOL     OW 8250   1.930   7.576   4.283  0.0205 -0.5613  0.2444
 2490SOL    HW1 8251   1.893   7.559   4.369 -0.7397 -1.8585 -0.2980
 2490SOL    HW2 8252   1.854   7.578   4.224  0.5075  0.4669 -0.3767
 2491SOL     OW 8253   0.692   0.495   4.603  0.0774  0.3076 -0.2309
 2491SOL    HW1 8254   0.670   0.410   4.566 -1.4738  1.3438 -1.8489
 2491SOL    HW2 8255   0.773   0.521   4.559  1.1245 -0.7223  1.0126
 2492SOL     OW 8256   3.004   0.401   3.627  0.5025  0.1402 -0.1001
 2492SOL    HW1 8257   3.048   0.426   3.708  0.4360 -1.4884  0.4736
 2492SOL    HW2 8258   3.072   0.407   3.560  0.5871  1.3860  0.0637
 2493SOL     OW 8259   4.304   2.973   6.891  0.0028 -0.6922  0.4242
 2493SOL    HW1 8260   4.263   3.048   6.936  1.5203  1.3924 -1.4552
 2493SOL    HW2 8261   4.391   3.005   6.867  0.3815 -2.7998 -1.2233
 2494SOL     OW 8262   1.662   2.014   0.380  0.0716  0.1324  0.5073
 2494SOL    HW1 8263   1.588   2.046   0.328 -0.9128  0.2757  1.9329
 2494SOL    HW2 8264   1.623   1.986   0.462  1.5204 -0.5513  0.9971
 2495SOL     OW 8265   2.227   1.895   6.631  0.7867  0.0065 -0.1459
 2495SOL    HW1 8266   2.244   1.822   6.571  1.3289 -0.7038  0.8543
 2495SOL    HW2 8267   2.133   1.891   6.648  0.7594 -0.2480 -0.3462
 2496SOL     OW 8268   1.863   7.755   1.718 -0.2342  0.0451  0.7163
 2496SOL    HW1 8269   1.852   7.670   1.762  0.5454 -0.6304 -0.3575
 2496SOL    HW2 8270   1.952   7.753   1.684 -1.0037  0.3023 -1.4121
 2497SOL     OW 8271   7.911   2.819   1.826  0.2049 -0.4568  0.4500
 2497SOL    HW1 8272   7.856   2.744   1.850 -0.7340  0.1931  0.3307
 2497SOL    HW2 8273   7.863   2.863   1.756  0.2252  0.8788  1.2521
 2498SOL     OW 8274   6.800   2.017   7.126  0.6238  0.2236  0.1407
 2498SOL    HW1 8275   6.777   2.048   7.213  2.4927  0.7038  0.5097
 2498SOL    HW2 8276   6.825   2.096   7.078 -0.5207 -0.0164 -0.9051
 2499SOL     OW 8277   7.118   0.842   5.648 -0.0365 -0.7479  0.1972
 2499SOL    HW1 8278   7.128   0.910   5.714 -1.4469  1.5431 -1.7848
 2499SOL    HW2 8279   7.189   0.857   5.586 -0.7749 -0.5869 -0.6290
 2500SOL     OW 8280   6.201   1.665   5.094  0.2772  0.3541 -0.5311
 2500SOL    HW1 8281   6.159   1.690   5.011 -0.1857 -0.9891 -0.7163
 2500SOL    HW2 8282   6.131   1.672   5.159  1.1681  3.8186  0.3093
 2501SOL     OW 8283   5.638   0.695   1.964 -0.9833 -0.5869  0.1632
 2501SOL    HW1 8284   5.622   0.672   1.872 -0.2539  2.6241 -0.8939
 2501SOL    HW2 8285   5.619   0.789   1.969 -0.5214 -0.5517  3.2166
 2502SOL     OW 8286   7.531   0.286   7.453  0.4427 -0.3712  0.2600
 2502SOL    HW1 8287   7.607   0.342   7.467 -0.2276  1.1332 -1.6803
 2502SOL    HW2 8288   7.499   0.266   7.542  1.7282  0.8623  1.0385
 2503SOL     OW 8289   0.286   5.448   7.937 -0.0942 -0.8932 -0.3373
 2503SOL    HW1 8290   0.217   5.387   7.912  1.1092 -3.2305  1.5919
 2503SOL    HW2 8291   0.250   5.496   8.012 -0.6378  0.0758 -1.1816
 2504SOL     OW 8292   0.620   6.244   2.543 -0.0356  0.1638  0.0602
 2504SOL    HW1 8293   0.607   6.298   2.621 -0.2903 -0.2321  0.2946
 2504SOL    HW2 8294   0.541   6.256   2.491 -0.8953 -1.3497  0.9478
 2505SOL     OW 8295   6.861   5.992   2.559  0.0383  0.1024  0.1219
 2505SOL    HW1 8296   6.815   5.952   2.633  0.4997 -1.6918 -0.5076
 2505SOL    HW2 8297   6.926   5.927   2.534  0.8049  1.2667 -1.0079
 2506SOL     OW 8298   0.987   7.339   0.173  0.2581 -0.0089 -0.3232
 2506SOL    HW1 8299   1.076   7.341   0.137  0.3203 -1.7040 -0.3445
 2506SOL    HW2 8300   0.991   7.273   0.243 -1.3035 -1.2616 -1.3262
 2507SOL     OW 8301   0.190   0.109   5.988  0.5514 -0.5676  0.4416
 2507SOL    HW1 8302   0.174   0.021   6.025  1.1240 -0.5823  0.6611
 2507SOL    HW2 8303   0.223   0.092   5.900 -1.5101 -0.5201 -0.3897
 2508SOL     OW 8304   0.330   4.518   5.948  0.0418  0.3286 -0.2262
 2508SOL    HW1 8305   0.341   4.450   5.882  0.1377  1.8624 -1.8866
 2508SOL    HW2 8306   0.257   4.571   5.916 -0.7107  0.4372  1.5536
 2509SOL     OW 8307   6.707   2.922   0.704 -0.0709 -0.3693 -0.4149
 2509SOL    HW1 8308   6.623   2.952   0.739 -0.0031  0.4655 -0.9317
 2509SOL    HW2 8309   6.768   2.993   0.724  0.0722 -0.0823 -1.7684
 2510SOL     OW 8310   3.828   4.856   0.116  0.1635 -0.4317 -0.3869
 2510SOL    HW1 8311   3.787   4.792   0.173 -1.5064  0.1670 -0.8523
 2510SOL    HW2 8312   3.896   4.807   0.069  1.6152 -0.9267  2.0608
 2511SOL     OW 8313   4.147   4.349   5.827  0.1404 -0.1909  0.4445
 2511SOL    HW1 8314   4.232   4.387   5.849  0.2425  1.4197 -2.3328
 2511SOL    HW2 8315   4.164   4.255   5.818  0.7751 -0.4483  3.3788
 2512SOL     OW 8316   6.475   4.155   0.049  0.4556  0.2105  0.0732
 2512SOL    HW1 8317   6.398   4.148   0.106 -1.0048 -0.9721 -1.9401
 2512SOL    HW2 8318   6.499   4.064   0.031  1.3332  0.5694 -0.6279
 2513SOL     OW 8319   4.516   3.893   3.513 -0.2463  0.2207 -0.2276
 2513SOL    HW1 8320   4.476   3.944   3.442 -2.1783  1.8302  1.8693
 2513SOL    HW2 8321   4.451   3.825   3.532  1.2008 -1.5779 -1.2957
 2514SOL     OW 8322   2.558   8.131   4.819 -0.3283 -0.1546  0.1472
 2514SOL    HW1 8323   2.533   8.040   4.832 -0.1664 -0.3645 -0.9277
 2514SOL    HW2 8324   2.555   8.144   4.725  0.3845  0.7411  0.2294
 2515SOL     OW 8325   4.284   0.739   4.892  0.2936 -0.1220 -0.2443
 2515SOL    HW1 8326   4.348   0.690   4.840  2.4613  1.0382  1.1490
 2515SOL    HW2 8327   4.242   0.672   4.946  1.1403 -0.8157 -0.4093
 2516SOL     OW 8328   4.322   6.322   2.644 -0.3686  1.0310  0.1378
 2516SOL    HW1 8329   4.393   6.294   2.703 -1.5520  0.6588  1.4349
 2516SOL    HW2 8330   4.255   6.255   2.655 -0.1717  0.2800 -2.5891
 2517SOL     OW 8331   6.086   1.223   4.164 -0.2408  0.1413  0.5983
 2517SOL    HW1 8332   6.156   1.285   4.185 -1.1801  1.8324 -0.9788
 2517SOL    HW2 8333   6.009   1.278   4.149 -1.5105 -1.5436  0.6697
 2518SOL     OW 8334   5.119   5.266   0.394  0.1246  0.2577 -0.2237
 2518SOL    HW1 8335   5.136   5.173   0.380 -1.2778 -0.0221 -0.2109
 2518SOL    HW2 8336   5.024   5.272   0.401  0.2196  1.6491  0.1361
 2519SOL     OW 8337   5.792   4.473   3.887  1.0399 -0.6673 -0.3302
 2519SOL    HW1 8338   5.724   4.539   3.897  0.8157 -0.9562  0.0927
 2519SOL    HW2 8339   5.874   4.522   3.891  0.8552 -0.2182 -1.5896
 2520SOL     OW 8340   7.219   5.710   1.103  0.4042  0.0737 -0.0834
 2520SOL    HW1 8341   7.174   5.739   1.024 -1.8528  0.3230  1.2013
 2520SOL    HW2 8342   7.199   5.617   1.109  2.4113 -0.4565 -0.9060
 2521SOL     OW 8343   4.381   3.919   3.206  0.1493 -0.1849 -0.6054
 2521SOL    HW1 8344   4.290   3.910   3.233 -0.0142  2.2374 -0.1690
 2521SOL    HW2 8345   4.404   4.009   3.228  2.7245 -0.7920 -0.5365
 2522SOL     OW 8346   6.331   2.114   5.792  0.0491 -0.1242  0.0593
 2522SOL    HW1 8347   6.398   2.174   5.823  0.5436 -0.2669 -0.7127
 2522SOL    HW2 8348   6.314   2.141   5.702 -1.9935  0.8447  0.6693
 2523SOL     OW 8349   6.501   6.066   3.008  0.3214 -0.2687 -0.5773
 2523SOL    HW1 8350   6.434   6.028   3.065  0.3067 -1.5200 -1.3970
 2523SOL    HW2 8351   6.583   6.023   3.035  0.5522  0.1785 -0.5591
 2524SOL     OW 8352   2.556   6.973   6.039  0.2735 -0.1336  0.6579
 2524SOL    HW1 8353   2.522   6.888   6.014  0.9252 -0.5662  1.2184
 2524SOL    HW2 8354   2.595   7.008   5.959  0.4852 -0.5977  0.5584
 2525SOL     OW 8355   2.973   3.412   3.075 -0.1936  0.0796  0.1676
 2525SOL    HW1 8356   2.883   3.440   3.092 -0.0875  0.6023 -0.1027
 2525SOL    HW2 8357   2.992   3.348   3.143 -1.1569 -0.8801 -0.4429
 2526SOL     OW 8358   1.056   3.474   0.381 -0.3817  0.0181 -0.1226
 2526SOL    HW1 8359   1.085   3.511   0.298  0.3282 -0.1850  0.0267
 2526SOL    HW2 8360   1.108   3.394   0.391 -0.3163  0.1500  0.6150
 2527SOL     OW 8361   3.447   7.481   5.556 -0.1478 -0.1247  0.4876
 2527SOL    HW1 8362   3.446   7.527   5.472 -0.3778  3.5246  2.2907
 2527SOL    HW2 8363   3.539   7.460   5.570 -0.1005 -0.7461 -0.6135
 2528SOL     OW 8364   4.543   1.881   7.406 -0.5462 -0.4035  0.0110
 2528SOL    HW1 8365   4.531   1.951   7.341 -0.1074 -2.0992 -2.0099
 2528SOL    HW2 8366   4.455   1.853   7.428 -0.7198  0.5758  0.6711
 2529SOL     OW 8367   6.889   5.547   7.455  0.1516  0.3761  0.1199
 2529SOL    HW1 8368   6.951   5.616   7.430 -0.0451  0.6056  0.2672
 2529SOL    HW2 8369   6.842   5.584   7.530  1.6140 -0.7659  1.6855
 2530SOL     OW 8370   5.498   2.023   2.357 -1.2262  0.3733  0.4823
 2530SOL    HW1 8371   5.481   2.116   2.344  0.3165  0.6141  0.0120
 2530SOL    HW2 8372   5.531   2.017   2.447 -1.1982  0.3010  0.4673
 2531SOL     OW 8373   1.286   6.715   7.790  0.2840 -0.4726 -0.5928
 2531SOL    HW1 8374   1.237   6.671   7.859  0.7832  0.2429  0.2583
 2531SOL    HW2 8375   1.325   6.645   7.738 -0.9872 -1.0329 -0.8135
 2532SOL     OW 8376   3.920   0.686   2.985  0.0365 -0.2254  0.6019
 2532SOL    HW1 8377   4.010   0.653   2.992  0.6665  1.1154 -0.5057
 2532SOL    HW2 8378   3.901   0.722   3.072  1.7708  2.1885  0.1156
 2533SOL     OW 8379   0.738   0.518   1.766  0.6697 -0.3700  0.8621
 2533SOL    HW1 8380   0.784   0.452   1.817  1.6807 -0.7174 -0.4497
 2533SOL    HW2 8381   0.658   0.474   1.735  0.4219 -0.3837  1.5075
 2534SOL     OW 8382   6.181   4.855   5.293 -0.2235 -0.7122  0.1804
 2534SOL    HW1 8383   6.127   4.816   5.224 -0.1066 -2.3791  0.9837
 2534SOL    HW2 8384   6.243   4.912   5.246 -1.6308  0.0111 -0.8682
 2535SOL     OW 8385   7.019   2.021   3.260 -0.3361 -0.1851 -0.4644
 2535SOL    HW1 8386   7.054   2.095   3.309 -0.3839 -0.6143  0.2348
 2535SOL    HW2 8387   7.055   1.944   3.303  1.2380 -0.5775 -2.3359
 2536SOL     OW 8388   2.851   3.349   4.408 -0.3376  0.6799 -0.2238
 2536SOL    HW1 8389   2.769   3.349   4.359 -0.9560 -2.1548  0.6353
 2536SOL    HW2 8390   2.860   3.438   4.441 -2.8853  1.1439 -0.6200
 2537SOL     OW 8391   4.945   7.991   5.705 -0.1798 -0.3663  0.3501
 2537SOL    HW1 8392   5.033   8.022   5.684 -0.6699  0.0759 -1.1711
 2537SOL    HW2 8393   4.939   7.906   5.661 -0.3772 -0.6092  0.8322
 2538SOL     OW 8394   5.965   2.318   4.537  0.0604 -0.1222 -0.1209
 2538SOL    HW1 8395   5.870   2.307   4.540  0.0750 -0.9383 -1.6960
 2538SOL    HW2 8396   5.997   2.240   4.492  1.5008  0.1021  0.4530
 2539SOL     OW 8397   4.328   7.226   4.574  0.9426 -0.4520  0.7406
 2539SOL    HW1 8398   4.333   7.131   4.560 -0.9388 -0.6152  0.9356
 2539SOL    HW2 8399   4.235   7.246   4.569  1.3236  1.4358  0.5194
 2540SOL     OW 8400   5.415   6.628   5.395 -0.3439 -0.2116  0.2930
 2540SOL    HW1 8401   5.510   6.637   5.389 -0.4063  0.0050 -0.5223
 2540SOL    HW2 8402   5.399   6.597   5.484  0.3243  1.8106  1.1793
 2541SOL     OW 8403   5.798   1.815   1.577  0.1065 -0.4273  0.1201
 2541SOL    HW1 8404   5.735   1.771   1.520  0.6192  0.4881 -1.2066
 2541SOL    HW2 8405   5.744   1.865   1.638 -0.4742  0.5883 -1.1903
 2542SOL     OW 8406   6.172   7.654   5.059  0.0460 -0.3474 -0.0984
 2542SOL    HW1 8407   6.110   7.623   5.124  1.0709 -0.4700  0.8388
 2542SOL    HW2 8408   6.246   7.687   5.109  1.2083 -1.1699 -1.2114
 2543SOL     OW 8409   5.520   0.922   3.409 -0.3090 -0.8884  0.9221
 2543SOL    HW1 8410   5.426   0.923   3.392 -0.0744  2.1011 -0.9745
 2543SOL    HW2 8411   5.533   0.990   3.475  0.6127 -0.5251  0.3839
 2544SOL     OW 8412   8.313   6.479   1.523 -0.1077  0.2718  0.0815
 2544SOL    HW1 8413   8.344   6.565   1.495 -0.1271  0.6802  1.2398
 2544SOL    HW2 8414   8.379   6.417   1.491 -1.1358  0.4247 -2.5902
 2545SOL     OW 8415   7.726   5.871   8.179 -0.0110 -0.3443  0.7573
 2545SOL    HW1 8416   7.756   5.842   8.093  1.0612 -1.4116  1.4652
 2545SOL    HW2 8417   7.774   5.952   8.195  1.5037 -1.3088  1.2741
 2546SOL     OW 8418   0.149   0.383   5.032 -0.3344  0.4358 -0.3439
 2546SOL    HW1 8419   0.172   0.430   5.112  0.2792 -0.0485 -0.2347
 2546SOL    HW2 8420   0.233   0.359   4.993 -0.6026 -1.9584  0.4202
 2547SOL     OW 8421   4.001   2.917   5.137  0.3173 -0.4060  0.1070
 2547SOL    HW1 8422   3.949   2.876   5.069 -0.8378 -0.5504  1.0392
 2547SOL    HW2 8423   3.942   2.982   5.177  0.1451 -1.8901  2.4523
 2548SOL     OW 8424   5.104   1.481   3.652  0.3860  0.4855 -0.0361
 2548SOL    HW1 8425   5.163   1.449   3.584  0.1007  0.6271 -0.3480
 2548SOL    HW2 8426   5.048   1.545   3.608  0.2585  0.6422  0.3490
 2549SOL     OW 8427   3.043   2.010   5.327 -0.6473  0.2035  0.5818
 2549SOL    HW1 8428   2.964   2.043   5.370 -0.3700 -0.1069  1.3445
 2549SOL    HW2 8429   3.044   1.917   5.350  0.0718  0.2582  0.7813
 2550SOL     OW 8430   6.916   0.061   4.814 -0.2574 -0.2690 -0.7433
 2550SOL    HW1 8431   6.984   0.058   4.882  0.1225  0.0668 -1.1047
 2550SOL    HW2 8432   6.860  -0.014   4.834 -1.6174  1.2154  1.4571
 2551SOL     OW 8433   6.132   7.487   4.807  0.0277  0.7891  0.0137
 2551SOL    HW1 8434   6.083   7.415   4.848 -1.0692  0.7878 -1.2530
 2551SOL    HW2 8435   6.134   7.555   4.874  0.4824 -0.1239  0.9821
 2552SOL     OW 8436   3.216   8.269   3.271  0.1299  0.3110 -0.6788
 2552SOL    HW1 8437   3.256   8.195   3.224  1.5065  0.1323  0.6970
 2552SOL    HW2 8438   3.281   8.338   3.266 -0.6336  1.0267 -0.8843
 2553SOL     OW 8439   7.365   6.634   5.858 -0.4698 -0.0996  0.5988
 2553SOL    HW1 8440   7.403   6.710   5.815  0.6366 -0.7233  0.4489
 2553SOL    HW2 8441   7.300   6.601   5.796 -2.1965  1.6563  1.3460
 2554SOL     OW 8442   4.954   8.309   1.225 -0.3009 -0.3063  0.0735
 2554SOL    HW1 8443   4.918   8.299   1.137  1.1875  0.1720 -0.6141
 2554SOL    HW2 8444   4.877   8.322   1.281 -1.3867 -2.0535 -0.9182
 2555SOL     OW 8445   5.331   3.956   6.126  0.4969  0.9482  0.0056
 2555SOL    HW1 8446   5.408   3.998   6.089  1.0177  0.8653  0.9646
 2555SOL    HW2 8447   5.258   4.012   6.100  1.0231  1.6980  0.1161
 2556SOL     OW 8448   0.125   5.110   4.883 -0.0897  0.1941 -0.5654
 2556SOL    HW1 8449   0.147   5.105   4.790 -0.8155 -0.9229 -0.7026
 2556SOL    HW2 8450   0.030   5.098   4.886  0.2348 -3.2214  0.4894
 2557SOL     OW 8451   3.420   7.380   4.440  0.6480  0.0002  0.3558
 2557SOL    HW1 8452   3.443   7.379   4.532  2.4883 -1.6438 -0.0709
 2557SOL    HW2 8453   3.502   7.362   4.394 -0.1754  0.9918 -1.6267
 2558SOL     OW 8454   7.462   3.891   4.771 -0.3185  0.3964 -0.1198
 2558SOL    HW1 8455   7.398   3.830   4.808 -0.7433  1.8189  1.6809
 2558SOL    HW2 8456   7.518   3.914   4.845  0.0082  1.9328 -0.8024
 2559SOL     OW 8457   6.002   0.853   6.709 -0.3785 -0.4102  0.1245
 2559SOL    HW1 8458   5.944   0.869   6.784  0.3987 -0.1882  0.7027
 2559SOL    HW2 8459   6.042   0.938   6.692  0.4692 -0.7546  0.3422
 2560SOL     OW 8460   5.629   7.962   2.248 -0.0812 -0.1444  0.2040
 2560SOL    HW1 8461   5.551   8.003   2.287  2.1842  2.7318  2.1256
 2560SOL    HW2 8462   5.660   7.902   2.315 -0.4150 -1.0174 -0.4114
 2561SOL     OW 8463   2.820   6.689   0.706 -0.3531  0.6279  0.3071
 2561SOL    HW1 8464   2.746   6.693   0.645 -1.9507 -0.3063  2.0511
 2561SOL    HW2 8465   2.830   6.596   0.724  2.1101  0.6197 -0.8034
 2562SOL     OW 8466   5.374   2.944   5.905  0.0621  0.0598 -0.0075
 2562SOL    HW1 8467   5.284   2.925   5.877  0.0544  0.5808 -0.3608
 2562SOL    HW2 8468   5.417   2.974   5.825  0.0068  1.7057  0.5540
 2563SOL     OW 8469   4.941   7.712   7.576  0.0989  0.4543  0.2817
 2563SOL    HW1 8470   4.978   7.662   7.649  2.1147 -0.2196 -1.0919
 2563SOL    HW2 8471   5.012   7.713   7.511 -1.9457  0.1012 -2.0910
 2564SOL     OW 8472   5.770   6.170   2.090 -0.1182 -0.1898 -0.2319
 2564SOL    HW1 8473   5.794   6.232   2.159 -0.8627 -0.9370  0.7241
 2564SOL    HW2 8474   5.686   6.202   2.057 -0.4256 -0.5737  0.1546
 2565SOL     OW 8475   4.230   3.230   6.013  0.2394  0.1261  0.4417
 2565SOL    HW1 8476   4.294   3.163   5.991 -0.6890 -1.2857  1.8297
 2565SOL    HW2 8477   4.282   3.310   6.022  1.7124 -0.8247  0.8544
 2566SOL     OW 8478   0.642   0.805   0.164  0.0829 -0.1052 -0.4870
 2566SOL    HW1 8479   0.579   0.873   0.188 -0.6184 -0.4676 -1.2512
 2566SOL    HW2 8480   0.691   0.789   0.245  0.0603  1.0877 -0.2165
 2567SOL     OW 8481   4.501   5.855   1.819 -0.1756  0.7885 -0.6286
 2567SOL    HW1 8482   4.412   5.831   1.793 -0.4007 -0.1579  0.8761
 2567SOL    HW2 8483   4.546   5.875   1.737 -1.1522 -0.8833 -1.6316
 2568SOL     OW 8484   1.673   3.424   5.676  0.1965  0.2883  0.0951
 2568SOL    HW1 8485   1.577   3.418   5.667  0.1956  1.8133 -1.5738
 2568SOL    HW2 8486   1.688   3.513   5.710  1.0131 -0.0812  0.7187
 2569SOL     OW 8487   0.800   7.146   8.315 -0.5390 -0.0996  0.6350
 2569SOL    HW1 8488   0.818   7.114   8.403 -0.2230  0.9247  0.9490
 2569SOL    HW2 8489   0.791   7.240   8.324 -0.1652  0.0641 -0.4724
 2570SOL     OW 8490   6.410   6.324   5.704  0.2801  0.1058 -0.3062
 2570SOL    HW1 8491   6.470   6.291   5.637 -0.1072 -0.1514 -0.5310
 2570SOL    HW2 8492   6.329   6.343   5.656 -0.4240 -1.2709  0.2824
 2571SOL     OW 8493   3.216   7.785   7.774  0.4279  0.2436 -0.1441
 2571SOL    HW1 8494   3.133   7.781   7.821  1.1837  0.5628  1.2653
 2571SOL    HW2 8495   3.257   7.700   7.790  0.6045  0.2792 -0.4026
 2572SOL     OW 8496   1.259   6.131   6.814  0.6398  0.8710  0.1566
 2572SOL    HW1 8497   1.164   6.134   6.815  0.6014  0.0811 -0.1402
 2572SOL    HW2 8498   1.283   6.168   6.729  0.4640 -1.1584 -0.8379
 2573SOL     OW 8499   6.388   2.055   4.527 -0.3533 -0.2245 -0.6543
 2573SOL    HW1 8500   6.409   2.135   4.575 -1.1686  0.7310 -1.8153
 2573SOL    HW2 8501   6.413   1.984   4.586 -1.9105  0.8770  1.4571
 2574SOL     OW 8502   3.028   4.514   4.240  0.1867 -0.2663 -0.0122
 2574SOL    HW1 8503   3.069   4.593   4.204 -1.6590  0.5311 -0.5123
 2574SOL    HW2 8504   2.934   4.531   4.232 -0.2652 -2.7602 -0.6495
 2575SOL     OW 8505   8.116   4.627   7.209  0.0823  0.1056 -0.1096
 2575SOL    HW1 8506   8.185   4.639   7.274 -0.4854 -1.4250  0.8326
 2575SOL    HW2 8507   8.037   4.660   7.252 -0.1569 -0.1794 -0.3242
 2576SOL     OW 8508   7.575   6.737   0.852  0.3388  0.1242 -0.2646
 2576SOL    HW1 8509   7.671   6.736   0.860  0.5507  3.1537 -1.1905
 2576SOL    HW2 8510   7.559   6.757   0.760 -1.3196 -2.6689 -0.7004
 2577SOL     OW 8511   0.651   6.802   3.502  0.2206  0.6414  0.0775
 2577SOL    HW1 8512   0.602   6.748   3.440 -1.6148  2.4412 -0.1180
 2577SOL    HW2 8513   0.704   6.739   3.551  2.2074 -0.8465 -3.5683
 2578SOL     OW 8514   7.290   8.124   6.753 -0.1416  0.3056  0.4340
 2578SOL    HW1 8515   7.338   8.125   6.670 -0.1783 -0.7972  0.3851
 2578SOL    HW2 8516   7.233   8.201   6.749 -0.1996  0.2207 -0.5896
 2579SOL     OW 8517   2.793   0.278   2.006  0.3149  0.3293 -0.2395
 2579SOL    HW1 8518   2.743   0.198   1.991  1.2158 -0.3542  0.2397
 2579SOL    HW2 8519   2.740   0.329   2.067 -0.7411  0.5719 -1.3421
 2580SOL     OW 8520   1.801   2.864   0.018 -0.0027  0.4732 -0.2312
 2580SOL    HW1 8521   1.839   2.776   0.027  2.5669  1.6209  1.1274
 2580SOL    HW2 8522   1.779   2.890   0.107  0.4954  1.6944 -0.4477
 2581SOL     OW 8523   4.568   3.219   4.872  0.0194  0.0884  0.2444
 2581SOL    HW1 8524   4.630   3.253   4.937  1.3242  0.9660 -1.3825
 2581SOL    HW2 8525   4.489   3.270   4.887  0.4502  0.6042  0.8479
 2582SOL     OW 8526   6.788   6.380   0.450 -0.3721  0.0406  0.2002
 2582SOL    HW1 8527   6.785   6.402   0.543 -0.6331 -1.7027  0.6382
 2582SOL    HW2 8528   6.879   6.357   0.433  0.0412  2.0005 -0.4128
 2583SOL     OW 8529   0.529   5.253   3.625  0.0167  0.0485  0.3666
 2583SOL    HW1 8530   0.582   5.255   3.545  1.4509  0.8852  1.3000
 2583SOL    HW2 8531   0.593   5.242   3.696 -0.8227  3.0365  1.7134
 2584SOL     OW 8532   1.754   6.275   6.292  0.2778 -0.2053  0.4233
 2584SOL    HW1 8533   1.814   6.348   6.273 -0.5923  0.8001  1.3730
 2584SOL    HW2 8534   1.690   6.313   6.352 -0.8777 -1.4580  0.0128
 2585SOL     OW 8535   0.199   1.625   8.100  0.2106  0.0889 -0.8000
 2585SOL    HW1 8536   0.241   1.643   8.016  1.6810 -2.2323 -0.6486
 2585SOL    HW2 8537   0.105   1.623   8.080  0.4876  0.3306 -2.2232
 2586SOL     OW 8538   4.480   6.898   0.287  0.2861  0.1559  0.0164
 2586SOL    HW1 8539   4.430   6.853   0.219 -2.9103 -1.1026  2.8357
 2586SOL    HW2 8540   4.437   6.983   0.297 -0.1774 -0.1984  1.2591
 2587SOL     OW 8541   2.757   3.649   7.172  0.0936  0.0971  0.0601
 2587SOL    HW1 8542   2.694   3.581   7.194 -0.8709  1.2600  0.9859
 2587SOL    HW2 8543   2.733   3.724   7.226  0.5009  1.5281 -1.6378
 2588SOL     OW 8544   4.146   0.839   7.919 -0.2815 -0.4332  0.0492
 2588SOL    HW1 8545   4.163   0.831   7.825  0.2581  0.2480  0.0857
 2588SOL    HW2 8546   4.199   0.913   7.947 -1.3623  0.1377  0.6595
 2589SOL     OW 8547   3.794   6.304   4.341  0.2845  0.2881 -0.5300
 2589SOL    HW1 8548   3.752   6.381   4.303  0.3961 -0.0505 -1.3753
 2589SOL    HW2 8549   3.825   6.255   4.265  0.3329 -0.5204  0.0040
 2590SOL     OW 8550   4.315   6.490   7.497  0.1713  0.1932  0.2694
 2590SOL    HW1 8551   4.380   6.555   7.471  0.2740  0.1119  0.3227
 2590SOL    HW2 8552   4.239   6.541   7.525  0.6146  0.3127  1.2856
 2591SOL     OW 8553   6.817   6.024   0.357 -0.5881  0.2063  0.1912
 2591SOL    HW1 8554   6.882   5.991   0.419 -1.1221 -0.2096  0.5456
 2591SOL    HW2 8555   6.741   6.043   0.412 -0.4946  1.4565 -0.0984
 2592SOL     OW 8556   4.406   4.457   0.463 -0.0365  0.4601 -0.5505
 2592SOL    HW1 8557   4.485   4.407   0.442 -1.5800 -1.6289 -1.7278
 2592SOL    HW2 8558   4.368   4.480   0.378 -0.4764  1.8934 -0.0099
 2593SOL     OW 8559   5.102   4.605   5.451 -0.4402  0.4147 -0.5785
 2593SOL    HW1 8560   5.137   4.694   5.464 -0.4541  0.3771 -0.2942
 2593SOL    HW2 8561   5.050   4.588   5.529  3.2764 -1.6426  1.7490
 2594SOL     OW 8562   4.663   1.989   0.668  0.0329  0.0476 -0.1794
 2594SOL    HW1 8563   4.616   2.068   0.640  0.8755  0.5416 -0.2599
 2594SOL    HW2 8564   4.674   2.000   0.762 -2.3195 -1.3504  0.3318
 2595SOL     OW 8565   3.722   7.570   6.199 -0.6278  0.0360 -0.5645
 2595SOL    HW1 8566   3.714   7.600   6.290 -0.0767 -0.2983 -0.3998
 2595SOL    HW2 8567   3.814   7.547   6.190 -0.8708 -0.8285 -0.9270
 2596SOL     OW 8568   1.728   2.185   1.029 -0.6040  0.9056 -0.2089
 2596SOL    HW1 8569   1.744   2.277   1.051  0.2558  0.4333  1.3257
 2596SOL    HW2 8570   1.792   2.136   1.082 -0.6602 -0.5516 -1.4095
 2597SOL     OW 8571   7.800   6.845   1.203  0.3351  1.0413  0.6691
 2597SOL    HW1 8572   7.717   6.848   1.155 -1.1947 -1.3720  2.9104
 2597SOL    HW2 8573   7.848   6.922   1.172 -1.2760  0.7338 -3.2038
 2598SOL     OW 8574   1.199   1.261   3.854  0.7413 -0.5842 -0.5563
 2598SOL    HW1 8575   1.287   1.224   3.855  0.8086 -0.4108  1.0252
 2598SOL    HW2 8576   1.165   1.249   3.942 -0.9951 -1.0157 -1.2254
 2599SOL     OW 8577   7.234   6.075   4.865  0.5490 -0.1696 -0.5312
 2599SOL    HW1 8578   7.316   6.109   4.832  0.8213 -0.4448 -0.1554
 2599SOL    HW2 8579   7.236   6.095   4.959 -0.7827  1.7607 -0.8502
 2600SOL     OW 8580   6.813   1.875   2.765  0.0773 -0.4203 -0.7465
 2600SOL    HW1 8581   6.823   1.905   2.855 -0.6315 -0.0137 -0.7912
 2600SOL    HW2 8582   6.718   1.874   2.751  0.1808 -0.5009 -1.4838
 2601SOL     OW 8583   4.772   6.846   5.728 -0.2528  0.1084 -0.3787
 2601SOL    HW1 8584   4.776   6.939   5.752  1.2910 -0.3083  1.2158
 2601SOL    HW2 8585   4.822   6.841   5.646  0.3839  0.5907 -0.0357
 2602SOL     OW 8586   3.460   2.072   3.013 -0.3746 -0.5350 -0.0484
 2602SOL    HW1 8587   3.396   2.104   3.076 -0.1597 -1.5284  0.7111
 2602SOL    HW2 8588   3.542   2.069   3.062  0.3893  1.1462 -1.1323
 2603SOL     OW 8589   3.135   4.499   5.225 -0.3395 -0.0291  0.2299
 2603SOL    HW1 8590   3.121   4.416   5.269  0.1112  0.0042  0.4436
 2603SOL    HW2 8591   3.228   4.518   5.238 -0.2956  0.1947 -0.3657
 2604SOL     OW 8592   2.722   0.806   6.720  0.0792 -0.0859  0.2688
 2604SOL    HW1 8593   2.760   0.755   6.648 -0.4921 -0.4041  0.1818
 2604SOL    HW2 8594   2.783   0.796   6.792  0.0523 -0.7797  0.2037
 2605SOL     OW 8595   1.917   1.633   3.104  0.4382 -0.7031  0.0742
 2605SOL    HW1 8596   1.898   1.669   3.191 -1.3818  1.1618 -1.0086
 2605SOL    HW2 8597   1.883   1.543   3.108  1.0061 -0.8860  1.4666
 2606SOL     OW 8598   8.148   7.438   5.732 -0.1974  0.7033  0.1520
 2606SOL    HW1 8599   8.177   7.347   5.728  1.7311  1.3123 -0.7800
 2606SOL    HW2 8600   8.058   7.433   5.764  0.7955 -1.3351  2.9668
 2607SOL     OW 8601   4.648   8.272   1.821  0.4512 -0.0791 -0.5417
 2607SOL    HW1 8602   4.609   8.287   1.908  0.2159 -1.3988 -0.4098
 2607SOL    HW2 8603   4.599   8.331   1.763  0.9366  1.1882  0.2806
 2608SOL     OW 8604   7.750   6.918   3.926  0.6121  1.0623 -0.5184
 2608SOL    HW1 8605   7.790   6.863   3.994  0.4742  1.7386  0.1158
 2608SOL    HW2 8606   7.670   6.950   3.965 -0.6848 -0.3956 -1.8306
 2609SOL     OW 8607   5.308   6.248   1.544 -0.4670  0.0733  0.1634
 2609SOL    HW1 8608   5.403   6.247   1.552 -0.3608  0.0818 -0.9338
 2609SOL    HW2 8609   5.280   6.318   1.603  0.3220  0.9666 -0.4786
 2610SOL     OW 8610   8.181   5.139   6.018 -0.1164  0.4505 -0.4433
 2610SOL    HW1 8611   8.193   5.045   6.033 -0.1683  0.2659 -1.5037
 2610SOL    HW2 8612   8.105   5.145   5.961 -1.4191  1.2791  1.3020
 2611SOL     OW 8613   7.675   1.264   6.810 -0.4410 -0.1319  0.0579
 2611SOL    HW1 8614   7.655   1.357   6.811  0.0486 -0.0132  1.3999
 2611SOL    HW2 8615   7.594   1.221   6.839 -0.1295  0.0324  1.2369
 2612SOL     OW 8616   1.497   2.868   2.976  0.2044  0.4097  0.4172
 2612SOL    HW1 8617   1.402   2.862   2.963  0.4886 -0.9869 -1.4477
 2612SOL    HW2 8618   1.534   2.831   2.896  2.3283  0.2091  1.4363
 2613SOL     OW 8619   3.361   2.803   0.660 -0.4351  0.5973  0.0496
 2613SOL    HW1 8620   3.296   2.732   0.656  0.8995 -0.6641 -0.1002
 2613SOL    HW2 8621   3.343   2.847   0.743 -1.1464 -0.0560  0.2535
 2614SOL     OW 8622   2.239   2.415   7.130  0.2770 -0.0920 -0.5567
 2614SOL    HW1 8623   2.240   2.464   7.048 -1.8285  1.4159  0.2250
 2614SOL    HW2 8624   2.175   2.345   7.116 -0.8890  0.8158  0.0996
 2615SOL     OW 8625   6.850   4.830   8.164 -0.4258 -0.3413 -0.2220
 2615SOL    HW1 8626   6.927   4.846   8.110  0.2799 -1.6355  0.3409
 2615SOL    HW2 8627   6.779   4.817   8.102  0.0643 -0.3409 -0.7930
 2616SOL     OW 8628   0.241   0.548   2.078  0.6107  0.3080  0.0218
 2616SOL    HW1 8629   0.277   0.472   2.033  1.8576  1.4796 -1.0698
 2616SOL    HW2 8630   0.210   0.514   2.162  0.2839 -1.5370 -0.8062
 2617SOL     OW 8631   7.898   4.569   5.865 -0.2023 -0.0097  0.5634
 2617SOL    HW1 8632   7.819   4.535   5.823 -0.7089 -1.1074  2.2969
 2617SOL    HW2 8633   7.970   4.525   5.820 -0.7157 -0.8820  0.5607
 2618SOL     OW 8634   3.177   8.275   5.617  0.3316  0.4628 -0.3427
 2618SOL    HW1 8635   3.107   8.327   5.656  1.2155  2.1838 -0.9741
 2618SOL    HW2 8636   3.247   8.276   5.683  0.5245  0.4539 -0.5462
 2619SOL     OW 8637   4.882   4.864   3.586 -0.2461 -0.1475 -0.3692
 2619SOL    HW1 8638   4.847   4.858   3.675  0.6165  0.2229  0.0076
 2619SOL    HW2 8639   4.884   4.774   3.555  0.5676 -0.4265  0.4432
 2620SOL     OW 8640   6.806   1.930   4.254  0.1106  0.4240  0.1288
 2620SOL    HW1 8641   6.753   2.008   4.273 -1.7274 -0.2046 -2.0382
 2620SOL    HW2 8642   6.784   1.869   4.324 -0.4511  0.9200  0.3982
 2621SOL     OW 8643   7.544   5.384   1.512  0.5657  0.3566 -0.0619
 2621SOL    HW1 8644   7.534   5.290   1.527 -0.8618  0.7237  1.5447
 2621SOL    HW2 8645   7.563   5.390   1.418  1.1422 -1.5521 -0.1239
 2622SOL     OW 8646   0.765   7.847   0.632  0.2562 -0.0479  0.4732
 2622SOL    HW1 8647   0.788   7.893   0.712  0.7515 -3.2481  2.3330
 2622SOL    HW2 8648   0.803   7.760   0.642 -0.4729 -0.9031 -2.8480
 2623SOL     OW 8649   8.086   4.147   4.974 -0.1979 -0.5614  0.1270
 2623SOL    HW1 8650   8.089   4.054   5.000  0.4066 -1.0375 -1.5166
 2623SOL    HW2 8651   8.152   4.154   4.904 -0.1194  1.1557  0.3369
 2624SOL     OW 8652   4.215   1.098   3.115 -0.1222  0.7334  0.2606
 2624SOL    HW1 8653   4.142   1.157   3.098 -0.6950 -0.2061 -0.6569
 2624SOL    HW2 8654   4.290   1.137   3.070 -0.8161  0.0816 -1.5386
 2625SOL     OW 8655   5.125   6.059   3.707 -0.0380  0.1828 -0.3348
 2625SOL    HW1 8656   5.072   6.138   3.699 -0.0152  0.3157  0.7128
 2625SOL    HW2 8657   5.084   6.009   3.778  1.1159  0.2034  0.3800
 2626SOL     OW 8658   0.265   6.518   3.475 -0.1308 -0.3714  0.5811
 2626SOL    HW1 8659   0.234   6.601   3.511  0.4870  0.0555  0.1446
 2626SOL    HW2 8660   0.318   6.480   3.546  1.3676  0.6277  0.0422
 2627SOL     OW 8661   0.998   7.322   6.824 -0.1722 -0.1583 -0.2218
 2627SOL    HW1 8662   0.985   7.417   6.829 -0.8225 -0.2355 -0.4377
 2627SOL    HW2 8663   0.970   7.299   6.736  0.3271 -0.5051 -0.2928
 2628SOL     OW 8664   0.256   1.810   3.686 -0.0306 -0.8290 -0.2974
 2628SOL    HW1 8665   0.201   1.736   3.711  0.0331 -0.6609  0.3415
 2628SOL    HW2 8666   0.197   1.885   3.684  0.4653 -0.2808  2.1902
 2629SOL     OW 8667   8.002   5.102   0.769 -0.0671 -0.4859  0.3645
 2629SOL    HW1 8668   8.095   5.087   0.752 -0.4966 -0.9037 -2.0286
 2629SOL    HW2 8669   8.000   5.181   0.823  1.6961 -1.1895  1.5485
 2630SOL     OW 8670   3.368   1.390   0.460 -0.2944 -0.1395  0.3116
 2630SOL    HW1 8671   3.459   1.372   0.433 -0.2900  0.9518 -0.4232
 2630SOL    HW2 8672   3.353   1.328   0.532  1.3599  0.3093  1.1050
 2631SOL     OW 8673   7.045   8.082   1.372 -0.3835  0.4313 -0.1821
 2631SOL    HW1 8674   7.038   8.025   1.296 -1.1726  0.5909 -0.2384
 2631SOL    HW2 8675   6.969   8.059   1.427  0.7282 -0.4055  1.0648
 2632SOL     OW 8676   0.617   7.371   3.461 -0.1305 -0.0443  0.8749
 2632SOL    HW1 8677   0.623   7.279   3.487 -0.6751  0.2600  2.1637
 2632SOL    HW2 8678   0.617   7.420   3.544 -0.8225  1.0546  0.2560
 2633SOL     OW 8679   2.370   4.785   3.386 -0.3480  0.1125 -0.3474
 2633SOL    HW1 8680   2.378   4.876   3.359  1.8993  0.4232  1.1257
 2633SOL    HW2 8681   2.439   4.739   3.337 -0.7636 -0.5968 -0.2860
 2634SOL     OW 8682   0.825   6.337   4.111 -1.0187  0.0741  0.6441
 2634SOL    HW1 8683   0.878   6.394   4.167 -1.1529 -0.1467  0.9999
 2634SOL    HW2 8684   0.881   6.263   4.091 -0.8410  0.3273  0.1729
 2635SOL     OW 8685   7.848   6.950   8.134 -0.7538  0.6458  0.4491
 2635SOL    HW1 8686   7.761   6.952   8.093  0.1843  2.6763 -1.6806
 2635SOL    HW2 8687   7.876   6.859   8.126 -1.9018  0.3491 -0.6118
 2636SOL     OW 8688   1.443   0.427   4.867  0.4846  0.4947 -0.6035
 2636SOL    HW1 8689   1.509   0.376   4.821  1.6090  1.2623  0.1005
 2636SOL    HW2 8690   1.478   0.438   4.956 -0.1311  1.7316 -0.4845
 2637SOL     OW 8691   5.108   3.589   2.712  0.0564  0.6396 -0.0596
 2637SOL    HW1 8692   5.202   3.601   2.726  0.2350  0.4485 -1.0409
 2637SOL    HW2 8693   5.067   3.640   2.782  0.8815  1.4811 -0.1688
 2638SOL     OW 8694   4.046   2.888   0.734  0.4918  0.1357  0.3891
 2638SOL    HW1 8695   4.048   2.936   0.816  1.8937  0.4734  0.1940
 2638SOL    HW2 8696   4.102   2.812   0.749  0.9540  0.3252 -0.3065
 2639SOL     OW 8697   0.121   1.369   4.709 -0.2403  0.3417 -0.1764
 2639SOL    HW1 8698   0.151   1.400   4.623 -1.1625  1.3770 -0.1418
 2639SOL    HW2 8699   0.135   1.274   4.706  0.0202  0.4011 -1.3612
 2640SOL     OW 8700   0.637   2.138   4.194 -0.5109 -0.6824  0.1244
 2640SOL    HW1 8701   0.627   2.095   4.109  0.5913 -0.2626 -0.2412
 2640SOL    HW2 8702   0.548   2.160   4.221 -0.8934 -1.0514 -0.8018
 2641SOL     OW 8703   8.156   3.594   1.497 -0.1448 -0.1611  0.2493
 2641SOL    HW1 8704   8.062   3.574   1.493  0.1991 -1.7030 -0.9879
 2641SOL    HW2 8705   8.198   3.512   1.520  0.9622  0.3208  0.0399
 2642SOL     OW 8706   1.401   1.265   4.856 -0.5347 -0.5234 -0.1050
 2642SOL    HW1 8707   1.375   1.181   4.894 -0.8792  0.3928  1.8444
 2642SOL    HW2 8708   1.459   1.304   4.922 -1.1664  1.1725 -0.4932
 2643SOL     OW 8709   5.232   6.230   6.903  0.0422 -0.3064 -0.5382
 2643SOL    HW1 8710   5.172   6.156   6.901 -0.6701  0.2813 -1.2043
 2643SOL    HW2 8711   5.219   6.275   6.820  1.5675 -0.2928 -0.8033
 2644SOL     OW 8712   2.797   0.215   7.304  0.1200  0.1436  0.6078
 2644SOL    HW1 8713   2.704   0.224   7.324  0.4512  0.4708  2.1338
 2644SOL    HW2 8714   2.814   0.279   7.235 -1.0731 -0.9729 -0.7856
 2645SOL     OW 8715   3.823   8.110   2.688  0.0863 -0.5194  0.1154
 2645SOL    HW1 8716   3.804   8.067   2.772 -0.5815  0.9879  0.7860
 2645SOL    HW2 8717   3.897   8.168   2.708 -0.8844  0.7893  0.0196
 2646SOL     OW 8718   6.142   4.210   8.281  0.0610  0.6096 -0.2401
 2646SOL    HW1 8719   6.169   4.264   8.207  0.2537 -0.0014 -0.6266
 2646SOL    HW2 8720   6.180   4.124   8.263  0.8967  0.6841  1.0306
 2647SOL     OW 8721   6.093   1.939   2.299  0.0453  0.7220 -0.5276
 2647SOL    HW1 8722   6.185   1.948   2.324  0.1022  0.1967 -0.5377
 2647SOL    HW2 8723   6.052   1.895   2.374 -0.1474  0.7484 -0.6184
 2648SOL     OW 8724   0.639   6.184   5.113  0.0841  0.0356 -0.1134
 2648SOL    HW1 8725   0.609   6.237   5.187 -0.8775 -0.7871  0.1086
 2648SOL    HW2 8726   0.572   6.116   5.103 -1.7222  2.0819 -3.9425
 2649SOL     OW 8727   5.115   2.403   6.229  0.2166  0.4872 -0.2535
 2649SOL    HW1 8728   5.141   2.327   6.176  1.3180 -1.4305  2.8157
 2649SOL    HW2 8729   5.024   2.385   6.252  0.6273 -0.2541  0.8981
 2650SOL     OW 8730   6.414   0.246   2.175 -0.6111  0.4120 -0.1168
 2650SOL    HW1 8731   6.351   0.292   2.120 -1.4973  1.2343  1.5196
 2650SOL    HW2 8732   6.388   0.267   2.265 -0.0959 -2.0492  0.6854
 2651SOL     OW 8733   7.869   2.428   4.085 -0.1674  0.4149 -0.3913
 2651SOL    HW1 8734   7.932   2.494   4.112  1.3949 -1.1510 -0.0164
 2651SOL    HW2 8735   7.866   2.436   3.990 -0.3153  1.2784 -0.3234
 2652SOL     OW 8736   0.719   0.830   8.186 -0.3573  0.0639 -0.1958
 2652SOL    HW1 8737   0.730   0.764   8.117  0.5259 -0.1205  0.1082
 2652SOL    HW2 8738   0.716   0.780   8.267  1.8600  0.4546  0.1822
 2653SOL     OW 8739   5.955   0.246   5.675  0.2449 -0.1570  0.0307
 2653SOL    HW1 8740   5.912   0.309   5.733  1.5217  0.1126  0.7306
 2653SOL    HW2 8741   5.983   0.175   5.733  0.2463 -0.5897 -0.4928
 2654SOL     OW 8742   7.271   4.136   4.875  0.7179  0.3500 -0.4846
 2654SOL    HW1 8743   7.320   4.125   4.956 -0.2492  0.9112  0.1940
 2654SOL    HW2 8744   7.267   4.049   4.836  0.3595 -0.1037  0.5569
 2655SOL     OW 8745   0.716   2.939   7.703  0.1613  0.5755  1.0186
 2655SOL    HW1 8746   0.703   2.962   7.795 -3.9148  1.3648  0.4506
 2655SOL    HW2 8747   0.738   3.021   7.660 -1.6179  0.9950  0.8362
 2656SOL     OW 8748   3.381   0.038   3.565 -0.3960 -0.0951 -0.0822
 2656SOL    HW1 8749   3.302   0.025   3.617 -1.0403  1.7837 -0.4992
 2656SOL    HW2 8750   3.358   0.006   3.477 -0.9676  1.0595 -0.3766
 2657SOL     OW 8751   3.618   1.265   3.244 -0.9879 -0.1788  0.2285
 2657SOL    HW1 8752   3.569   1.191   3.209 -1.6460 -0.7838  2.3184
 2657SOL    HW2 8753   3.637   1.320   3.167 -0.9318 -2.2182 -1.2875
 2658SOL     OW 8754   6.411   6.131   7.375 -0.3025 -0.5520 -0.0672
 2658SOL    HW1 8755   6.499   6.167   7.367 -0.5823  0.3962  0.8739
 2658SOL    HW2 8756   6.395   6.086   7.292  1.6481 -2.0900  0.3263
 2659SOL     OW 8757   1.640   5.228   6.798  0.0740 -0.2959 -0.3376
 2659SOL    HW1 8758   1.628   5.191   6.710 -1.6638 -1.1749  0.2271
 2659SOL    HW2 8759   1.641   5.152   6.856 -1.3227  0.3947  0.6361
 2660SOL     OW 8760   0.560   6.205   4.152 -0.3667  0.4960 -0.2564
 2660SOL    HW1 8761   0.473   6.230   4.123 -0.4079  1.0931  0.3572
 2660SOL    HW2 8762   0.619   6.257   4.098 -0.4079  0.4624 -0.3324
 2661SOL     OW 8763   0.057   2.551   8.115 -0.1977  0.5943 -0.1222
 2661SOL    HW1 8764  -0.005   2.485   8.146 -0.2868  0.9083  0.3721
 2661SOL    HW2 8765   0.095   2.513   8.035 -0.8806  0.3243 -0.3199
 2662SOL     OW 8766   3.666   1.103   4.174  0.7288 -0.0308 -0.4217
 2662SOL    HW1 8767   3.623   1.024   4.140  0.3625  0.9902 -2.4762
 2662SOL    HW2 8768   3.740   1.116   4.115  0.1792  1.7365 -0.7516
 2663SOL     OW 8769   0.790   1.751   6.053 -0.3017 -0.4353  0.1739
 2663SOL    HW1 8770   0.800   1.695   5.977  0.6965 -0.8580  0.6060
 2663SOL    HW2 8771   0.712   1.804   6.034  1.2253  1.1452 -2.1746
 2664SOL     OW 8772   3.801   0.827   0.572 -0.0244  0.2489 -0.4360
 2664SOL    HW1 8773   3.812   0.782   0.656  0.4089 -0.2836 -0.7785
 2664SOL    HW2 8774   3.816   0.920   0.593 -2.9639  0.5883  0.7070
 2665SOL     OW 8775   2.688   7.561   3.247  0.1264 -0.2715 -0.0815
 2665SOL    HW1 8776   2.640   7.632   3.205 -0.6336 -1.5790 -1.4707
 2665SOL    HW2 8777   2.674   7.485   3.191  0.3200 -1.7264  1.7488
 2666SOL     OW 8778   1.786   8.308   1.884  0.4408  0.0526  0.1398
 2666SOL    HW1 8779   1.821   8.225   1.915 -0.2737  0.3154  1.7252
 2666SOL    HW2 8780   1.723   8.283   1.816 -1.8894 -0.9600  2.5373
 2667SOL     OW 8781   2.560   6.929   1.552 -0.5316  0.4867  0.1791
 2667SOL    HW1 8782   2.483   6.916   1.607 -0.8244 -0.1891 -0.3773
 2667SOL    HW2 8783   2.571   6.846   1.505 -0.2077  0.9879 -0.6668
 2668SOL     OW 8784   1.198   3.946   7.587 -0.2401  0.4292  0.1573
 2668SOL    HW1 8785   1.189   3.851   7.573  1.4884  0.3644 -0.8165
 2668SOL    HW2 8786   1.118   3.971   7.634  0.2393 -1.8935  2.4368
 2669SOL     OW 8787   8.118   5.803   2.956 -0.6568  0.0529 -0.2084
 2669SOL    HW1 8788   8.152   5.889   2.931  2.3947 -1.0680 -0.3485
 2669SOL    HW2 8789   8.092   5.813   3.048 -1.4223  1.3666 -0.5476
 2670SOL     OW 8790   5.118   1.048   6.399 -0.0678  0.5347  0.3333
 2670SOL    HW1 8791   5.111   1.033   6.305 -2.9580 -1.3793  0.7442
 2670SOL    HW2 8792   5.213   1.054   6.414  0.5384 -0.0676 -2.5297
 2671SOL     OW 8793   7.184   5.112   0.141 -0.1288 -0.0028  0.4132
 2671SOL    HW1 8794   7.098   5.088   0.177  0.4650 -0.2558  1.7249
 2671SOL    HW2 8795   7.172   5.108   0.046 -1.8693  1.0387  0.5319
 2672SOL     OW 8796   8.058   5.072   0.399  0.1795 -0.4890  0.6614
 2672SOL    HW1 8797   8.131   5.014   0.419 -0.5772 -0.9675  2.1875
 2672SOL    HW2 8798   8.002   5.020   0.341  1.1573 -0.0020 -0.7882
 2673SOL     OW 8799   8.160   3.533   2.712  0.2347  0.1853 -0.2391
 2673SOL    HW1 8800   8.117   3.467   2.657  1.5962 -0.2850 -0.7848
 2673SOL    HW2 8801   8.091   3.564   2.771 -1.0462  0.0581 -1.6116
 2674SOL     OW 8802   0.256   3.388   2.924  0.0278  0.6724  0.5821
 2674SOL    HW1 8803   0.234   3.479   2.946  1.1641  0.9362  0.7247
 2674SOL    HW2 8804   0.316   3.360   2.993 -1.1869 -0.5889  1.1662
 2675SOL     OW 8805   2.442   0.586   0.742  0.2151 -0.1379 -0.0686
 2675SOL    HW1 8806   2.489   0.662   0.708  2.1311 -1.3368 -0.2344
 2675SOL    HW2 8807   2.358   0.587   0.697  0.4839  1.4760 -0.5834
 2676SOL     OW 8808   5.978   3.690   7.295  0.4934  0.2773  0.3364
 2676SOL    HW1 8809   6.054   3.680   7.238 -0.2931  0.1264 -0.7134
 2676SOL    HW2 8810   6.014   3.725   7.377  1.7415 -0.1982  0.0140
 2677SOL     OW 8811   5.113   6.829   4.231 -0.7207  0.5313 -0.4701
 2677SOL    HW1 8812   5.127   6.796   4.142 -0.1376  0.8392 -0.4961
 2677SOL    HW2 8813   5.143   6.919   4.228  0.1851  0.2609  0.2774
 2678SOL     OW 8814   6.601   7.626   1.221  0.4082 -0.4001 -0.6924
 2678SOL    HW1 8815   6.519   7.676   1.221 -0.1216 -1.0809  1.9192
 2678SOL    HW2 8816   6.592   7.566   1.147 -0.4465  1.0191 -1.7952
 2679SOL     OW 8817   4.077   4.710   6.404 -0.0154  0.3188  0.4862
 2679SOL    HW1 8818   4.062   4.771   6.476  0.0769 -1.2640  1.9107
 2679SOL    HW2 8819   3.995   4.710   6.355  0.5066  2.7568 -0.5601
 2680SOL     OW 8820   2.866   2.242   3.248 -0.1166 -0.5199 -0.2541
 2680SOL    HW1 8821   2.815   2.230   3.167 -0.8966 -1.4018  0.3475
 2680SOL    HW2 8822   2.838   2.170   3.305  2.0235 -1.2342  0.0019
 2681SOL     OW 8823   2.232   1.247   1.301  0.2751 -0.0208  0.3492
 2681SOL    HW1 8824   2.289   1.292   1.362  1.9407 -0.1080 -1.0753
 2681SOL    HW2 8825   2.263   1.156   1.301  2.2222  0.5175 -2.6226
 2682SOL     OW 8826   2.910   4.254   1.705  0.0632 -0.1811 -0.5271
 2682SOL    HW1 8827   2.909   4.237   1.799  1.6060 -2.7928 -0.8819
 2682SOL    HW2 8828   2.868   4.177   1.666  0.8980  0.0809 -2.0394
 2683SOL     OW 8829   2.231   4.771   5.642 -1.0526  0.0340 -0.0676
 2683SOL    HW1 8830   2.255   4.776   5.735 -2.4961 -0.2030  0.3340
 2683SOL    HW2 8831   2.273   4.848   5.603 -1.9529  1.1863  1.1438
 2684SOL     OW 8832   4.531   3.374   7.260  0.0450  0.1444 -0.1127
 2684SOL    HW1 8833   4.523   3.463   7.227  0.6481 -0.2532 -1.3721
 2684SOL    HW2 8834   4.600   3.334   7.207 -1.6415 -1.7143 -1.0564
 2685SOL     OW 8835   2.965   5.448   3.115 -0.2425 -0.1928 -0.5272
 2685SOL    HW1 8836   2.881   5.481   3.147 -0.4543 -1.2703  0.0845
 2685SOL    HW2 8837   2.956   5.448   3.019  0.2926  2.7880 -0.6674
 2686SOL     OW 8838   1.371   3.107   2.555  0.7214  0.5183 -0.0619
 2686SOL    HW1 8839   1.322   3.124   2.636  1.1970 -0.6734  0.5021
 2686SOL    HW2 8840   1.377   3.192   2.512  0.4575  1.1738  1.1594
 2687SOL     OW 8841   6.053   3.836   2.033 -0.3149  0.3427 -0.2389
 2687SOL    HW1 8842   6.033   3.898   2.103 -0.3255  0.5195 -0.3992
 2687SOL    HW2 8843   6.096   3.888   1.966 -1.5122  0.4462 -0.9548
 2688SOL     OW 8844   4.173   0.058   3.015 -0.4459  0.2762  0.1642
 2688SOL    HW1 8845   4.252   0.106   3.040  0.6355 -1.3111 -0.0215
 2688SOL    HW2 8846   4.175   0.057   2.919 -0.6098  0.1263  0.1613
 2689SOL     OW 8847   6.119   4.646   7.799  0.4440  0.2879  0.4192
 2689SOL    HW1 8848   6.054   4.693   7.746 -1.0458 -1.1899  0.8750
 2689SOL    HW2 8849   6.155   4.580   7.739 -0.9116 -1.0790  1.0351
 2690SOL     OW 8850   1.381   5.664   6.888 -0.4464 -0.3871  0.4424
 2690SOL    HW1 8851   1.455   5.608   6.862  0.6192  0.8365  0.7351
 2690SOL    HW2 8852   1.422   5.741   6.927 -1.9040 -0.9446  3.3465
 2691SOL     OW 8853   2.305   1.061   7.983 -0.6383 -0.2569  0.0079
 2691SOL    HW1 8854   2.347   1.138   8.023  0.1599 -0.3229 -0.6810
 2691SOL    HW2 8855   2.218   1.091   7.958 -1.3778 -0.3460  2.2391
 2692SOL     OW 8856   4.070   2.018   3.860  0.1426 -0.0009  0.0848
 2692SOL    HW1 8857   4.137   1.950   3.855 -1.3780 -1.5543 -0.5156
 2692SOL    HW2 8858   4.013   1.989   3.931 -0.8633  0.3065 -0.5786
 2693SOL     OW 8859   2.992   6.130   4.890 -0.7500 -0.1218 -0.0992
 2693SOL    HW1 8860   2.920   6.090   4.842 -0.6848 -2.0748  1.2779
 2693SOL    HW2 8861   2.967   6.120   4.982  1.5011 -1.4397  0.4468
 2694SOL     OW 8862   4.027   1.825   7.675 -0.4969 -0.2364  0.5647
 2694SOL    HW1 8863   4.080   1.888   7.626 -1.9215  0.5960  0.0532
 2694SOL    HW2 8864   4.091   1.766   7.714  0.8624  1.2089  0.6345
 2695SOL     OW 8865   1.665   3.028   4.641  0.5075 -0.1281 -0.0977
 2695SOL    HW1 8866   1.687   3.115   4.673 -0.8461  0.5820 -1.0547
 2695SOL    HW2 8867   1.585   3.004   4.688  0.2467 -0.3851 -0.6643
 2696SOL     OW 8868   1.549   5.065   3.268  0.0960 -0.5037 -0.4170
 2696SOL    HW1 8869   1.615   5.054   3.199 -0.3999  0.2614 -1.0423
 2696SOL    HW2 8870   1.540   5.160   3.276 -0.4409 -0.5994  0.1347
 2697SOL     OW 8871   8.177   7.451   7.746 -0.3259 -0.3900  0.4125
 2697SOL    HW1 8872   8.193   7.441   7.653 -0.1107 -2.0189  0.6036
 2697SOL    HW2 8873   8.239   7.392   7.788 -1.1038 -0.4369  1.5438
 2698SOL     OW 8874   2.467   2.440   3.379  0.7323  0.5114 -0.6364
 2698SOL    HW1 8875   2.446   2.347   3.374 -0.7428  0.7603  0.2226
 2698SOL    HW2 8876   2.386   2.481   3.409  1.7081  1.9190  0.2042
 2699SOL     OW 8877   7.674   8.301   1.183 -0.4334  0.0914  0.0043
 2699SOL    HW1 8878   7.761   8.269   1.162 -0.2203  0.8180 -0.2289
 2699SOL    HW2 8879   7.614   8.237   1.142 -0.0210 -0.4065  0.1688
 2700SOL     OW 8880   7.339   1.142   1.862  0.4386 -0.0923  0.1426
 2700SOL    HW1 8881   7.252   1.180   1.852  0.5249  0.0425 -0.1054
 2700SOL    HW2 8882   7.372   1.179   1.944  1.2271  1.7877 -0.9396
 2701SOL     OW 8883   0.995   4.585   1.026  0.1802 -0.2986  0.6302
 2701SOL    HW1 8884   1.026   4.666   0.986 -1.0830  0.2726  0.7601
 2701SOL    HW2 8885   1.047   4.577   1.106 -1.2217  1.6478  1.8212
 2702SOL     OW 8886   5.673   4.095   6.353  0.5047  0.3057  0.0608
 2702SOL    HW1 8887   5.591   4.144   6.367  0.4106 -0.2331  1.5575
 2702SOL    HW2 8888   5.661   4.054   6.268 -1.6423 -1.2955  1.0329
 2703SOL     OW 8889   7.360   1.640   8.229 -0.1168  0.2500  0.4863
 2703SOL    HW1 8890   7.421   1.595   8.287 -0.2720 -0.1905  0.3179
 2703SOL    HW2 8891   7.413   1.703   8.181  0.3021 -0.4531  0.0027
 2704SOL     OW 8892   4.757   0.967   6.990  0.8037  0.1162 -0.4559
 2704SOL    HW1 8893   4.684   0.919   7.030  2.2329 -1.1928  0.7093
 2704SOL    HW2 8894   4.739   0.966   6.896  0.3379 -1.9908 -0.3815
 2705SOL     OW 8895   1.819   3.002   2.084  0.2192 -0.6492  0.5334
 2705SOL    HW1 8896   1.731   3.021   2.053 -0.1226  0.1134  1.9156
 2705SOL    HW2 8897   1.873   3.001   2.004 -0.8450 -0.0538 -0.2088
 2706SOL     OW 8898   4.181   4.544   7.003 -0.3995 -0.2070 -0.0642
 2706SOL    HW1 8899   4.135   4.471   6.962 -1.5446 -0.3166  1.3139
 2706SOL    HW2 8900   4.111   4.597   7.042  0.4287  1.4851 -0.7899
 2707SOL     OW 8901   7.162   2.439   1.768 -0.3636 -0.6263 -0.2036
 2707SOL    HW1 8902   7.080   2.454   1.814 -0.0718 -1.8779  0.8002
 2707SOL    HW2 8903   7.199   2.526   1.755 -2.0407 -0.0162 -1.0672
 2708SOL     OW 8904   3.433   0.964   7.968  0.3063 -0.0212  0.4110
 2708SOL    HW1 8905   3.343   0.983   7.941  0.1504 -0.3695  0.6769
 2708SOL    HW2 8906   3.432   0.976   8.063  0.0875 -1.7579  0.6566
 2709SOL     OW 8907   1.271   0.420   7.607  0.1071 -0.4425  0.7237
 2709SOL    HW1 8908   1.187   0.407   7.651 -0.0254 -1.4860  0.1800
 2709SOL    HW2 8909   1.323   0.344   7.634  1.0812  0.4642  1.4929
 2710SOL     OW 8910   5.971   0.515   5.359 -0.2822  0.8717 -0.8566
 2710SOL    HW1 8911   6.044   0.576   5.348  0.1547  0.7698  1.1106
 2710SOL    HW2 8912   5.907   0.563   5.411 -0.9227  0.4114 -1.2127
 2711SOL     OW 8913   3.842   5.074   6.472 -0.6246  0.3870 -0.0212
 2711SOL    HW1 8914   3.883   5.126   6.403  0.6992 -0.7905 -0.1639
 2711SOL    HW2 8915   3.763   5.123   6.494 -2.1939 -0.1292 -3.7145
 2712SOL     OW 8916   1.605   4.419   0.540 -0.4977  0.2216  0.1505
 2712SOL    HW1 8917   1.567   4.366   0.470  0.9032 -0.5478 -0.0522
 2712SOL    HW2 8918   1.624   4.503   0.499  0.8774 -0.4217 -0.6051
 2713SOL     OW 8919   3.235   6.648   5.364 -0.4766 -0.4598  0.2247
 2713SOL    HW1 8920   3.210   6.593   5.438 -1.9873 -0.5287 -0.3038
 2713SOL    HW2 8921   3.314   6.606   5.329 -0.9506 -1.6448  0.5187
 2714SOL     OW 8922   0.276   5.524   0.999 -0.0986 -0.1019  0.0683
 2714SOL    HW1 8923   0.370   5.524   1.015  0.3325 -1.1613 -2.0038
 2714SOL    HW2 8924   0.268   5.551   0.907 -1.8758  0.5969  0.3923
 2715SOL     OW 8925   2.022   3.027   5.409 -0.7227  0.2345 -0.5293
 2715SOL    HW1 8926   2.051   2.982   5.489 -0.9875 -0.3040 -0.7270
 2715SOL    HW2 8927   1.963   2.964   5.367 -1.3217  0.8837 -0.6761
 2716SOL     OW 8928   3.333   1.586   3.899 -0.1789  0.4301 -0.3545
 2716SOL    HW1 8929   3.382   1.504   3.893  2.3560  1.7992  0.6099
 2716SOL    HW2 8930   3.270   1.581   3.827  0.9378 -1.7001 -1.2666
 2717SOL     OW 8931   4.992   0.167   5.461  0.2591 -0.2145 -0.2551
 2717SOL    HW1 8932   5.084   0.152   5.481  0.1463  0.9897  1.4122
 2717SOL    HW2 8933   4.958   0.081   5.436  1.8433 -0.6506 -1.0089
 2718SOL     OW 8934   3.139   7.114   6.934 -0.5643 -0.2924  0.0417
 2718SOL    HW1 8935   3.156   7.201   6.897  0.7731  0.1451  1.5821
 2718SOL    HW2 8936   3.205   7.058   6.893 -0.3976 -0.2336  0.2258
 2719SOL     OW 8937   2.065   7.718   0.727 -0.4871 -0.5074  0.4417
 2719SOL    HW1 8938   2.110   7.777   0.666 -1.2515  1.5939  1.7987
 2719SOL    HW2 8939   2.004   7.669   0.672  1.8237 -1.8639 -1.0997
 2720SOL     OW 8940   0.536   3.416   1.936 -0.3621  0.0784  0.0207
 2720SOL    HW1 8941   0.489   3.452   2.011 -1.2168  1.6499 -1.1994
 2720SOL    HW2 8942   0.611   3.369   1.974 -1.5531 -0.4109  1.8941
 2721SOL     OW 8943   6.200   1.040   6.590 -0.3218 -0.0960 -0.1156
 2721SOL    HW1 8944   6.232   1.123   6.554 -0.3479  0.9477  2.0663
 2721SOL    HW2 8945   6.127   1.066   6.647  0.8384 -1.3719  2.0469
 2722SOL     OW 8946   7.642   0.076   1.459 -0.1621 -0.4245  0.3493
 2722SOL    HW1 8947   7.707   0.135   1.497 -1.1657 -0.0302  1.5170
 2722SOL    HW2 8948   7.669   0.066   1.368  1.6445 -0.4435  0.8623
 2723SOL     OW 8949   0.341   1.586   0.105  0.3153 -0.1182  0.0981
 2723SOL    HW1 8950   0.408   1.547   0.162 -1.0640 -0.5282  1.5011
 2723SOL    HW2 8951   0.310   1.513   0.051 -1.6194 -0.8858  2.0915
 2724SOL     OW 8952   7.120   7.887   0.660 -0.1296  0.0347  0.2961
 2724SOL    HW1 8953   7.072   7.970   0.658 -0.0466  0.0819 -1.3302
 2724SOL    HW2 8954   7.079   7.834   0.591  0.3781 -0.9624  0.7386
 2725SOL     OW 8955   1.736   2.698   0.985  0.2352  0.2272 -0.2473
 2725SOL    HW1 8956   1.830   2.687   1.000 -0.1451 -2.1771  0.8487
 2725SOL    HW2 8957   1.708   2.758   1.054  0.9292  0.7999 -0.4558
 2726SOL     OW 8958   6.467   4.163   6.156  0.0436 -0.4530  0.3177
 2726SOL    HW1 8959   6.473   4.069   6.141  0.4150 -0.1993 -1.2342
 2726SOL    HW2 8960   6.468   4.202   6.069  0.4581  1.0307  0.9563
 2727SOL     OW 8961   2.253   2.331   7.539 -0.0674 -0.2491 -0.3038
 2727SOL    HW1 8962   2.331   2.279   7.555  0.9459  1.4115  0.5176
 2727SOL    HW2 8963   2.213   2.341   7.626 -0.3288  0.1704 -0.4696
 2728SOL     OW 8964   7.709   3.409   1.055  0.0507  0.2095  0.3395
 2728SOL    HW1 8965   7.719   3.398   0.960 -0.7679 -1.8150  0.4310
 2728SOL    HW2 8966   7.635   3.469   1.064 -0.7687 -0.6642 -0.3382
 2729SOL     OW 8967   7.294   5.209   5.463 -0.6992 -0.0603 -0.4027
 2729SOL    HW1 8968   7.287   5.163   5.379 -1.0419 -1.2362  0.2378
 2729SOL    HW2 8969   7.210   5.253   5.474 -1.2006 -1.0701 -0.0470
 2730SOL     OW 8970   5.634   6.433   0.300 -0.4547  0.0600  0.2123
 2730SOL    HW1 8971   5.572   6.370   0.336 -0.4959  0.2718  0.5210
 2730SOL    HW2 8972   5.692   6.454   0.372  1.9713 -2.4663 -0.8426
 2731SOL     OW 8973   0.224   2.999   0.063  0.3895  0.2888  0.1235
 2731SOL    HW1 8974   0.143   3.048   0.074  0.7962  0.5782  2.1425
 2731SOL    HW2 8975   0.196   2.912   0.037 -0.4331  0.9897 -1.4988
 2732SOL     OW 8976   7.569   2.313   0.358  0.0746 -0.0245  0.2251
 2732SOL    HW1 8977   7.479   2.303   0.389  0.6995 -1.5901  1.6385
 2732SOL    HW2 8978   7.610   2.228   0.372  2.6940  1.4610  2.7039
 2733SOL     OW 8979   1.320   3.283   0.039  0.2236  0.2870 -0.1390
 2733SOL    HW1 8980   1.259   3.249  -0.026 -0.4604 -0.2553  0.7712
 2733SOL    HW2 8981   1.384   3.213   0.052 -0.3438 -0.1010  0.6544
 2734SOL     OW 8982   3.499   6.179   4.041 -0.5808 -0.0668  0.1200
 2734SOL    HW1 8983   3.421   6.213   3.997 -1.1917 -0.7807  0.6145
 2734SOL    HW2 8984   3.548   6.134   3.972 -1.0942 -0.4365 -0.0098
 2735SOL     OW 8985   4.961   5.825   5.009 -0.3653 -0.2778 -0.4240
 2735SOL    HW1 8986   4.983   5.737   4.980  1.0451  0.0521 -0.4200
 2735SOL    HW2 8987   4.868   5.821   5.031  0.2572 -2.4991  2.2826
 2736SOL     OW 8988   7.831   1.578   1.854 -0.0666 -0.4477  0.0412
 2736SOL    HW1 8989   7.919   1.573   1.816 -1.0313 -0.5220 -2.3821
 2736SOL    HW2 8990   7.795   1.490   1.844 -0.3872 -0.4566  1.1398
 2737SOL     OW 8991   1.255   2.393   4.835  0.0210  0.0820 -0.8561
 2737SOL    HW1 8992   1.209   2.311   4.851  2.0023 -1.1202 -1.0061
 2737SOL    HW2 8993   1.341   2.380   4.876  0.5303  1.9188 -1.2724
 2738SOL     OW 8994   5.619   5.496   3.342  0.7167 -0.2634 -0.0608
 2738SOL    HW1 8995   5.635   5.588   3.362 -0.7171  0.1098 -0.5237
 2738SOL    HW2 8996   5.633   5.451   3.425 -0.0880  0.5976  0.5731
 2739SOL     OW 8997   0.370   2.618   1.632  0.1207 -0.2396 -0.1995
 2739SOL    HW1 8998   0.295   2.667   1.599 -1.0791 -1.9648 -0.1875
 2739SOL    HW2 8999   0.335   2.531   1.652  1.9326 -0.8216  0.7007
 2740SOL     OW 9000   6.253   3.987   0.989  0.4061  0.0351  0.5997
 2740SOL    HW1 9001   6.234   3.942   0.907  2.4038  2.8440 -1.6081
 2740SOL    HW2 9002   6.200   4.067   0.985  2.5733  1.5473  0.6572
 2741SOL     OW 9003   2.031   5.570   2.748 -0.3643 -0.1052  0.3642
 2741SOL    HW1 9004   2.019   5.478   2.772 -0.2486 -0.0421  0.6736
 2741SOL    HW2 9005   2.073   5.609   2.825  1.9535 -0.3241 -0.7158
 2742SOL     OW 9006   0.945   6.092   2.128 -0.0151  0.2621 -0.8840
 2742SOL    HW1 9007   0.935   6.029   2.056  0.1620 -1.1801  0.2884
 2742SOL    HW2 9008   0.929   6.040   2.207 -0.7116  1.9038  0.1104
 2743SOL     OW 9009   6.774   6.561   1.112  0.0877 -0.4229  0.5370
 2743SOL    HW1 9010   6.754   6.642   1.065 -0.8835 -1.6116 -1.2191
 2743SOL    HW2 9011   6.856   6.579   1.158  0.7159  1.0754 -1.0684
 2744SOL     OW 9012   4.037   3.219   0.442  0.3014 -0.0575  0.4959
 2744SOL    HW1 9013   3.971   3.180   0.499  1.8366  0.1306  2.5137
 2744SOL    HW2 9014   4.109   3.156   0.442  0.5630  0.2090 -0.8448
 2745SOL     OW 9015   2.158   0.594   0.202 -0.1013  0.2079 -0.3444
 2745SOL    HW1 9016   2.083   0.577   0.145 -0.1374  0.4357 -0.3658
 2745SOL    HW2 9017   2.122   0.589   0.291 -0.3349  1.1972 -0.3709
 2746SOL     OW 9018   0.684   2.430   4.506 -0.3632  0.0264  0.7042
 2746SOL    HW1 9019   0.684   2.356   4.567 -0.3536 -0.8496 -0.3214
 2746SOL    HW2 9020   0.596   2.430   4.469  0.2937 -0.9720 -1.0078
 2747SOL     OW 9021   0.958   4.959   2.871 -0.0652  0.0508  0.0151
 2747SOL    HW1 9022   1.027   5.025   2.859 -0.0503  0.5152  2.2215
 2747SOL    HW2 9023   0.883   5.008   2.903  0.7147 -1.0820  4.3275
 2748SOL     OW 9024   2.573   4.422   3.270  0.2697  0.0909 -0.0584
 2748SOL    HW1 9025   2.567   4.440   3.177  4.3300 -3.3254 -1.2908
 2748SOL    HW2 9026   2.530   4.337   3.281 -1.2965  1.0142  1.5704
 2749SOL     OW 9027   6.162   8.154   7.252 -0.2693  0.2151  0.0826
 2749SOL    HW1 9028   6.103   8.153   7.177  0.2246 -2.0178 -0.3464
 2749SOL    HW2 9029   6.180   8.062   7.270 -1.3974  0.5624  3.8339
 2750SOL     OW 9030   3.236   3.245   0.457 -0.4837 -0.0487  0.2349
 2750SOL    HW1 9031   3.293   3.195   0.515  1.8009  0.7644 -1.2057
 2750SOL    HW2 9032   3.175   3.180   0.422 -0.0736 -1.0712  1.3572
 2751SOL     OW 9033   2.717   0.375   8.066 -0.7344 -0.4179  0.4614
 2751SOL    HW1 9034   2.695   0.363   8.158 -0.0432 -1.0679  0.5533
 2751SOL    HW2 9035   2.811   0.356   8.061 -0.9798 -1.5664 -0.5619
 2752SOL     OW 9036   3.290   2.609   0.869  0.5530 -0.9843  0.3535
 2752SOL    HW1 9037   3.337   2.538   0.913  0.6193 -1.5880 -0.6683
 2752SOL    HW2 9038   3.328   2.689   0.906  1.3200 -1.4698  0.6423
 2753SOL     OW 9039   2.847   5.771   3.546  0.3815 -0.2233  0.2616
 2753SOL    HW1 9040   2.915   5.820   3.594  1.8358  0.0949 -1.9919
 2753SOL    HW2 9041   2.790   5.839   3.510  1.2114 -0.2482 -1.1567
 2754SOL     OW 9042   0.948   7.241   7.771  0.3613 -0.5645  0.6493
 2754SOL    HW1 9043   0.901   7.239   7.688 -0.1693 -0.2832  0.9351
 2754SOL    HW2 9044   1.041   7.243   7.747  0.2045 -0.1752  0.0656
 2755SOL     OW 9045   0.678   0.805   4.356  0.2702 -0.1968 -0.1469
 2755SOL    HW1 9046   0.773   0.811   4.349  0.3583 -1.3029 -0.1319
 2755SOL    HW2 9047   0.651   0.888   4.393  1.1689  0.3794 -0.7402
 2756SOL     OW 9048   6.311   5.560   3.606  0.0473 -0.5294  0.0546
 2756SOL    HW1 9049   6.407   5.570   3.607  0.0399 -0.3515 -0.4394
 2756SOL    HW2 9050   6.293   5.496   3.674  0.5108 -0.4789  0.2327
 2757SOL     OW 9051   1.276   6.941   5.652  0.9005  0.5161 -0.3426
 2757SOL    HW1 9052   1.326   6.926   5.571  1.0931  1.0534 -0.3233
 2757SOL    HW2 9053   1.277   7.036   5.664 -0.7816  0.6141 -0.7658
 2758SOL     OW 9054   3.029   6.084   5.801  0.1481 -0.0777  0.1390
 2758SOL    HW1 9055   3.050   6.177   5.793  0.6522 -0.3087 -1.3921
 2758SOL    HW2 9056   2.936   6.083   5.827  0.6701  0.8505  2.3480
 2759SOL     OW 9057   7.487   6.918   4.058 -0.7467 -0.1434 -0.3577
 2759SOL    HW1 9058   7.522   6.932   4.146  1.8127  1.2115 -1.4731
 2759SOL    HW2 9059   7.404   6.966   4.058  1.5934  4.5817 -0.0312
 2760SOL     OW 9060   2.942   7.218   5.574 -0.3692  0.0819 -0.3573
 2760SOL    HW1 9061   2.894   7.178   5.646  1.2618 -0.7321  0.3091
 2760SOL    HW2 9062   2.956   7.147   5.512 -0.6887  0.5061 -0.9345
 2761SOL     OW 9063   7.576   5.694   0.550 -0.6448 -0.5062  0.0196
 2761SOL    HW1 9064   7.572   5.730   0.461 -3.4377 -0.4685  0.0732
 2761SOL    HW2 9065   7.610   5.605   0.538 -0.0452 -0.1672 -0.9386
 2762SOL     OW 9066   5.116   5.061   7.260  0.4365  0.1763 -0.1475
 2762SOL    HW1 9067   5.042   5.005   7.284 -0.1267  0.1069 -1.8993
 2762SOL    HW2 9068   5.168   5.007   7.200  2.3098 -0.0140  1.5109
 2763SOL     OW 9069   3.047   2.712   0.480 -0.2086 -0.1867  0.1380
 2763SOL    HW1 9070   3.071   2.697   0.571 -1.6108  2.3550  1.0174
 2763SOL    HW2 9071   2.963   2.668   0.469  0.3631 -1.2351 -0.2430
 2764SOL     OW 9072   5.896   7.549   5.824 -0.2352 -0.0398  0.0647
 2764SOL    HW1 9073   5.846   7.470   5.844  2.8907 -2.2446 -0.0812
 2764SOL    HW2 9074   5.874   7.571   5.734 -0.5565 -1.2547 -0.1593
 2765SOL     OW 9075   3.787   6.501   3.180  0.3146 -1.0344 -0.7190
 2765SOL    HW1 9076   3.821   6.545   3.102 -1.4341  0.2536 -0.7954
 2765SOL    HW2 9077   3.754   6.417   3.148  0.2459 -0.8105 -1.2385
 2766SOL     OW 9078   0.622   7.815   1.762 -0.1895 -0.5929 -0.1422
 2766SOL    HW1 9079   0.592   7.902   1.734  1.0179 -0.3940 -0.8719
 2766SOL    HW2 9080   0.692   7.833   1.824 -0.0591 -1.0512 -0.1543
 2767SOL     OW 9081   4.169   2.437   6.117 -0.2308 -0.1581 -0.7667
 2767SOL    HW1 9082   4.143   2.488   6.040 -1.2557 -1.2626 -1.1912
 2767SOL    HW2 9083   4.176   2.347   6.085  1.8635 -0.2711 -0.1127
 2768SOL     OW 9084   5.109   6.014   6.602  0.0935 -0.3435 -0.5945
 2768SOL    HW1 9085   5.200   6.014   6.571 -0.4333  0.3688 -2.2368
 2768SOL    HW2 9086   5.070   6.091   6.561 -1.3716 -0.8724 -0.2323
 2769SOL     OW 9087   3.372   6.326   7.509  0.1701  0.3106 -0.1237
 2769SOL    HW1 9088   3.284   6.288   7.503  0.0660  0.6961 -1.4854
 2769SOL    HW2 9089   3.430   6.251   7.519 -0.3490  0.0926  1.4773
 2770SOL     OW 9090   2.872   6.491   3.016 -0.0753  0.2042 -0.1480
 2770SOL    HW1 9091   2.870   6.569   2.960 -0.3615 -0.9983 -1.9224
 2770SOL    HW2 9092   2.824   6.425   2.966 -0.3753 -0.9449  1.5799
 2771SOL     OW 9093   0.581   6.825   0.103  0.1713  0.3166 -0.0494
 2771SOL    HW1 9094   0.586   6.739   0.060  1.2756  1.0214 -1.4398
 2771SOL    HW2 9095   0.518   6.813   0.173 -3.0370 -0.5225 -2.8240
 2772SOL     OW 9096   3.703   4.454   2.058  0.4291 -0.0958 -0.7696
 2772SOL    HW1 9097   3.745   4.368   2.052  0.8015 -0.0027  0.2509
 2772SOL    HW2 9098   3.610   4.435   2.050  0.3881 -0.7940  0.9147
 2773SOL     OW 9099   1.182   7.067   6.518 -0.0876  0.2166  0.6534
 2773SOL    HW1 9100   1.265   7.114   6.519  0.4769 -0.7387  2.2338
 2773SOL    HW2 9101   1.185   7.014   6.438  0.9113  0.0742  0.7711
 2774SOL     OW 9102   0.492   5.890   7.740  0.8876 -0.4470  0.2005
 2774SOL    HW1 9103   0.564   5.933   7.787  0.9105  1.3380 -1.3287
 2774SOL    HW2 9104   0.413   5.913   7.790  1.1079 -0.2325  0.4520
 2775SOL     OW 9105   1.828   0.167   1.596 -1.2837  0.4589  0.1011
 2775SOL    HW1 9106   1.832   0.085   1.547  1.4090  1.2724 -1.2585
 2775SOL    HW2 9107   1.888   0.154   1.670 -0.8261  1.1683 -0.1284
 2776SOL     OW 9108   3.533   4.122   0.079  0.4979 -0.1958 -0.0474
 2776SOL    HW1 9109   3.507   4.188   0.143 -2.2583 -0.3892 -0.8342
 2776SOL    HW2 9110   3.569   4.172   0.006 -2.5676  0.6409 -1.1048
 2777SOL     OW 9111   4.121   0.498   3.002  0.3099  0.0627  0.1941
 2777SOL    HW1 9112   4.122   0.508   2.906  0.0339  0.0916  0.1935
 2777SOL    HW2 9113   4.161   0.412   3.017 -0.4263 -0.3194 -0.0001
 2778SOL     OW 9114   5.613   0.686   1.659  0.2554  0.5874  0.3914
 2778SOL    HW1 9115   5.706   0.664   1.647 -0.2452 -0.7598 -1.3791
 2778SOL    HW2 9116   5.568   0.601   1.660 -0.9805  1.2238  1.2264
 2779SOL     OW 9117   4.879   1.218   4.721 -0.0792 -0.6847 -0.2746
 2779SOL    HW1 9118   4.862   1.183   4.634 -0.2379  0.4897 -0.7353
 2779SOL    HW2 9119   4.798   1.203   4.770 -0.5319 -0.0005 -0.7967
 2780SOL     OW 9120   4.061   4.948   6.118  0.5689  0.3536 -0.1638
 2780SOL    HW1 9121   4.153   4.929   6.138  0.5593  0.1169 -0.3313
 2780SOL    HW2 9122   4.044   4.897   6.038  0.0608 -0.2590  0.3327
 2781SOL     OW 9123   7.470   5.248   7.633 -0.4228 -0.0853  0.5579
 2781SOL    HW1 9124   7.409   5.313   7.598 -1.0935 -0.0405  1.7689
 2781SOL    HW2 9125   7.546   5.254   7.575 -0.2956  2.0683  0.8495
 2782SOL     OW 9126   1.211   2.995   2.315  0.4291 -0.1849  0.6306
 2782SOL    HW1 9127   1.258   3.042   2.385  0.3768  0.9730 -0.0917
 2782SOL    HW2 9128   1.122   2.986   2.348  0.1409  1.2778  0.3120
 2783SOL     OW 9129   6.476   6.450   1.889  0.2595  0.1079  0.2103
 2783SOL    HW1 9130   6.420   6.479   1.961 -1.0479 -1.3411 -0.1773
 2783SOL    HW2 9131   6.544   6.518   1.883  0.4940  0.2098  2.8584
 2784SOL     OW 9132   1.885   4.752   7.804 -0.2550 -0.5358 -0.4442
 2784SOL    HW1 9133   1.964   4.759   7.749  0.2988  0.6601  0.4700
 2784SOL    HW2 9134   1.824   4.816   7.766  0.8302  1.7299  1.4036
 2785SOL     OW 9135   7.710   1.286   7.866  0.3161 -0.0546 -0.1954
 2785SOL    HW1 9136   7.694   1.332   7.784 -2.7261 -0.5193 -0.0087
 2785SOL    HW2 9137   7.701   1.193   7.844  0.2207 -0.2208  0.4987
 2786SOL     OW 9138   7.129   3.368   4.216  1.1663  0.3880 -0.4169
 2786SOL    HW1 9139   7.113   3.376   4.122  2.2033  0.4728 -0.5970
 2786SOL    HW2 9140   7.099   3.452   4.252 -1.4076 -0.5065 -0.3234
 2787SOL     OW 9141   5.336   0.556   1.471 -0.3270 -0.1268  0.5131
 2787SOL    HW1 9142   5.252   0.539   1.429 -0.5734 -0.9471  1.3132
 2787SOL    HW2 9143   5.327   0.519   1.559  1.3001 -1.4263  0.1851
 2788SOL     OW 9144   1.665   8.276   0.503  0.3662  0.3731 -0.1189
 2788SOL    HW1 9145   1.649   8.200   0.447  0.9792  0.6426 -0.6757
 2788SOL    HW2 9146   1.590   8.334   0.486 -0.2384 -0.1962  0.5021
 2789SOL     OW 9147   5.003   7.337   3.062 -0.1275 -0.2448 -0.2946
 2789SOL    HW1 9148   4.996   7.411   3.002 -0.4901  2.4130  2.7512
 2789SOL    HW2 9149   4.921   7.289   3.051  0.1385 -0.3355 -2.3612
 2790SOL     OW 9150   7.392   3.830   5.047  0.3228 -0.5462  0.7119
 2790SOL    HW1 9151   7.320   3.799   4.992  0.2147 -1.0601  1.1346
 2790SOL    HW2 9152   7.466   3.774   5.023  0.7376  0.3019 -0.0795
 2791SOL     OW 9153   4.188   6.367   1.807 -0.0110 -0.6239 -0.0299
 2791SOL    HW1 9154   4.252   6.296   1.805  0.5702 -0.1023 -0.8842
 2791SOL    HW2 9155   4.241   6.447   1.810 -0.6662 -0.2270  1.5469
 2792SOL     OW 9156   1.754   6.019   2.860  0.4984 -0.5633  0.7546
 2792SOL    HW1 9157   1.702   6.090   2.822  2.1573  0.0372 -0.5329
 2792SOL    HW2 9158   1.780   5.966   2.785  0.0607 -2.0289  1.6080
 2793SOL     OW 9159   6.722   4.382   6.045  0.3722 -0.1274 -0.0237
 2793SOL    HW1 9160   6.679   4.298   6.062 -0.3092  0.2561  0.1838
 2793SOL    HW2 9161   6.786   4.362   5.977  0.4614 -0.8869  0.2718
 2794SOL     OW 9162   1.290   7.077   2.158  0.0342  0.1780  0.1407
 2794SOL    HW1 9163   1.362   7.132   2.129 -1.2845  0.4019 -3.1331
 2794SOL    HW2 9164   1.222   7.138   2.186  0.3886  0.0201  1.3916
 2795SOL     OW 9165   7.039   4.674   7.040  0.3140 -0.3341  0.0732
 2795SOL    HW1 9166   7.036   4.674   6.944 -1.6358  0.4321  0.1017
 2795SOL    HW2 9167   7.091   4.596   7.061  2.5973  0.6136 -1.5958
 2796SOL     OW 9168   1.588   0.050   8.196 -0.6418  0.5931 -0.2888
 2796SOL    HW1 9169   1.541   0.130   8.173 -1.9901  0.5481  2.0284
 2796SOL    HW2 9170   1.551   0.024   8.280  1.3145 -1.2702  0.0717
 2797SOL     OW 9171   6.200   6.510   3.614  0.3281  0.2311 -0.4214
 2797SOL    HW1 9172   6.283   6.553   3.594 -0.3035 -0.0325 -4.5866
 2797SOL    HW2 9173   6.137   6.582   3.621  0.1650  0.2985 -2.1451
 2798SOL     OW 9174   3.062   1.092   6.926  0.4077 -0.0556 -0.6999
 2798SOL    HW1 9175   2.997   1.157   6.902 -0.4307 -1.1428 -1.4980
 2798SOL    HW2 9176   3.145   1.139   6.926 -0.4758  1.6825  1.6527
 2799SOL     OW 9177   8.152   4.860   5.335 -0.5013 -0.0878  0.2925
 2799SOL    HW1 9178   8.081   4.808   5.374  0.7229 -1.3921  0.8528
 2799SOL    HW2 9179   8.145   4.844   5.241 -1.8718  1.0217  0.1717
 2800SOL     OW 9180   7.056   7.075   5.787 -0.1805 -0.4449 -0.1223
 2800SOL    HW1 9181   7.053   6.979   5.790 -1.1000 -0.4581 -0.9646
 2800SOL    HW2 9182   7.069   7.096   5.695  4.3255  0.2184  0.4486
 2801SOL     OW 9183   2.096   6.700   7.135  0.0760 -0.2004  0.1797
 2801SOL    HW1 9184   2.181   6.732   7.166 -0.2621 -0.6879  1.6687
 2801SOL    HW2 9185   2.077   6.755   7.059  0.8854  1.1405  0.9074
 2802SOL     OW 9186   7.687   1.844   0.038  0.7692 -0.0770 -0.0431
 2802SOL    HW1 9187   7.652   1.921   0.083 -0.3880 -1.2358  1.1169
 2802SOL    HW2 9188   7.766   1.876  -0.006  0.6519  1.6268  0.8994
 2803SOL     OW 9189   4.858   7.198   7.488 -0.0055 -0.2493  0.1030
 2803SOL    HW1 9190   4.822   7.109   7.498 -1.1157  0.3042  1.4010
 2803SOL    HW2 9191   4.818   7.247   7.560  0.5737  1.3154 -0.6189
 2804SOL     OW 9192   1.166   1.042   4.614 -0.1214 -0.4668 -0.2692
 2804SOL    HW1 9193   1.163   1.120   4.669  0.2086 -1.4299  1.1630
 2804SOL    HW2 9194   1.157   1.075   4.525  0.8628  1.2739  0.2427
 2805SOL     OW 9195   3.587   8.249   2.704 -0.3431 -0.3448  0.6587
 2805SOL    HW1 9196   3.635   8.331   2.716 -0.3230 -0.1603 -0.5806
 2805SOL    HW2 9197   3.654   8.181   2.707  0.3262  0.0117 -2.6297
 2806SOL     OW 9198   6.858   8.266   0.148  0.0947 -0.3182  0.3019
 2806SOL    HW1 9199   6.862   8.257   0.053  3.4852 -1.4039  0.4096
 2806SOL    HW2 9200   6.783   8.212   0.175 -1.1693  0.3367 -1.7118
 2807SOL     OW 9201   0.615   4.211   3.636  0.0705  0.4128  0.5646
 2807SOL    HW1 9202   0.558   4.287   3.650  0.0638  0.1465  2.1296
 2807SOL    HW2 9203   0.700   4.250   3.612 -0.1864  0.8744  0.3807
 2808SOL     OW 9204   5.295   8.289   4.489 -0.0537  0.2854 -0.2835
 2808SOL    HW1 9205   5.256   8.344   4.422 -0.7538 -1.2070 -1.1578
 2808SOL    HW2 9206   5.289   8.200   4.453 -1.1522 -0.6620  2.0629
 2809SOL     OW 9207   6.981   5.915   4.472 -0.4289  0.3332  0.0965
 2809SOL    HW1 9208   7.033   5.850   4.520  1.8283  1.0094 -1.2998
 2809SOL    HW2 9209   6.989   5.995   4.525 -0.2400  0.3685  0.0171
 2810SOL     OW 9210   0.369   4.312   1.308  0.1849  0.3701 -0.0090
 2810SOL    HW1 9211   0.388   4.222   1.337  0.1874  0.2912 -0.2546
 2810SOL    HW2 9212   0.448   4.338   1.261  1.6370  1.7163  2.8586
 2811SOL     OW 9213   0.961   7.778   6.129 -0.2412  0.4383  0.1238
 2811SOL    HW1 9214   0.927   7.722   6.059 -1.3476  1.0921  0.1196
 2811SOL    HW2 9215   0.885   7.799   6.182  0.2805  1.3704  0.5289
 2812SOL     OW 9216   6.390   0.776   3.176  0.5751  0.6120 -0.4037
 2812SOL    HW1 9217   6.440   0.745   3.100  1.0948  1.6628 -0.4946
 2812SOL    HW2 9218   6.300   0.782   3.143  0.1279 -2.1897  0.0164
 2813SOL     OW 9219   5.351   1.290   5.835  0.3172  0.3765  0.5601
 2813SOL    HW1 9220   5.427   1.340   5.866  1.9230 -2.1671  0.9838
 2813SOL    HW2 9221   5.372   1.270   5.744 -0.8480  1.3616  0.0457
 2814SOL     OW 9222   1.803   8.319   0.809 -0.0249 -0.1791 -0.3232
 2814SOL    HW1 9223   1.892   8.287   0.827  0.6851  1.5428 -0.5922
 2814SOL    HW2 9224   1.754   8.240   0.785  1.2822 -1.2487  0.3500
 2815SOL     OW 9225   3.166   2.520   6.872 -0.1833 -0.1503 -0.0330
 2815SOL    HW1 9226   3.127   2.486   6.953 -1.5618 -1.6545 -1.2231
 2815SOL    HW2 9227   3.158   2.615   6.879 -2.5047 -0.3178  0.6132
 2816SOL     OW 9228   8.095   3.651   3.528  0.2837  0.1327 -0.1182
 2816SOL    HW1 9229   8.154   3.656   3.454 -0.4930 -0.2714 -0.7832
 2816SOL    HW2 9230   8.120   3.570   3.573  1.3368  0.8262  0.5906
 2817SOL     OW 9231   2.792   3.620   0.816  0.3332  0.2657  0.0144
 2817SOL    HW1 9232   2.755   3.554   0.757  0.1152 -0.4378  0.9099
 2817SOL    HW2 9233   2.886   3.619   0.797  0.3704 -0.5104  0.2084
 2818SOL     OW 9234   1.668   4.260   0.768  0.0287  0.8846  0.8601
 2818SOL    HW1 9235   1.660   4.314   0.690 -1.3128  0.9774  1.0425
 2818SOL    HW2 9236   1.739   4.199   0.748 -1.0946  0.0847 -0.9270
 2819SOL     OW 9237   3.815   1.674   0.300  0.4112  0.3652  0.4850
 2819SOL    HW1 9238   3.778   1.760   0.282 -0.9652 -0.1086  0.9414
 2819SOL    HW2 9239   3.888   1.667   0.239 -1.5723  0.4828 -2.0936
 2820SOL     OW 9240   5.159   3.717   7.094  0.3265  0.0748 -0.2208
 2820SOL    HW1 9241   5.158   3.785   7.161  2.6523 -0.6142  0.5883
 2820SOL    HW2 9242   5.216   3.751   7.025  2.1711 -1.2965  0.5499
 2821SOL     OW 9243   3.257   1.055   4.827  0.0928  0.1325 -0.1170
 2821SOL    HW1 9244   3.205   0.989   4.872  0.3113 -1.2929 -1.8563
 2821SOL    HW2 9245   3.285   1.013   4.746  0.7450  2.1744 -1.0195
 2822SOL     OW 9246   2.628   2.996   4.778 -0.0234 -0.0527  0.2331
 2822SOL    HW1 9247   2.538   3.025   4.789  0.3788  1.2562  0.1680
 2822SOL    HW2 9248   2.626   2.902   4.798 -1.1975  0.1758  1.2528
 2823SOL     OW 9249   1.933   6.797   7.391  0.2723  0.0060 -0.4538
 2823SOL    HW1 9250   1.857   6.786   7.448  1.1138 -0.7489  0.5542
 2823SOL    HW2 9251   1.936   6.717   7.339  3.1079 -2.3879  2.9163
 2824SOL     OW 9252   0.885   6.925   0.736 -0.0291  0.6924 -0.1657
 2824SOL    HW1 9253   0.809   6.925   0.678 -0.5054 -0.1339  0.4369
 2824SOL    HW2 9254   0.850   6.953   0.821 -0.0347 -1.3238  0.5407
 2825SOL     OW 9255   6.618   1.048   3.149  0.7836 -0.3089 -0.0002
 2825SOL    HW1 9256   6.552   1.031   3.216 -0.1264  1.6876 -0.3363
 2825SOL    HW2 9257   6.701   1.020   3.190  0.6981  3.2854  3.1313
 2826SOL     OW 9258   1.460   5.641   6.596  0.5454 -0.4577 -0.3808
 2826SOL    HW1 9259   1.441   5.609   6.508  0.1852 -1.7043  0.1234
 2826SOL    HW2 9260   1.423   5.575   6.654  2.0867 -0.4193  0.7009
 2827SOL     OW 9261   7.856   1.971   8.173 -0.2367  0.5492 -0.1447
 2827SOL    HW1 9262   7.937   1.932   8.138 -1.7619 -0.8426 -2.4070
 2827SOL    HW2 9263   7.827   2.030   8.104 -2.2416 -0.6230 -0.3705
 2828SOL     OW 9264   6.254   6.900   6.678 -0.5352  0.1449 -0.0954
 2828SOL    HW1 9265   6.310   6.959   6.627  1.2624 -0.2876  1.2834
 2828SOL    HW2 9266   6.310   6.825   6.698 -1.8491 -0.6538  0.7354
 2829SOL     OW 9267   0.294   8.054   7.310 -0.6981 -0.1574  0.1946
 2829SOL    HW1 9268   0.321   8.123   7.371  1.5340 -0.5834 -0.2485
 2829SOL    HW2 9269   0.357   8.059   7.239 -1.1117 -2.0059 -0.3454
 2830SOL     OW 9270   1.539   1.145   2.339 -0.4267 -0.6685  0.4811
 2830SOL    HW1 9271   1.448   1.174   2.345 -0.8024 -1.7905  0.3117
 2830SOL    HW2 9272   1.549   1.116   2.248  1.3882  3.5607 -0.9388
 2831SOL     OW 9273   6.465   6.817   1.627  0.9417 -0.2533  0.1759
 2831SOL    HW1 9274   6.530   6.867   1.577  0.3531 -0.6738 -1.0672
 2831SOL    HW2 9275   6.487   6.725   1.609  0.4169 -0.4036  0.2947
 2832SOL     OW 9276   7.584   7.452   3.805  0.7527  0.1268  0.7219
 2832SOL    HW1 9277   7.652   7.515   3.826  1.4449 -1.0537  2.2217
 2832SOL    HW2 9278   7.619   7.368   3.834 -0.8893 -0.6862  0.4857
 2833SOL     OW 9279   0.192   0.265   4.074  0.4171  0.2092  0.0008
 2833SOL    HW1 9280   0.243   0.339   4.107  0.1282  0.9624 -1.1477
 2833SOL    HW2 9281   0.254   0.215   4.021  0.4017  0.1072  0.0785
 2834SOL     OW 9282   2.526   5.078   4.438  0.5693  0.4167 -0.7668
 2834SOL    HW1 9283   2.446   5.065   4.388  0.0907  5.1067 -1.7241
 2834SOL    HW2 9284   2.496   5.096   4.528  0.5989  0.8902 -0.8450
 2835SOL     OW 9285   1.688   4.410   3.321 -0.4251  0.2463 -0.7619
 2835SOL    HW1 9286   1.782   4.408   3.339 -0.6030  1.5219  0.4781
 2835SOL    HW2 9287   1.657   4.323   3.344  0.4223 -0.1640 -1.1191
 2836SOL     OW 9288   5.959   5.679   5.310  0.0201 -0.3398 -0.3662
 2836SOL    HW1 9289   6.022   5.678   5.382 -0.3417 -1.0392 -0.0468
 2836SOL    HW2 9290   5.911   5.597   5.319 -1.5189  0.5513 -0.1057
 2837SOL     OW 9291   3.865   1.443   1.338  0.1370 -0.0271  0.2927
 2837SOL    HW1 9292   3.817   1.482   1.266  1.6545  0.3863 -0.5479
 2837SOL    HW2 9293   3.867   1.349   1.317 -0.1046 -0.0186  0.2264
 2838SOL     OW 9294   2.322   3.879   0.507 -0.1405  0.8808 -0.3851
 2838SOL    HW1 9295   2.364   3.850   0.426 -0.5588 -0.7045 -0.0673
 2838SOL    HW2 9296   2.395   3.896   0.566  0.1382 -0.3954 -0.3210
 2839SOL     OW 9297   0.044   5.216   3.178 -0.7475 -0.0852 -0.3435
 2839SOL    HW1 9298   0.014   5.185   3.264 -0.4935  0.3924 -0.0796
 2839SOL    HW2 9299   0.084   5.300   3.196  0.9735 -0.7979 -0.6502
 2840SOL     OW 9300   5.534   1.700   2.649 -0.0925  0.7507  0.8038
 2840SOL    HW1 9301   5.519   1.783   2.604 -2.0596  0.2246  0.3796
 2840SOL    HW2 9302   5.452   1.683   2.696  0.5469 -0.5802  1.5050
 2841SOL     OW 9303   2.120   5.754   0.448 -0.1276  0.4009 -0.3428
 2841SOL    HW1 9304   2.130   5.694   0.374  1.5064  0.7501 -0.4320
 2841SOL    HW2 9305   2.202   5.804   0.450  0.0718  0.0676  2.0131
 2842SOL     OW 9306   4.713   1.152   0.999  0.2712  1.3651  0.3119
 2842SOL    HW1 9307   4.696   1.234   0.952 -1.7429  1.3238  0.8467
 2842SOL    HW2 9308   4.808   1.142   0.997  0.5631  3.6362  0.0810
 2843SOL     OW 9309   8.048   3.825   5.348  0.4139 -0.2289 -0.6029
 2843SOL    HW1 9310   8.069   3.888   5.417 -0.0093  0.7858 -1.3816
 2843SOL    HW2 9311   8.130   3.777   5.334  0.7375  0.1266  0.0173
 2844SOL     OW 9312   3.769   2.910   4.966  0.2166  0.0044 -0.2196
 2844SOL    HW1 9313   3.811   2.828   4.940 -3.3927 -1.6761 -1.4713
 2844SOL    HW2 9314   3.750   2.955   4.883 -0.0545  0.8983  0.3110
 2845SOL     OW 9315   6.842   1.253   7.584  0.4826  0.2338  0.5583
 2845SOL    HW1 9316   6.893   1.326   7.620  0.8957  0.7620 -1.0007
 2845SOL    HW2 9317   6.762   1.252   7.635 -0.4777  3.1440 -0.6494
 2846SOL     OW 9318   6.790   0.575   7.633  0.1445 -0.2750 -0.3825
 2846SOL    HW1 9319   6.840   0.646   7.673  0.6208  0.0434 -1.5319
 2846SOL    HW2 9320   6.745   0.534   7.707  1.9481 -0.4739  0.6570
 2847SOL     OW 9321   0.683   0.204   2.018 -0.1179 -0.1033  0.4646
 2847SOL    HW1 9322   0.709   0.128   2.070  1.0048  0.0240  0.1288
 2847SOL    HW2 9323   0.694   0.177   1.927 -1.9947 -0.2934  0.2555
 2848SOL     OW 9324   1.269   6.519   1.312  0.0134  0.1810 -0.1350
 2848SOL    HW1 9325   1.264   6.578   1.387  1.9099  0.2064  0.0126
 2848SOL    HW2 9326   1.217   6.561   1.244 -1.5941  0.2382  1.0832
 2849SOL     OW 9327   6.325   3.489   1.954  0.5462 -0.1719  0.1458
 2849SOL    HW1 9328   6.391   3.434   1.994  1.4066 -0.2835 -1.3339
 2849SOL    HW2 9329   6.289   3.435   1.883  1.4342  1.1103 -1.3590
 2850SOL     OW 9330   5.307   2.166   7.991  0.8511  0.5986 -0.7724
 2850SOL    HW1 9331   5.305   2.256   7.957 -0.5331  0.1434 -1.9947
 2850SOL    HW2 9332   5.237   2.164   8.056  2.2737  0.9407  0.8701
 2851SOL     OW 9333   5.361   3.600   3.862  0.0357 -0.4887  0.4426
 2851SOL    HW1 9334   5.374   3.538   3.934 -0.7559 -0.1005  0.9377
 2851SOL    HW2 9335   5.349   3.685   3.905  0.7411 -0.0430 -0.2090
 2852SOL     OW 9336   0.771   4.641   6.728 -0.3161 -0.1075  0.4345
 2852SOL    HW1 9337   0.680   4.627   6.700 -0.0146  0.6295 -0.9996
 2852SOL    HW2 9338   0.822   4.633   6.648  0.6357  1.8414  0.7986
 2853SOL     OW 9339   5.634   3.578   7.151  0.3088  0.4616 -0.5063
 2853SOL    HW1 9340   5.692   3.518   7.199 -0.9095 -0.9445 -0.7083
 2853SOL    HW2 9341   5.575   3.520   7.103 -1.2810  1.8389 -0.3036
 2854SOL     OW 9342   8.229   6.634   0.055  0.8596 -0.0859  0.2644
 2854SOL    HW1 9343   8.268   6.688  -0.014 -1.2477  1.7606  0.3919
 2854SOL    HW2 9344   8.178   6.568   0.009  0.4377  0.3847  0.0456
 2855SOL     OW 9345   6.015   3.661   6.315  0.3165  0.5346 -0.2959
 2855SOL    HW1 9346   6.041   3.753   6.309 -2.7625  1.5355  0.1505
 2855SOL    HW2 9347   5.998   3.635   6.224  0.3810  0.6509 -0.3419
 2856SOL     OW 9348   7.186   3.024   6.272 -0.7181 -0.4621  0.5245
 2856SOL    HW1 9349   7.108   3.042   6.219 -0.0382 -0.0224 -0.3606
 2856SOL    HW2 9350   7.221   2.943   6.236  0.4585  0.4998 -0.6035
 2857SOL     OW 9351   0.306   4.934   7.351  1.0007 -0.0027 -0.1665
 2857SOL    HW1 9352   0.394   4.964   7.370  1.5613 -0.9682 -1.1003
 2857SOL    HW2 9353   0.305   4.922   7.256 -0.5243  1.1464 -0.3290
 2858SOL     OW 9354   2.942   3.443   2.209 -0.3553 -0.0038  0.1069
 2858SOL    HW1 9355   2.903   3.501   2.275  1.1960 -0.9077  1.9274
 2858SOL    HW2 9356   3.021   3.490   2.180 -1.6394  0.9338 -2.0947
 2859SOL     OW 9357   6.332   0.682   5.382 -0.2093  0.4038 -0.2248
 2859SOL    HW1 9358   6.365   0.634   5.458  0.4675  1.6814  0.3084
 2859SOL    HW2 9359   6.244   0.709   5.406 -1.1250 -1.5969 -1.0224
 2860SOL     OW 9360   3.317   8.076   6.713 -0.3358  0.0495 -0.3034
 2860SOL    HW1 9361   3.235   8.125   6.723 -1.7187 -2.2023 -0.0137
 2860SOL    HW2 9362   3.320   8.054   6.620 -1.1365 -1.5681  0.0229
 2861SOL     OW 9363   8.059   8.300   7.238  0.4261  0.5559  0.1060
 2861SOL    HW1 9364   7.989   8.341   7.289 -0.3054  0.4373 -0.7995
 2861SOL    HW2 9365   8.115   8.373   7.212  1.6579  0.4964  2.2756
 2862SOL     OW 9366   0.860   7.575   7.564 -0.2075 -0.1114 -0.1037
 2862SOL    HW1 9367   0.914   7.628   7.621  2.2522  0.1866 -2.4960
 2862SOL    HW2 9368   0.904   7.490   7.561  1.1736  0.5720 -3.2237
 2863SOL     OW 9369   7.814   2.978   4.543  0.0658 -0.2142 -0.4526
 2863SOL    HW1 9370   7.749   3.038   4.508 -0.8772  0.6070  2.4438
 2863SOL    HW2 9371   7.836   2.921   4.469 -1.8821  1.2097 -2.2523
 2864SOL     OW 9372   1.142   7.984   4.562  0.2352  0.3149  0.0520
 2864SOL    HW1 9373   1.099   7.898   4.566  0.3001  0.1785 -1.6146
 2864SOL    HW2 9374   1.169   8.001   4.653  0.7831 -1.7081  0.3127
 2865SOL     OW 9375   0.641   2.692   8.289 -0.0147  0.5023 -0.0057
 2865SOL    HW1 9376   0.553   2.666   8.318  0.4177 -1.3317 -0.1984
 2865SOL    HW2 9377   0.690   2.704   8.371 -0.7888  3.0252  0.1533
 2866SOL     OW 9378   1.599   3.185   1.978 -0.4544 -0.8643 -0.0177
 2866SOL    HW1 9379   1.574   3.213   1.889 -0.8810 -0.0518  0.3428
 2866SOL    HW2 9380   1.579   3.092   1.980  0.6771 -1.1657 -1.1553
 2867SOL     OW 9381   6.878   3.644   8.117  0.8726 -0.4601 -0.4143
 2867SOL    HW1 9382   6.960   3.664   8.072  1.0065 -2.5138 -1.1933
 2867SOL    HW2 9383   6.868   3.549   8.107 -0.1620 -0.6778  2.1281
 2868SOL     OW 9384   4.361   0.025   8.017  0.5753  0.1538  0.0932
 2868SOL    HW1 9385   4.381   0.038   8.110 -0.8744 -1.0820  0.6199
 2868SOL    HW2 9386   4.377  -0.068   8.001  1.3098  0.4495 -1.0543
 2869SOL     OW 9387   7.730   4.586   3.231  0.6113  0.1881  0.6546
 2869SOL    HW1 9388   7.710   4.642   3.306  0.3685 -0.6094  1.2021
 2869SOL    HW2 9389   7.778   4.643   3.170  0.0264  1.0893  1.0130
 2870SOL     OW 9390   5.721   5.889   6.181 -0.3339  0.2588 -0.8103
 2870SOL    HW1 9391   5.770   5.871   6.101  0.6270  0.2222 -0.2365
 2870SOL    HW2 9392   5.709   5.803   6.222  0.4586  0.4184 -0.2108
 2871SOL     OW 9393   2.609   6.841   0.461  0.4181  0.1167  0.7579
 2871SOL    HW1 9394   2.661   6.765   0.436  0.7409  0.3083  0.8380
 2871SOL    HW2 9395   2.521   6.807   0.472  0.8605 -0.5987  2.4405
 2872SOL     OW 9396   2.818   5.822   5.322 -0.1937 -0.0449  0.2555
 2872SOL    HW1 9397   2.811   5.773   5.404  2.1463  0.1989  0.6677
 2872SOL    HW2 9398   2.751   5.783   5.265 -1.6095 -0.4787  2.1174
 2873SOL     OW 9399   2.891   3.307   7.927  0.4170 -0.0653  0.5185
 2873SOL    HW1 9400   2.912   3.285   7.837 -0.0234  1.3742  0.0243
 2873SOL    HW2 9401   2.973   3.339   7.965  0.3511  0.4054  0.2691
 2874SOL     OW 9402   3.755   5.267   5.211  0.0084  0.2178 -0.2123
 2874SOL    HW1 9403   3.755   5.181   5.252  1.4854 -0.4177 -1.4369
 2874SOL    HW2 9404   3.755   5.329   5.284 -0.8070 -0.8051  0.6833
 2875SOL     OW 9405   6.244   1.965   6.635 -0.5938  0.0050  0.3004
 2875SOL    HW1 9406   6.191   1.952   6.714  0.6447  0.1222  1.1711
 2875SOL    HW2 9407   6.273   1.877   6.610  0.8484  0.1669  1.2985
 2876SOL     OW 9408   6.830   1.931   4.641 -0.1057 -0.3060 -0.3815
 2876SOL    HW1 9409   6.899   1.869   4.664 -0.2741  0.4877  2.6686
 2876SOL    HW2 9410   6.749   1.881   4.649 -0.1373 -0.1284  0.5128
 2877SOL     OW 9411   7.907   4.871   8.296 -0.1656 -0.0542  0.0962
 2877SOL    HW1 9412   7.974   4.828   8.350 -0.1732 -0.4665 -0.2180
 2877SOL    HW2 9413   7.827   4.863   8.348 -0.5744 -2.0928 -0.7412
 2878SOL     OW 9414   5.922   4.264   5.095 -0.0122  0.5209  0.3985
 2878SOL    HW1 9415   5.991   4.278   5.031  1.2218  1.7478  1.9061
 2878SOL    HW2 9416   5.854   4.327   5.071  1.1377  2.1331  1.1614
 2879SOL     OW 9417   5.126   4.145   6.007 -0.2763 -0.0141  0.1236
 2879SOL    HW1 9418   5.108   4.234   6.036  1.3982  0.1920  0.6100
 2879SOL    HW2 9419   5.042   4.113   5.974 -0.1699  3.2936 -4.3280
 2880SOL     OW 9420   1.159   3.000   7.222  0.7086 -0.0297  0.5379
 2880SOL    HW1 9421   1.081   3.039   7.261  0.7367  1.5920 -0.9074
 2880SOL    HW2 9422   1.228   3.063   7.240  1.0775 -0.0901 -0.6288
 2881SOL     OW 9423   1.632   6.796   5.066  0.5866  0.2957 -0.0168
 2881SOL    HW1 9424   1.687   6.728   5.027  0.9467 -0.3290  1.4950
 2881SOL    HW2 9425   1.596   6.755   5.144  0.3592  1.6636  0.6237
 2882SOL     OW 9426   4.285   4.741   8.123 -1.0060  0.2922  0.2069
 2882SOL    HW1 9427   4.307   4.662   8.171 -0.4923  0.7484  0.7251
 2882SOL    HW2 9428   4.364   4.794   8.125 -0.9299  0.2777 -1.2408
 2883SOL     OW 9429   2.073   6.367   8.250 -0.6202 -0.1228  0.5710
 2883SOL    HW1 9430   1.983   6.358   8.216 -0.5356  0.7686  0.0988
 2883SOL    HW2 9431   2.114   6.432   8.193  0.4293 -0.7375  0.6008
 2884SOL     OW 9432   4.144   6.781   6.681  0.3741  0.0445 -0.6669
 2884SOL    HW1 9433   4.236   6.752   6.680  0.6789  0.9806 -0.8617
 2884SOL    HW2 9434   4.107   6.745   6.600  0.7941  0.3270 -0.9909
 2885SOL     OW 9435   2.481   5.519   2.564 -0.5832 -0.2895 -0.1364
 2885SOL    HW1 9436   2.562   5.534   2.515 -0.9957 -1.3910 -1.2047
 2885SOL    HW2 9437   2.440   5.445   2.520 -2.3721  0.4812  0.1482
 2886SOL     OW 9438   4.482   3.757   6.853  0.0441  0.5585  0.2211
 2886SOL    HW1 9439   4.492   3.701   6.776  2.5993 -0.2123  1.0191
 2886SOL    HW2 9440   4.419   3.824   6.826  0.4445  0.0065 -2.3425
 2887SOL     OW 9441   0.219   7.014   6.084  0.0849 -0.4046  0.2270
 2887SOL    HW1 9442   0.241   6.940   6.028 -0.1697  1.2924 -2.2843
 2887SOL    HW2 9443   0.137   7.047   6.048 -0.3183  0.5319  1.9117
 2888SOL     OW 9444   7.749   7.843   4.274  0.2459  0.1673  0.2466
 2888SOL    HW1 9445   7.663   7.882   4.285  0.8200  1.5029  0.3192
 2888SOL    HW2 9446   7.743   7.757   4.315 -1.1565  0.0654 -0.1199
 2889SOL     OW 9447   4.039   5.309   6.762 -0.0635  0.5751 -0.2066
 2889SOL    HW1 9448   4.026   5.350   6.676  0.0796 -0.2056 -0.6086
 2889SOL    HW2 9449   3.951   5.301   6.798 -0.3717 -1.1142 -1.2426
 2890SOL     OW 9450   3.589   7.931   4.658 -0.4239 -0.3069 -0.0684
 2890SOL    HW1 9451   3.545   7.998   4.710  0.9565 -0.2665  1.1153
 2890SOL    HW2 9452   3.666   7.975   4.621 -0.6388 -0.7037 -1.0244
 2891SOL     OW 9453   4.509   6.032   0.381  0.6613 -0.1901 -0.1640
 2891SOL    HW1 9454   4.525   5.939   0.398  1.4554  0.1239  0.9135
 2891SOL    HW2 9455   4.429   6.051   0.430 -0.8723 -0.8166 -2.2845
 2892SOL     OW 9456   5.649   0.950   2.052 -0.2688 -0.0398 -0.2999
 2892SOL    HW1 9457   5.621   1.040   2.071  0.8767  0.5811 -1.3894
 2892SOL    HW2 9458   5.743   0.950   2.068 -0.3975 -1.3397  0.6248
 2893SOL     OW 9459   8.130   5.285   1.890  0.1620  0.1090 -0.0659
 2893SOL    HW1 9460   8.064   5.331   1.837  0.1983  0.4636  0.1910
 2893SOL    HW2 9461   8.133   5.197   1.853 -1.3895 -0.3153  0.7394
 2894SOL     OW 9462   6.194   0.448   3.164  0.1850 -0.0003  0.0807
 2894SOL    HW1 9463   6.143   0.383   3.116 -0.4084  1.3054 -1.1259
 2894SOL    HW2 9464   6.140   0.527   3.162  1.7859  1.1252 -0.3116
 2895SOL     OW 9465   2.109   1.558   0.644  0.2560 -0.0157  0.0712
 2895SOL    HW1 9466   2.154   1.512   0.714 -0.5973 -1.5205 -0.3056
 2895SOL    HW2 9467   2.169   1.554   0.570  0.6117  0.3920  0.3382
 2896SOL     OW 9468   6.704   4.653   1.087  0.2918  0.1137 -0.2416
 2896SOL    HW1 9469   6.734   4.661   1.178  0.7917  2.0940 -0.5408
 2896SOL    HW2 9470   6.667   4.565   1.082  0.6426 -0.1970  1.7650
 2897SOL     OW 9471   7.504   6.271   5.578 -0.4786 -0.2559  0.4181
 2897SOL    HW1 9472   7.477   6.218   5.504  1.2291 -0.9610  0.2481
 2897SOL    HW2 9473   7.519   6.358   5.542 -0.2481 -0.4455  0.0558
 2898SOL     OW 9474   2.708   0.370   2.889 -0.5679 -0.0309  0.4781
 2898SOL    HW1 9475   2.719   0.465   2.891 -3.5034  0.4081  0.8290
 2898SOL    HW2 9476   2.722   0.345   2.797  0.7630  0.6218  0.4885
 2899SOL     OW 9477   6.221   6.991   2.927  0.1113  0.1826  0.4309
 2899SOL    HW1 9478   6.273   6.925   2.880  0.0176  0.2593  0.2178
 2899SOL    HW2 9479   6.192   6.947   3.006  0.2149  0.0283  0.3825
 2900SOL     OW 9480   7.255   0.767   2.656 -0.4149  0.4006 -0.3261
 2900SOL    HW1 9481   7.340   0.809   2.638 -0.5215  0.9774  0.4266
 2900SOL    HW2 9482   7.278   0.680   2.688 -0.1682  0.0173 -1.5067
 2901SOL     OW 9483   3.203   4.887   6.713 -0.0839 -0.1739  0.0332
 2901SOL    HW1 9484   3.268   4.894   6.783  0.5470 -0.5936 -0.4965
 2901SOL    HW2 9485   3.174   4.795   6.717 -0.3974 -0.0773  0.0421
 2902SOL     OW 9486   2.835   2.939   2.458 -0.7128 -0.1169  0.0395
 2902SOL    HW1 9487   2.787   2.933   2.540  0.0550  1.2760  0.6341
 2902SOL    HW2 9488   2.835   3.033   2.437  1.5973 -0.0672  0.0124
 2903SOL     OW 9489   7.536   3.370   5.457 -0.3500  0.5699 -0.3513
 2903SOL    HW1 9490   7.555   3.429   5.385 -1.0750  0.1260 -0.9218
 2903SOL    HW2 9491   7.594   3.398   5.528 -0.1847  1.5040 -0.8469
 2904SOL     OW 9492   3.613   2.424   4.210 -0.1507  0.9088  0.4355
 2904SOL    HW1 9493   3.696   2.454   4.174 -1.0448  0.6381 -2.0539
 2904SOL    HW2 9494   3.628   2.332   4.231 -0.0448  0.5925 -0.9238
 2905SOL     OW 9495   6.322   0.150   1.888  0.4047 -0.0745  0.1804
 2905SOL    HW1 9496   6.400   0.094   1.895 -0.3093 -0.9884  1.0761
 2905SOL    HW2 9497   6.254   0.103   1.936 -1.1534 -0.0682 -1.8845
 2906SOL     OW 9498   3.850   6.669   5.533  0.2276  0.9349  1.1618
 2906SOL    HW1 9499   3.813   6.750   5.499 -0.9305  0.8929  2.2568
 2906SOL    HW2 9500   3.896   6.694   5.613  0.8430  0.6716  0.8996
 2907SOL     OW 9501   7.169   2.523   6.224  0.5501 -0.4216 -0.5078
 2907SOL    HW1 9502   7.076   2.519   6.201  0.5362  0.7997 -0.7390
 2907SOL    HW2 9503   7.193   2.432   6.241 -0.7531 -0.7304 -0.1699
 2908SOL     OW 9504   2.702   3.655   2.455 -0.0227 -0.1309 -0.4544
 2908SOL    HW1 9505   2.642   3.621   2.389 -0.3738 -0.7398  0.1630
 2908SOL    HW2 9506   2.749   3.578   2.486 -0.4412  0.0212  0.5806
 2909SOL     OW 9507   0.523   4.557   6.125  0.5552 -0.2863  0.1230
 2909SOL    HW1 9508   0.483   4.522   6.204  0.1563  0.1647  0.1274
 2909SOL    HW2 9509   0.457   4.543   6.056 -0.2084  1.6523  0.3862
 2910SOL     OW 9510   2.104   7.780   2.258  0.5210 -0.6845 -0.0588
 2910SOL    HW1 9511   2.183   7.761   2.308  1.6259  0.6069 -1.2260
 2910SOL    HW2 9512   2.088   7.873   2.273 -0.1141 -0.6810 -0.7266
 2911SOL     OW 9513   2.673   6.500   8.014 -0.0525 -0.4524 -0.6057
 2911SOL    HW1 9514   2.605   6.449   8.058 -0.0408 -0.9579 -1.1675
 2911SOL    HW2 9515   2.744   6.438   7.997  0.9418  0.2595  0.7630
 2912SOL     OW 9516   3.135   1.481   8.073  0.1781  0.1399 -0.1859
 2912SOL    HW1 9517   3.158   1.475   7.980 -1.0749  0.7053 -0.5539
 2912SOL    HW2 9518   3.067   1.548   8.076 -0.9413 -1.0014  0.9386
 2913SOL     OW 9519   1.996   2.579   0.735  0.1905 -0.4176 -0.3091
 2913SOL    HW1 9520   2.056   2.644   0.699 -0.4770 -0.2121 -1.0740
 2913SOL    HW2 9521   1.986   2.603   0.827  1.8778 -0.9166  0.0353
 2914SOL     OW 9522   6.154   7.364   5.319  0.2684 -0.5455  0.4537
 2914SOL    HW1 9523   6.240   7.324   5.333 -0.5150 -1.5996  2.5844
 2914SOL    HW2 9524   6.167   7.456   5.342  1.4397 -0.0333 -1.9331
 2915SOL     OW 9525   2.203   3.601   2.637  0.2486 -0.3382  0.2479
 2915SOL    HW1 9526   2.204   3.579   2.730  0.3851 -0.0229  0.3232
 2915SOL    HW2 9527   2.258   3.679   2.630  0.9622 -0.8729 -0.2320
 2916SOL     OW 9528   6.287   5.860   3.560  0.3368  0.0240  0.5691
 2916SOL    HW1 9529   6.210   5.812   3.529  0.7155 -0.1578 -0.1122
 2916SOL    HW2 9530   6.361   5.816   3.517  0.7295  0.9327  0.2894
 2917SOL     OW 9531   5.343   0.972   2.737  0.3174 -0.1529  0.0284
 2917SOL    HW1 9532   5.405   1.038   2.704  1.1069 -1.1505 -0.5181
 2917SOL    HW2 9533   5.295   0.943   2.660  0.2259 -0.4860  0.2083
 2918SOL     OW 9534   7.582   3.866   5.271  0.1540 -0.0855  0.3238
 2918SOL    HW1 9535   7.506   3.827   5.314 -0.2504 -0.3698 -0.6031
 2918SOL    HW2 9536   7.568   3.847   5.178  0.7674  0.8856  0.0243
 2919SOL     OW 9537   6.103   7.922   1.208  0.3264  0.0829  0.0471
 2919SOL    HW1 9538   6.043   7.876   1.150  0.3135  0.0416  0.0929
 2919SOL    HW2 9539   6.179   7.942   1.153  0.4534 -0.2452  0.1000
 2920SOL     OW 9540   8.183   3.135   0.819  0.1603  0.8144 -0.2810
 2920SOL    HW1 9541   8.233   3.146   0.739  0.2886 -2.3385 -0.7521
 2920SOL    HW2 9542   8.236   3.177   0.887  2.0418  0.1202 -1.2465
 2921SOL     OW 9543   5.636   5.038   2.590 -0.0134  0.2503 -0.0110
 2921SOL    HW1 9544   5.619   4.966   2.529  0.9584  0.3111 -0.3787
 2921SOL    HW2 9545   5.553   5.051   2.636 -0.2111 -1.0834  0.0462
 2922SOL     OW 9546   3.587   3.515   3.274  0.2923  0.1760 -0.2327
 2922SOL    HW1 9547   3.602   3.430   3.314  0.2587 -0.0327 -0.6510
 2922SOL    HW2 9548   3.527   3.560   3.333 -1.6987 -1.0323 -1.2293
 2923SOL     OW 9549   5.985   2.597   6.965  0.0226  0.3160 -0.0273
 2923SOL    HW1 9550   6.023   2.511   6.982 -0.4993 -0.0731 -0.7615
 2923SOL    HW2 9551   5.895   2.591   6.999 -0.0462  0.5399 -0.1615
 2924SOL     OW 9552   4.347   1.145   7.473 -0.4161  0.3247  0.1244
 2924SOL    HW1 9553   4.289   1.155   7.549  0.5332 -1.0715  1.0885
 2924SOL    HW2 9554   4.367   1.234   7.447 -1.6060  0.8351  0.8596
 2925SOL     OW 9555   0.170   3.391   1.839 -0.1423 -0.0348 -0.5874
 2925SOL    HW1 9556   0.127   3.309   1.814  0.2933 -1.0076  1.5688
 2925SOL    HW2 9557   0.099   3.449   1.865 -0.3786 -0.3528 -0.5172
 2926SOL     OW 9558   2.588   1.034   0.789 -0.6786 -0.3600 -0.4654
 2926SOL    HW1 9559   2.515   1.015   0.848  0.0633 -3.7317 -0.4551
 2926SOL    HW2 9560   2.662   0.984   0.824  0.7075  0.2408 -2.3650
 2927SOL     OW 9561   2.896   7.412   0.704  0.5192 -0.6259 -0.0320
 2927SOL    HW1 9562   2.927   7.378   0.789  2.8907  4.0294  1.2992
 2927SOL    HW2 9563   2.807   7.441   0.721  0.9780  0.2891  0.9896
 2928SOL     OW 9564   4.005   1.633   3.245 -0.0072  0.1497  0.0177
 2928SOL    HW1 9565   4.095   1.662   3.228  0.1809 -0.5106 -0.1664
 2928SOL    HW2 9566   3.992   1.649   3.339  0.4814 -0.1915  0.1516
 2929SOL     OW 9567   3.188   4.951   7.729  0.4723 -0.5927 -0.2632
 2929SOL    HW1 9568   3.204   5.016   7.660  1.8033 -0.5159  0.0910
 2929SOL    HW2 9569   3.132   4.886   7.688 -3.0075  1.9099  0.0209
 2930SOL     OW 9570   6.882   7.335   0.245  0.0401 -0.4848  0.3501
 2930SOL    HW1 9571   6.889   7.247   0.283  0.9638  0.1422  1.7248
 2930SOL    HW2 9572   6.958   7.382   0.279 -0.2425  0.7562 -0.6480
 2931SOL     OW 9573   2.342   4.158   2.978 -0.3915  0.7002 -0.1742
 2931SOL    HW1 9574   2.321   4.207   2.899 -0.6675  0.2265 -0.4043
 2931SOL    HW2 9575   2.297   4.205   3.048 -1.4181  0.2782 -0.5179
 2932SOL     OW 9576   7.971   6.399   6.454  0.1385 -0.2802  0.0589
 2932SOL    HW1 9577   8.015   6.447   6.384 -0.2470  1.4320  0.9495
 2932SOL    HW2 9578   8.041   6.380   6.517  0.3220 -1.0653 -0.3686
 2933SOL     OW 9579   4.097   6.717   7.010  0.3614  0.1268  0.0637
 2933SOL    HW1 9580   4.066   6.782   7.073  0.6288 -0.4724  0.8203
 2933SOL    HW2 9581   4.183   6.749   6.982  0.1865  0.4595 -0.1038
 2934SOL     OW 9582   3.990   6.207   1.218  0.1195  0.4694 -0.0372
 2934SOL    HW1 9583   3.980   6.270   1.146  1.0065  0.3018 -0.3159
 2934SOL    HW2 9584   4.000   6.261   1.296 -2.1603  0.6673  0.2021
 2935SOL     OW 9585   0.129   4.647   0.777  0.2293 -0.6307 -0.2410
 2935SOL    HW1 9586   0.143   4.725   0.723  1.2005 -0.0377  0.8340
 2935SOL    HW2 9587   0.178   4.664   0.857 -0.1284 -2.0519  0.3048
 2936SOL     OW 9588   3.558   8.157   3.456 -0.5577 -0.4287  0.1146
 2936SOL    HW1 9589   3.572   8.108   3.375 -0.2528  1.1501 -0.8188
 2936SOL    HW2 9590   3.583   8.246   3.435  0.1640 -0.1011  2.1551
 2937SOL     OW 9591   2.658   2.336   1.767  0.3836  0.2314 -0.1223
 2937SOL    HW1 9592   2.659   2.295   1.680 -0.5165  1.2264 -0.6297
 2937SOL    HW2 9593   2.717   2.411   1.759  0.7787 -0.0336  0.3122
 2938SOL     OW 9594   6.733   0.766   6.453  0.6124  0.1820  0.1330
 2938SOL    HW1 9595   6.794   0.814   6.397  1.1345  1.4373  1.6902
 2938SOL    HW2 9596   6.650   0.769   6.405  0.6268  2.6743  0.1264
 2939SOL     OW 9597   6.448   1.853   8.161 -0.2733  0.4665 -0.3465
 2939SOL    HW1 9598   6.379   1.863   8.096 -1.4771  2.0191  1.1131
 2939SOL    HW2 9599   6.450   1.758   8.179 -2.3432  0.4158 -0.1196
 2940SOL     OW 9600   6.851   7.890   0.219 -0.1099 -0.1781  0.4262
 2940SOL    HW1 9601   6.885   7.925   0.137 -0.9234 -0.7987 -0.1845
 2940SOL    HW2 9602   6.794   7.959   0.252  0.1082  0.0144  0.4076
 2941SOL     OW 9603   5.199   6.204   4.487  0.0164  0.6737 -0.2137
 2941SOL    HW1 9604   5.212   6.141   4.416 -1.8668 -0.1548  0.1191
 2941SOL    HW2 9605   5.208   6.290   4.445  0.2386  0.1997 -1.1715
 2942SOL     OW 9606   5.730   7.163   5.531 -0.0302 -0.3211  0.3315
 2942SOL    HW1 9607   5.819   7.160   5.497  0.2117 -2.5860  0.9724
 2942SOL    HW2 9608   5.713   7.256   5.548  1.8233  0.2522 -0.7312
 2943SOL     OW 9609   6.637   3.656   4.370  0.0793 -0.0457  0.0269
 2943SOL    HW1 9610   6.572   3.697   4.427 -0.6873 -0.2428 -0.6746
 2943SOL    HW2 9611   6.674   3.586   4.422  1.2422  1.3574  1.1642
 2944SOL     OW 9612   4.043   1.877   6.037 -0.2055 -0.6785  0.0752
 2944SOL    HW1 9613   3.989   1.950   6.065  0.0708 -0.1695 -0.6789
 2944SOL    HW2 9614   4.105   1.863   6.109 -0.5145 -0.4350  0.3907
 2945SOL     OW 9615   5.505   3.655   0.940  0.4618  0.1602 -0.3810
 2945SOL    HW1 9616   5.554   3.655   1.022  0.9537  1.8370 -0.6519
 2945SOL    HW2 9617   5.490   3.747   0.920 -0.5609 -0.2430 -1.6538
 2946SOL     OW 9618   1.712   0.056   6.291 -0.5575 -0.0925  0.0120
 2946SOL    HW1 9619   1.794   0.050   6.243 -0.6621  0.1718 -0.2010
 2946SOL    HW2 9620   1.646   0.024   6.230 -0.7190  0.4359 -0.0966
 2947SOL     OW 9621   5.287   8.212   5.995  0.0439  0.4646  0.0658
 2947SOL    HW1 9622   5.230   8.277   6.035 -0.2096 -1.0130  2.3001
 2947SOL    HW2 9623   5.375   8.238   6.022 -0.2159 -1.2860  3.0221
 2948SOL     OW 9624   1.664   4.788   3.003 -0.0033  0.1678  0.1008
 2948SOL    HW1 9625   1.621   4.873   2.995 -0.5677 -0.0318  0.8950
 2948SOL    HW2 9626   1.594   4.727   3.026  0.2766 -0.6451 -1.0744
 2949SOL     OW 9627   1.759   8.074   2.473 -0.0094  0.3559 -0.0699
 2949SOL    HW1 9628   1.852   8.087   2.492  0.1975 -0.0266 -0.8076
 2949SOL    HW2 9629   1.715   8.101   2.554  0.8475 -1.5427  1.1028
 2950SOL     OW 9630   1.201   5.606   1.217 -0.3860 -0.2148  0.0174
 2950SOL    HW1 9631   1.223   5.670   1.150  2.4903 -0.1814  0.8811
 2950SOL    HW2 9632   1.230   5.522   1.181 -1.6531 -0.6764  0.0103
 2951SOL     OW 9633   4.323   4.297   8.071 -0.1167  0.3093 -0.7431
 2951SOL    HW1 9634   4.416   4.293   8.095 -0.1831  0.3451 -0.4720
 2951SOL    HW2 9635   4.285   4.217   8.109 -0.1919  0.2819 -0.8747
 2952SOL     OW 9636   0.159   0.411   6.542  0.7842 -0.4125  0.3384
 2952SOL    HW1 9637   0.179   0.493   6.587 -0.9526 -0.5057  1.3548
 2952SOL    HW2 9638   0.215   0.412   6.464  1.7639  1.0965  1.0316
 2953SOL     OW 9639   7.995   1.334   5.636 -0.5256 -0.0945 -0.3874
 2953SOL    HW1 9640   7.986   1.246   5.674 -1.1815 -0.2270 -0.8193
 2953SOL    HW2 9641   8.072   1.329   5.580  0.8980  0.3071  1.4333
 2954SOL     OW 9642   5.268   1.925   5.242  0.3795  0.0859 -0.8036
 2954SOL    HW1 9643   5.283   1.990   5.173 -1.9000  0.5736 -0.9387
 2954SOL    HW2 9644   5.250   1.977   5.320  0.2785 -0.4162 -0.4891
 2955SOL     OW 9645   0.030   4.245   3.282 -0.2075  0.5294  0.5917
 2955SOL    HW1 9646   0.079   4.166   3.302 -0.0115  0.2796 -0.7926
 2955SOL    HW2 9647   0.014   4.240   3.188 -1.5790  1.3496  0.7568
 2956SOL     OW 9648   2.874   7.962   0.340  0.3540 -0.3042 -0.3933
 2956SOL    HW1 9649   2.817   8.033   0.368  1.2216  0.4770 -0.5642
 2956SOL    HW2 9650   2.841   7.885   0.387  0.2703  0.4889  0.9009
 2957SOL     OW 9651   6.106   6.101   7.996 -0.1618  0.1974  0.5958
 2957SOL    HW1 9652   6.054   6.034   8.039  0.7317 -1.7949 -1.1881
 2957SOL    HW2 9653   6.179   6.052   7.956  1.7952  2.5418  1.0604
 2958SOL     OW 9654   4.980   1.003   1.836  0.2914 -0.1338 -0.4182
 2958SOL    HW1 9655   5.031   1.082   1.815  1.0814 -0.9725 -1.8103
 2958SOL    HW2 9656   4.948   1.018   1.925  1.2228  1.3479 -0.3003
 2959SOL     OW 9657   1.603   3.100   2.909  0.4351  0.2584 -0.0374
 2959SOL    HW1 9658   1.571   3.023   2.956  0.0186  0.3830 -0.1163
 2959SOL    HW2 9659   1.665   3.065   2.845 -1.0198 -0.2078 -1.2376
 2960SOL     OW 9660   2.981   4.128   0.649 -0.6140  0.0781 -0.4928
 2960SOL    HW1 9661   2.885   4.135   0.652 -0.5825  0.5026 -0.3538
 2960SOL    HW2 9662   3.001   4.048   0.696 -0.7682  1.2142  1.6041
 2961SOL     OW 9663   2.203   2.181   6.497 -0.2237 -0.5088  0.0379
 2961SOL    HW1 9664   2.192   2.115   6.565  2.3490  0.1112  1.1958
 2961SOL    HW2 9665   2.218   2.131   6.417 -1.6006 -1.2621  0.2329
 2962SOL     OW 9666   3.851   7.936   4.403 -0.2651 -0.5596 -0.5423
 2962SOL    HW1 9667   3.945   7.954   4.394 -0.5529  1.2296 -0.2834
 2962SOL    HW2 9668   3.819   7.935   4.313 -0.2791  0.6031 -0.5651
 2963SOL     OW 9669   5.375   7.061   6.272  0.2022 -0.1391 -0.4807
 2963SOL    HW1 9670   5.438   7.059   6.200  0.5489  1.9563 -0.2866
 2963SOL    HW2 9671   5.426   7.091   6.347 -0.4244 -1.1505  0.3835
 2964SOL     OW 9672   2.759   0.586   7.087 -0.1146 -0.8690 -0.6037
 2964SOL    HW1 9673   2.809   0.664   7.060 -1.0299  0.0219  0.1883
 2964SOL    HW2 9674   2.710   0.615   7.163 -1.8737 -1.6885 -1.3816
 2965SOL     OW 9675   1.069   6.454   7.779  0.3975  0.2722 -0.4348
 2965SOL    HW1 9676   1.002   6.399   7.739  0.3711 -0.6882  0.8573
 2965SOL    HW2 9677   1.147   6.440   7.726 -0.1276  0.5851 -1.3184
 2966SOL     OW 9678   1.300   4.557   3.354  0.2544 -0.8929 -0.2940
 2966SOL    HW1 9679   1.374   4.617   3.367  0.9041 -1.5395 -0.9124
 2966SOL    HW2 9680   1.341   4.475   3.326 -0.6405 -1.5545  0.3144
 2967SOL     OW 9681   2.842   2.850   5.781  0.3654  0.5464 -0.1411
 2967SOL    HW1 9682   2.760   2.832   5.827  1.4827 -1.6140  1.1738
 2967SOL    HW2 9683   2.819   2.843   5.688 -0.4642 -3.1285  0.1720
 2968SOL     OW 9684   0.847   7.827   2.826  0.1793  0.0841 -0.7810
 2968SOL    HW1 9685   0.893   7.871   2.898 -0.5907  0.5586 -0.5632
 2968SOL    HW2 9686   0.783   7.892   2.796  0.4677 -0.1268 -1.8745
 2969SOL     OW 9687   5.213   6.470   1.310 -0.0192  0.5434  0.0770
 2969SOL    HW1 9688   5.303   6.440   1.320 -0.5894 -0.7260  1.7747
 2969SOL    HW2 9689   5.182   6.427   1.230 -0.4879 -2.7626  1.8771
 2970SOL     OW 9690   0.816   1.923   5.046 -0.1019  0.2640 -0.5758
 2970SOL    HW1 9691   0.832   2.017   5.053 -0.7973  0.4929 -1.7409
 2970SOL    HW2 9692   0.722   1.913   5.062 -0.1426 -0.1497 -1.0200
 2971SOL     OW 9693   0.533   3.705   0.748 -0.1764 -0.4415 -0.6384
 2971SOL    HW1 9694   0.597   3.729   0.815 -0.8957 -0.3920  0.0539
 2971SOL    HW2 9695   0.495   3.788   0.720 -0.2749 -0.5074 -0.7020
 2972SOL     OW 9696   0.803   6.301   0.966  0.3303 -1.0150 -0.8584
 2972SOL    HW1 9697   0.883   6.350   0.948 -0.3548 -0.2151 -1.8455
 2972SOL    HW2 9698   0.823   6.211   0.941  1.0702 -0.9115 -0.6482
 2973SOL     OW 9699   8.296   7.799   4.523 -0.6418  0.0266 -0.1431
 2973SOL    HW1 9700   8.348   7.839   4.453 -0.5194 -2.0485 -1.3136
 2973SOL    HW2 9701   8.354   7.735   4.563 -0.9025  0.7876  1.5395
 2974SOL     OW 9702   7.119   7.139   3.235  0.1273  0.1048 -0.3090
 2974SOL    HW1 9703   7.086   7.055   3.203  1.8979 -0.5399 -0.5845
 2974SOL    HW2 9704   7.109   7.199   3.161  0.0163 -0.1971 -0.5399
 2975SOL     OW 9705   2.564   2.569   3.170 -0.0543 -0.7219 -0.4334
 2975SOL    HW1 9706   2.568   2.509   3.095 -1.4196  0.0726 -1.1871
 2975SOL    HW2 9707   2.510   2.523   3.235  1.2540 -1.4756  0.1673
 2976SOL     OW 9708   2.883   7.969   6.139 -0.0223 -0.5575 -0.6214
 2976SOL    HW1 9709   2.861   7.884   6.100 -0.8956 -0.9765  0.7216
 2976SOL    HW2 9710   2.900   7.949   6.231  0.4648  0.6281 -0.4440
 2977SOL     OW 9711   0.740   6.864   5.152  0.4564 -0.3737 -0.0762
 2977SOL    HW1 9712   0.820   6.833   5.193  0.2781 -0.0922  0.4972
 2977SOL    HW2 9713   0.670   6.833   5.210  0.2646  0.9318  0.4161
 2978SOL     OW 9714   0.016   0.455   5.474 -0.3717 -0.3970  0.4037
 2978SOL    HW1 9715  -0.030   0.538   5.486  0.5183  0.2153 -0.2953
 2978SOL    HW2 9716  -0.053   0.391   5.458 -1.0319  0.3392  0.2478
 2979SOL     OW 9717   2.025   1.267   2.961 -0.7517 -0.1835  0.4278
 2979SOL    HW1 9718   2.098   1.213   2.933 -0.7937 -0.2558  0.4578
 2979SOL    HW2 9719   2.049   1.296   3.049 -0.3427  0.5391  0.0869
 2980SOL     OW 9720   0.492   6.370   7.815 -0.2332  0.1714 -0.0533
 2980SOL    HW1 9721   0.419   6.308   7.817 -0.0959 -0.1017 -1.7379
 2980SOL    HW2 9722   0.563   6.325   7.862 -0.9646  0.2449  1.1740
 2981SOL     OW 9723   5.309   4.554   7.681  0.1082 -0.5990  0.6038
 2981SOL    HW1 9724   5.233   4.498   7.665 -2.5852  3.1355 -1.1891
 2981SOL    HW2 9725   5.365   4.541   7.604 -0.8428 -0.4114 -0.1504
 2982SOL     OW 9726   0.046   8.178   1.919 -0.0848 -0.7170 -0.1455
 2982SOL    HW1 9727   0.018   8.178   1.827  1.4578 -0.3700 -0.6456
 2982SOL    HW2 9728   0.022   8.265   1.951 -0.0101 -0.5904 -0.4287
 2983SOL     OW 9729   5.572   6.070   5.058 -0.4762 -0.2783 -0.5488
 2983SOL    HW1 9730   5.575   6.164   5.040  0.4080  0.3226  2.1752
 2983SOL    HW2 9731   5.491   6.059   5.108 -0.7537 -1.0551 -1.1546
 2984SOL     OW 9732   4.700   7.166   6.439  0.2902 -0.0837 -0.1391
 2984SOL    HW1 9733   4.689   7.254   6.476 -1.4866 -0.8208  1.2442
 2984SOL    HW2 9734   4.792   7.145   6.453  0.1775  0.5642  1.9196
 2985SOL     OW 9735   2.437   4.670   7.584 -0.2727 -0.2930 -0.3370
 2985SOL    HW1 9736   2.502   4.645   7.518 -0.8634 -0.3278 -0.9137
 2985SOL    HW2 9737   2.405   4.755   7.556  0.3647  0.2723  0.5922
 2986SOL     OW 9738   4.974   0.785   7.413  0.2085  0.5225 -0.4408
 2986SOL    HW1 9739   4.953   0.709   7.468  1.6185  0.6400  0.3032
 2986SOL    HW2 9740   5.049   0.757   7.361 -1.0330  0.4601 -2.2753
 2987SOL     OW 9741   5.664   5.151   4.464  0.3583 -0.1739  0.1623
 2987SOL    HW1 9742   5.709   5.223   4.508 -1.8023  1.7332 -0.5153
 2987SOL    HW2 9743   5.729   5.116   4.402  1.3913  1.3964  0.2989
 2988SOL     OW 9744   6.900   2.991   2.128  0.0408  0.3597  0.2385
 2988SOL    HW1 9745   6.917   2.997   2.034  0.2245  1.3882  0.3272
 2988SOL    HW2 9746   6.816   3.036   2.140 -0.7697 -1.1026  0.3765
 2989SOL     OW 9747   4.459   5.719   2.792 -0.3790 -0.5464  0.1515
 2989SOL    HW1 9748   4.436   5.674   2.874  0.8215  0.5439  1.1415
 2989SOL    HW2 9749   4.535   5.772   2.815 -0.9840  1.0213 -1.2815
 2990SOL     OW 9750   1.620   2.207   4.454  0.3072 -0.0728  0.4290
 2990SOL    HW1 9751   1.586   2.229   4.541 -0.0074  0.2803  0.2168
 2990SOL    HW2 9752   1.542   2.198   4.399  0.5646  1.4809 -0.2400
 2991SOL     OW 9753   3.835   5.446   7.147  0.2784  0.2510  0.2714
 2991SOL    HW1 9754   3.775   5.505   7.101 -0.5083 -0.8791 -0.1899
 2991SOL    HW2 9755   3.850   5.489   7.231 -0.5313  0.9557  0.0769
 2992SOL     OW 9756   6.037   7.930   4.282  0.6740 -0.3167  0.1693
 2992SOL    HW1 9757   6.100   7.883   4.228  1.3147  1.1308 -0.3961
 2992SOL    HW2 9758   5.992   7.989   4.221 -0.6711 -0.7431  0.7121
 2993SOL     OW 9759   0.626   1.279   3.101  0.1347 -0.1072 -0.0823
 2993SOL    HW1 9760   0.534   1.256   3.117  0.4228 -1.9050 -0.7773
 2993SOL    HW2 9761   0.646   1.346   3.167 -1.6666  0.3324  0.0658
 2994SOL     OW 9762   5.868   7.573   3.950 -0.2702  0.4974  0.5197
 2994SOL    HW1 9763   5.895   7.602   3.863 -0.2745  0.4408  0.4998
 2994SOL    HW2 9764   5.786   7.525   3.935  0.8583 -1.4584  0.2568
 2995SOL     OW 9765   6.855   2.916   4.980 -0.3049 -0.0204  0.1170
 2995SOL    HW1 9766   6.774   2.867   4.968  0.2264 -0.7460 -0.5315
 2995SOL    HW2 9767   6.925   2.854   4.960  0.3789  1.6985 -3.6168
 2996SOL     OW 9768   8.053   6.958   2.353  0.0553  0.1922  0.1924
 2996SOL    HW1 9769   8.131   7.012   2.340  0.1616 -0.6407 -4.4168
 2996SOL    HW2 9770   8.000   6.975   2.275 -2.6727 -1.9990  1.4173
 2997SOL     OW 9771   4.329   1.997   7.026 -0.0997  0.8592  0.0688
 2997SOL    HW1 9772   4.405   2.033   7.070  2.1233 -0.4224 -2.4215
 2997SOL    HW2 9773   4.339   2.023   6.934 -2.8421  0.8689 -0.3248
 2998SOL     OW 9774   6.631   1.110   1.019 -0.0876 -0.2868  0.5799
 2998SOL    HW1 9775   6.591   1.133   0.935 -0.1245  0.6970  0.8527
 2998SOL    HW2 9776   6.718   1.076   0.995  0.1597  0.5866  0.1660
 2999SOL     OW 9777   4.986   0.869   4.606  0.2168  0.1347 -0.1859
 2999SOL    HW1 9778   5.063   0.827   4.647 -0.7295 -1.1590  0.3357
 2999SOL    HW2 9779   5.021   0.948   4.566  1.8606 -0.4815 -0.0649
 3000SOL     OW 9780   2.879   2.154   6.999  0.6257 -0.1635 -0.3485
 3000SOL    HW1 9781   2.957   2.118   6.956  0.6858  2.7523 -3.1029
 3000SOL    HW2 9782   2.809   2.140   6.936 -0.6943 -0.9890  1.2397
 3001SOL     OW 9783   2.961   7.455   1.208 -0.0106 -0.5116 -0.2784
 3001SOL    HW1 9784   2.879   7.505   1.212  1.4706  2.2351 -1.2599
 3001SOL    HW2 9785   3.006   7.476   1.290  0.1391 -1.1807 -0.1887
 3002SOL     OW 9786   6.176   3.844   3.819  0.1842 -0.0203 -0.1284
 3002SOL    HW1 9787   6.094   3.891   3.833  0.4589  0.4331 -0.0116
 3002SOL    HW2 9788   6.158   3.754   3.846 -0.9636 -0.5020 -2.2643
 3003SOL     OW 9789   2.594   0.579   4.068  0.3421  0.0074 -0.0154
 3003SOL    HW1 9790   2.507   0.617   4.060  0.1084 -0.5637 -0.2817
 3003SOL    HW2 9791   2.650   0.635   4.014  0.1623  0.4498  0.2590
 3004SOL     OW 9792   1.510   6.858   6.825 -0.4316  0.6450 -0.2933
 3004SOL    HW1 9793   1.449   6.857   6.751 -0.0728  2.6641 -0.6721
 3004SOL    HW2 9794   1.566   6.782   6.811 -2.4056 -0.9308 -0.2651
 3005SOL     OW 9795   3.988   5.974   0.584  0.0042 -0.6053  0.3756
 3005SOL    HW1 9796   3.990   5.908   0.515  0.3170 -0.0030 -0.1945
 3005SOL    HW2 9797   3.988   6.058   0.538  2.5030 -0.1374  1.0889
 3006SOL     OW 9798   6.266   2.210   7.059  0.2071 -0.1591  0.2820
 3006SOL    HW1 9799   6.272   2.126   7.104  0.7315  0.6432  1.7612
 3006SOL    HW2 9800   6.350   2.219   7.013  0.5815  0.0287  0.9930
 3007SOL     OW 9801   4.387   6.486   2.126 -0.1072 -0.2402  0.3993
 3007SOL    HW1 9802   4.483   6.491   2.124 -0.1212  0.1620  0.5549
 3007SOL    HW2 9803   4.366   6.469   2.218 -0.2230  0.6922  0.5517
 3008SOL     OW 9804   1.124   4.080   7.119  0.0006  0.3185 -0.4168
 3008SOL    HW1 9805   1.147   4.001   7.070 -1.2981  0.0295 -0.6024
 3008SOL    HW2 9806   1.072   4.131   7.058  0.1310  0.9349 -0.0188
 3009SOL     OW 9807   4.818   4.168   7.169  0.3419  0.5689 -0.4143
 3009SOL    HW1 9808   4.756   4.116   7.118  2.0533 -0.9093 -1.1055
 3009SOL    HW2 9809   4.783   4.167   7.258  0.0567 -1.4054 -0.5091
 3010SOL     OW 9810   2.362   6.129   7.165 -0.3025 -0.0217  0.1912
 3010SOL    HW1 9811   2.419   6.196   7.205 -1.8382 -0.4453  3.3675
 3010SOL    HW2 9812   2.386   6.131   7.072  2.1688  2.4652  0.7192
 3011SOL     OW 9813   8.002   6.154   1.851 -0.4636 -0.3288 -0.1666
 3011SOL    HW1 9814   7.935   6.088   1.834 -2.2220  1.2649  0.2366
 3011SOL    HW2 9815   7.953   6.233   1.871  1.5532  0.7387  0.8813
 3012SOL     OW 9816   5.849   7.685   6.946  0.3119 -0.1651 -0.1571
 3012SOL    HW1 9817   5.773   7.686   6.888  0.1331  0.6680  0.0871
 3012SOL    HW2 9818   5.924   7.672   6.888 -0.0431 -1.5980 -0.3471
 3013SOL     OW 9819   3.254   6.370   1.080  0.0663 -0.6236 -0.3840
 3013SOL    HW1 9820   3.173   6.350   1.127  0.4769  0.4137  0.8354
 3013SOL    HW2 9821   3.292   6.284   1.061 -0.4517 -1.0881  0.6102
 3014SOL     OW 9822   2.559   2.787   6.595  0.0172  0.6082 -0.1661
 3014SOL    HW1 9823   2.466   2.798   6.617 -0.5175 -0.3009 -1.8234
 3014SOL    HW2 9824   2.588   2.716   6.652 -0.6619  0.0142 -0.5405
 3015SOL     OW 9825   5.299   3.510   0.815 -0.1731  0.1754 -0.5017
 3015SOL    HW1 9826   5.262   3.596   0.795  1.5517  1.3416  1.0063
 3015SOL    HW2 9827   5.386   3.529   0.850 -0.6697 -2.0203  2.2221
 3016SOL     OW 9828   6.585   0.254   7.263  0.0420 -0.5502  0.4058
 3016SOL    HW1 9829   6.507   0.308   7.268 -1.4411 -2.4796 -0.6482
 3016SOL    HW2 9830   6.622   0.257   7.351 -1.9960 -0.6937  1.3151
 3017SOL     OW 9831   6.057   5.531   6.748 -0.5213 -0.0120 -0.3265
 3017SOL    HW1 9832   6.149   5.541   6.770 -0.5655 -1.6823  0.8289
 3017SOL    HW2 9833   6.047   5.575   6.664  1.8541 -1.7780 -1.6492
 3018SOL     OW 9834   8.245   2.831   7.760 -0.2425 -0.1969 -0.1730
 3018SOL    HW1 9835   8.204   2.893   7.699 -0.1329 -1.0140 -1.1069
 3018SOL    HW2 9836   8.247   2.748   7.712  1.3127 -0.4899  0.3333
 3019SOL     OW 9837   5.092   0.236   1.055 -0.1502 -0.3831  0.4989
 3019SOL    HW1 9838   5.094   0.331   1.045  0.4352 -0.0908  2.8127
 3019SOL    HW2 9839   4.999   0.215   1.067 -0.3313 -0.1965 -0.4570
 3020SOL     OW 9840   8.106   5.624   3.261 -0.2070 -0.6726 -0.0748
 3020SOL    HW1 9841   8.072   5.713   3.276 -0.1581 -0.8974  1.6085
 3020SOL    HW2 9842   8.030   5.575   3.230 -0.0933  0.0666 -1.6522
 3021SOL     OW 9843   5.346   0.949   0.531  0.0270  0.6822  0.1255
 3021SOL    HW1 9844   5.368   0.892   0.457 -0.2153 -0.2828  0.7647
 3021SOL    HW2 9845   5.325   1.033   0.492 -1.1593 -0.1064 -1.0236
 3022SOL     OW 9846   3.339   3.130   7.045 -0.4759 -0.2934 -0.0757
 3022SOL    HW1 9847   3.295   3.208   7.079  0.4158 -0.2769  1.1191
 3022SOL    HW2 9848   3.420   3.162   7.007 -0.5630 -0.5356 -0.4692
 3023SOL     OW 9849   8.002   5.234   5.440  0.0389  0.4042 -0.2619
 3023SOL    HW1 9850   8.084   5.206   5.398 -0.1294  0.5773 -0.7063
 3023SOL    HW2 9851   7.937   5.172   5.408 -0.0338  0.3631 -0.0301
 3024SOL     OW 9852   4.403   3.568   3.574 -0.2017 -0.1565  0.0018
 3024SOL    HW1 9853   4.409   3.612   3.490  1.1506 -1.5476 -0.6701
 3024SOL    HW2 9854   4.336   3.617   3.622 -0.7716  0.8520 -1.7482
 3025SOL     OW 9855   3.935   2.700   1.078  0.0017 -0.3046  0.4858
 3025SOL    HW1 9856   3.951   2.683   0.985  0.3362  0.0098  0.4810
 3025SOL    HW2 9857   3.855   2.653   1.098  0.4416 -1.1546  0.2707
 3026SOL     OW 9858   5.497   6.774   2.595  0.1407 -0.7354 -0.0346
 3026SOL    HW1 9859   5.434   6.816   2.653 -0.4220  1.0223 -1.7947
 3026SOL    HW2 9860   5.580   6.817   2.616  0.2932 -1.3323  0.6216
 3027SOL     OW 9861   7.115   3.236   3.549 -0.3598 -0.2954  0.1740
 3027SOL    HW1 9862   7.136   3.312   3.494 -0.1972 -1.7961 -1.9586
 3027SOL    HW2 9863   7.126   3.268   3.638  1.9670  1.5838 -0.6626
 3028SOL     OW 9864   1.008   7.279   7.256 -0.0142 -0.5353  0.1436
 3028SOL    HW1 9865   1.005   7.343   7.185  0.9190 -0.0219  0.5392
 3028SOL    HW2 9866   1.061   7.207   7.222 -0.1347 -0.5931  0.0803
 3029SOL     OW 9867   2.202   3.765   2.203 -0.2100  0.1829  0.5756
 3029SOL    HW1 9868   2.151   3.693   2.164  0.1014  1.0033 -1.4897
 3029SOL    HW2 9869   2.144   3.802   2.269 -1.1617 -0.7126  0.2843
 3030SOL     OW 9870   1.470   7.686   2.678 -0.6549 -0.1433  0.1779
 3030SOL    HW1 9871   1.442   7.762   2.729 -1.4663 -0.7555  0.6744
 3030SOL    HW2 9872   1.447   7.708   2.588 -0.9990  0.1556  0.3355
 3031SOL     OW 9873   5.028   0.009   2.235  0.4573  0.5694 -0.2232
 3031SOL    HW1 9874   5.039   0.056   2.153 -1.0868  0.6364 -0.4265
 3031SOL    HW2 9875   4.996  -0.078   2.210 -0.8762  0.8749  0.3020
 3032SOL     OW 9876   8.077   4.737   7.751  0.6096  0.2628 -0.2832
 3032SOL    HW1 9877   8.156   4.746   7.698 -0.1010 -0.6878 -1.5928
 3032SOL    HW2 9878   8.091   4.656   7.801  2.9063  2.9921  4.0869
 3033SOL     OW 9879   6.139   6.914   5.542 -0.0012  0.3237 -0.0453
 3033SOL    HW1 9880   6.115   7.004   5.563  1.6720  0.7795  0.0149
 3033SOL    HW2 9881   6.230   6.919   5.514 -0.2133 -1.2009 -1.1328
 3034SOL     OW 9882   3.958   6.387   2.083 -0.0065 -0.4902 -0.5245
 3034SOL    HW1 9883   3.992   6.474   2.106 -0.3860 -0.3549 -0.4795
 3034SOL    HW2 9884   4.037   6.334   2.069  0.2286  0.0105 -1.1268
 3035SOL     OW 9885   5.494   0.143   4.596 -0.3300  0.1012 -0.4303
 3035SOL    HW1 9886   5.544   0.098   4.528 -1.4423 -1.1346 -0.4580
 3035SOL    HW2 9887   5.405   0.108   4.589 -0.8834  1.2172  0.5428
 3036SOL     OW 9888   3.469   5.414   0.167  0.0480  0.4032 -0.2558
 3036SOL    HW1 9889   3.445   5.381   0.080 -1.3761 -1.0044  0.6186
 3036SOL    HW2 9890   3.529   5.349   0.202 -0.7466  0.0468  0.4760
 3037SOL     OW 9891   6.591   0.802   7.922 -0.0906  0.5692 -0.1380
 3037SOL    HW1 9892   6.602   0.896   7.934  1.7159  0.1713  1.8432
 3037SOL    HW2 9893   6.638   0.762   7.995 -2.7606 -1.8711  0.4701
 3038SOL     OW 9894   3.960   2.502   3.268 -0.3788  0.0895 -0.7475
 3038SOL    HW1 9895   4.023   2.436   3.297 -0.8414 -0.5941 -1.2663
 3038SOL    HW2 9896   4.011   2.562   3.214 -0.0212 -0.0272 -0.5438
 3039SOL     OW 9897   6.008   5.001   6.450  0.2974  0.2371  0.0929
 3039SOL    HW1 9898   6.013   5.053   6.530  1.0812 -1.9153  1.5104
 3039SOL    HW2 9899   5.996   5.066   6.380 -2.6257  2.1046  2.0796
 3040SOL     OW 9900   2.506   7.734   1.595  0.0818  0.2623 -0.7387
 3040SOL    HW1 9901   2.463   7.815   1.621  1.2357  0.6711 -0.0479
 3040SOL    HW2 9902   2.550   7.756   1.513  0.3984  0.3304 -0.5492
 3041SOL     OW 9903   1.678   2.172   1.831  0.2516 -0.2791 -0.4455
 3041SOL    HW1 9904   1.759   2.122   1.842 -0.2506 -0.6515  2.3364
 3041SOL    HW2 9905   1.678   2.235   1.903 -1.1845  0.8186 -1.3368
 3042SOL     OW 9906   7.885   5.807   1.137  0.2321 -0.1165  0.8544
 3042SOL    HW1 9907   7.822   5.735   1.129  0.0830 -0.0475  1.3560
 3042SOL    HW2 9908   7.951   5.789   1.070  0.7684 -1.3080  1.6679
 3043SOL     OW 9909   2.541   5.473   1.591  0.0219  0.0332 -0.2839
 3043SOL    HW1 9910   2.578   5.422   1.519  0.5889  3.6791 -2.8656
 3043SOL    HW2 9911   2.616   5.508   1.637 -0.3565 -1.6553  1.7732
 3044SOL     OW 9912   1.326   6.505   3.173 -0.1597  0.5678  0.2074
 3044SOL    HW1 9913   1.319   6.546   3.259  0.5132  1.0706  0.0237
 3044SOL    HW2 9914   1.408   6.456   3.176 -1.2868 -1.3957  0.6774
 3045SOL     OW 9915   1.933   7.326   4.152 -0.5199 -0.1759 -0.4323
 3045SOL    HW1 9916   1.945   7.418   4.175 -0.9266 -0.3953  0.7841
 3045SOL    HW2 9917   1.968   7.317   4.064  0.2838  0.9637 -0.2429
 3046SOL     OW 9918   8.248   1.638   2.139 -0.2810 -0.3556 -0.0935
 3046SOL    HW1 9919   8.261   1.547   2.114 -0.2366 -0.7364  1.2070
 3046SOL    HW2 9920   8.155   1.655   2.123 -0.3030 -0.6493 -0.2717
 3047SOL     OW 9921   8.219   1.430   2.663  0.2138  0.6766 -0.1915
 3047SOL    HW1 9922   8.187   1.351   2.620  0.7535  0.1474  0.3715
 3047SOL    HW2 9923   8.141   1.469   2.703  0.3267 -0.9506  1.7303
 3048SOL     OW 9924   6.455   6.223   6.785  0.1533 -0.2661 -0.0029
 3048SOL    HW1 9925   6.377   6.203   6.838  0.4740 -0.0817  0.5391
 3048SOL    HW2 9926   6.419   6.259   6.704 -0.3156  0.5645  0.5531
 3049SOL     OW 9927   7.210   0.179   2.309  0.7965 -0.4686 -0.2198
 3049SOL    HW1 9928   7.222   0.250   2.247  0.2577  0.8749  1.1646
 3049SOL    HW2 9929   7.156   0.115   2.262  1.9751 -0.3748 -1.7617
 3050SOL     OW 9930   4.681   1.210   7.769 -0.3007 -0.1340 -0.5451
 3050SOL    HW1 9931   4.631   1.280   7.811  1.0450  0.6952 -0.2482
 3050SOL    HW2 9932   4.639   1.130   7.799 -0.9294  0.5053  0.3715
 3051SOL     OW 9933   5.276   7.132   0.017  0.2960  0.2085 -0.1788
 3051SOL    HW1 9934   5.219   7.127   0.094 -0.2314  0.4361 -0.5530
 3051SOL    HW2 9935   5.335   7.205   0.036  0.6020 -0.1494  0.2934
 3052SOL     OW 9936   2.108   0.575   2.519  0.2129 -0.5041 -0.1967
 3052SOL    HW1 9937   2.102   0.664   2.554 -0.9201  0.0049 -1.5635
 3052SOL    HW2 9938   2.053   0.522   2.577 -1.9912  0.4002 -1.3174
 3053SOL     OW 9939   1.786   7.739   7.230 -0.2643  0.0938 -0.0089
 3053SOL    HW1 9940   1.781   7.706   7.319  0.4997 -1.5294 -0.5174
 3053SOL    HW2 9941   1.797   7.660   7.176 -3.0481  0.7722 -1.7840
 3054SOL     OW 9942   7.004   2.519   2.534  0.4907 -0.1848  0.5720
 3054SOL    HW1 9943   6.937   2.533   2.467  0.1096 -2.9445  0.2476
 3054SOL    HW2 9944   7.069   2.587   2.518  0.2580 -0.5438 -2.4407
 3055SOL     OW 9945   3.141   0.887   2.243 -0.4636 -0.0343 -0.0691
 3055SOL    HW1 9946   3.180   0.935   2.170  0.2552 -0.9113 -0.2769
 3055SOL    HW2 9947   3.154   0.944   2.318  1.9586 -0.5994  0.0268
 3056SOL     OW 9948   0.426   2.249   2.857  0.0385  0.6138  0.5623
 3056SOL    HW1 9949   0.438   2.184   2.788 -0.3641  0.4850  0.6091
 3056SOL    HW2 9950   0.415   2.198   2.937 -0.1014  0.7429  0.6263
 3057SOL     OW 9951   5.359   0.475   7.613  0.5693 -0.3643 -0.2437
 3057SOL    HW1 9952   5.406   0.538   7.667  2.7095 -2.3636  0.3915
 3057SOL    HW2 9953   5.384   0.497   7.523  0.8428  0.0286 -0.0723
 3058SOL     OW 9954   2.575   7.395   8.230  0.4249  0.6738  0.1816
 3058SOL    HW1 9955   2.662   7.433   8.225  0.9538 -0.4432  0.5848
 3058SOL    HW2 9956   2.549   7.381   8.138  0.3863  1.6125  0.0462
 3059SOL     OW 9957   1.823   6.543   4.176 -0.1611 -0.0783  0.3391
 3059SOL    HW1 9958   1.818   6.488   4.097  0.7051  0.3745 -0.0451
 3059SOL    HW2 9959   1.907   6.522   4.215 -0.1993  0.3528  0.6637
 3060SOL     OW 9960   6.742   1.631   7.712 -0.1759 -0.3788  0.4458
 3060SOL    HW1 9961   6.777   1.713   7.678  1.9802 -1.6899 -0.7379
 3060SOL    HW2 9962   6.665   1.657   7.763 -0.3398  2.2189 -0.9461
 3061SOL     OW 9963   3.441   1.637   6.135  0.3864  0.0761  0.0638
 3061SOL    HW1 9964   3.380   1.582   6.184 -0.4223 -0.3286 -1.3333
 3061SOL    HW2 9965   3.427   1.725   6.169  1.3468 -0.4729  1.9843
 3062SOL     OW 9966   6.778   3.877   8.216  0.3912  0.0673 -0.4217
 3062SOL    HW1 9967   6.834   3.939   8.169 -1.9406 -0.9144 -5.1014
 3062SOL    HW2 9968   6.814   3.791   8.194 -1.4233 -0.4671 -1.4970
 3063SOL     OW 9969   4.345   3.245   6.324 -0.1999  0.0409  0.0123
 3063SOL    HW1 9970   4.429   3.278   6.292 -0.8607  0.5570 -1.2648
 3063SOL    HW2 9971   4.362   3.221   6.415  0.9847  1.4479  0.2097
 3064SOL     OW 9972   3.269   5.793   4.752 -0.2622  0.2430  0.4444
 3064SOL    HW1 9973   3.358   5.774   4.783 -0.7004 -0.0818  1.5390
 3064SOL    HW2 9974   3.212   5.742   4.809 -1.1195 -0.2903 -0.8582
 3065SOL     OW 9975   2.333   5.625   6.457  0.1293  0.1468 -0.1819
 3065SOL    HW1 9976   2.241   5.609   6.437 -0.0708  1.1959 -0.1402
 3065SOL    HW2 9977   2.333   5.703   6.513  1.0251  0.0083  0.0360
 3066SOL     OW 9978   5.508   0.001   7.348 -0.0437 -0.0730 -0.2681
 3066SOL    HW1 9979   5.428  -0.050   7.359 -0.5912  0.8109 -0.1137
 3066SOL    HW2 9980   5.488   0.063   7.278 -0.0134  1.1501  0.7601
 3067SOL     OW 9981   6.170   6.603   6.444  0.5663 -0.2542  0.3074
 3067SOL    HW1 9982   6.154   6.696   6.426  1.0096 -0.3364 -0.5527
 3067SOL    HW2 9983   6.222   6.603   6.525  0.6094  0.2505  0.2827
 3068SOL     OW 9984   5.438   5.237   4.986 -0.1306  0.3163 -0.3214
 3068SOL    HW1 9985   5.462   5.192   5.067  0.7455 -0.2694 -0.8942
 3068SOL    HW2 9986   5.367   5.296   5.012 -1.0855 -1.1296  0.5263
 3069SOL     OW 9987   1.724   5.912   4.346 -0.1969 -0.2572 -0.0245
 3069SOL    HW1 9988   1.766   5.960   4.274 -1.7989  0.1837 -0.6894
 3069SOL    HW2 9989   1.758   5.955   4.425  0.3211  0.3180 -0.5447
 3070SOL     OW 9990   7.899   0.467   6.499  0.4598 -0.8798 -0.7695
 3070SOL    HW1 9991   7.824   0.455   6.440 -0.9499  1.5034  0.3972
 3070SOL    HW2 9992   7.906   0.383   6.545 -1.3708 -1.2529 -1.0600
 3071SOL     OW 9993   2.166   6.114   7.872 -0.1400 -0.1341 -0.0267
 3071SOL    HW1 9994   2.229   6.052   7.909  1.0215 -0.4276 -2.3359
 3071SOL    HW2 9995   2.218   6.192   7.852 -0.5321 -0.2609 -1.6735
 3072SOL     OW 9996   3.310   3.393   3.952 -0.2801 -0.1141  0.4575
 3072SOL    HW1 9997   3.247   3.335   3.910  0.6995 -2.6192  2.2300
 3072SOL    HW2 9998   3.387   3.389   3.895  0.4606 -2.1664  1.5476
 3073SOL     OW 9999   3.435   4.335   2.201  0.4110  0.0567 -0.3404
 3073SOL    HW110000   3.489   4.356   2.277 -0.3757  0.5487  0.1072
 3073SOL    HW210001   3.488   4.275   2.149  1.5032  0.7693 -0.0789
 3074SOL     OW10002   5.107   3.106   7.317  0.0518  0.3015  0.3339
 3074SOL    HW110003   5.158   3.070   7.389  0.8655 -0.0117 -0.3845
 3074SOL    HW210004   5.047   3.169   7.359  0.6278  0.2574  1.2514
 3075SOL     OW10005   6.093   6.150   0.834 -0.2322 -0.1840 -0.5079
 3075SOL    HW110006   6.016   6.206   0.839 -0.5363 -0.4085 -2.0969
 3075SOL    HW210007   6.119   6.135   0.925 -0.4927  2.0415 -0.0197
 3076SOL     OW10008   0.888   7.045   3.447  0.0913  0.0344  0.2025
 3076SOL    HW110009   0.792   7.046   3.449  0.0750 -0.0537 -0.3520
 3076SOL    HW210010   0.913   7.137   3.439 -0.0013 -0.0427 -1.2568
 3077SOL     OW10011   4.212   5.410   4.257 -0.0041  0.2486  0.3683
 3077SOL    HW110012   4.190   5.451   4.173 -1.3469  1.9370  1.4864
 3077SOL    HW210013   4.134   5.421   4.311  1.4318  0.8611  2.4534
 3078SOL     OW10014   2.163   2.707   5.829  0.2831 -0.3030  0.6704
 3078SOL    HW110015   2.173   2.691   5.922  0.1794  0.8498  0.8949
 3078SOL    HW210016   2.107   2.636   5.798 -0.1106 -0.3962  1.5755
 3079SOL     OW10017   1.392   7.241   6.477 -1.0509 -0.0445 -0.3104
 3079SOL    HW110018   1.462   7.204   6.423  0.3042  0.4632  1.0360
 3079SOL    HW210019   1.397   7.335   6.461 -1.7098 -0.0393 -0.5156
 3080SOL     OW10020   2.356   5.910   0.717  0.1962  0.8267  0.0340
 3080SOL    HW110021   2.399   5.970   0.778  0.9886 -2.3405  2.8936
 3080SOL    HW210022   2.284   5.872   0.768 -0.5543 -0.2986 -1.7814
 3081SOL     OW10023   3.427   5.662   1.459 -0.3544  0.0596  0.6117
 3081SOL    HW110024   3.399   5.750   1.483 -1.3630 -0.3162  0.8978
 3081SOL    HW210025   3.345   5.614   1.445  0.1744 -0.5404 -0.6645
 3082SOL     OW10026   2.785   6.253   7.380  0.2083  0.5866  0.0484
 3082SOL    HW110027   2.691   6.253   7.363 -0.0252 -0.4765  1.2098
 3082SOL    HW210028   2.813   6.164   7.359  0.6173  0.3798  1.3982
 3083SOL     OW10029   2.270   3.855   0.027  0.4013 -0.0773  0.3828
 3083SOL    HW110030   2.242   3.890  -0.058 -0.5223 -0.7788  0.3891
 3083SOL    HW210031   2.357   3.893   0.040  0.5266  0.1093 -0.8360
 3084SOL     OW10032   6.068   2.423   7.359  0.2289  0.2820 -0.0395
 3084SOL    HW110033   5.982   2.397   7.393 -0.0027  0.6943 -0.2917
 3084SOL    HW210034   6.127   2.417   7.434 -0.0326  0.0413  0.1469
 3085SOL     OW10035   7.399   3.447   3.741  0.1291 -0.4481  0.0409
 3085SOL    HW110036   7.327   3.422   3.798  0.9389  0.6453  1.6061
 3085SOL    HW210037   7.477   3.410   3.784  0.8390  1.0711  0.1020
 3086SOL     OW10038   1.756   5.370   7.270 -0.1380  0.2251 -0.3325
 3086SOL    HW110039   1.749   5.395   7.362 -0.4961  2.7569 -0.9699
 3086SOL    HW210040   1.787   5.450   7.226 -0.7868 -0.6635 -2.5247
 3087SOL     OW10041   7.642   4.156   3.270  0.3865 -0.2293  0.2748
 3087SOL    HW110042   7.696   4.196   3.202  1.1186  2.8557  2.4369
 3087SOL    HW210043   7.663   4.063   3.265  2.3008  0.2110 -2.0413
 3088SOL     OW10044   3.717   7.816   8.287  0.0610  0.0748  0.5319
 3088SOL    HW110045   3.802   7.860   8.290 -0.5586  1.3047  1.0044
 3088SOL    HW210046   3.700   7.791   8.378  0.2506 -0.8702  0.3173
 3089SOL     OW10047   3.128   3.992   0.359  0.0482  0.2257 -0.1188
 3089SOL    HW110048   3.073   4.070   0.355 -1.6455 -0.8719  0.5595
 3089SOL    HW210049   3.179   4.001   0.439 -1.4164 -0.1311  0.8876
 3090SOL     OW10050   3.198   2.127   2.039  0.3165  0.1084 -0.4154
 3090SOL    HW110051   3.262   2.056   2.044 -0.8573 -0.9417  0.3899
 3090SOL    HW210052   3.218   2.182   2.115 -0.2982 -0.7374  0.3786
 3091SOL     OW10053   3.227   6.268   5.963 -0.2584 -0.5921 -0.2624
 3091SOL    HW110054   3.266   6.181   5.964  1.8574  0.3006  0.9495
 3091SOL    HW210055   3.173   6.269   5.883 -1.5262 -3.4426  0.4326
 3092SOL     OW10056   2.310   5.958   1.068  0.3094 -0.2646  0.3741
 3092SOL    HW110057   2.334   6.015   0.994 -2.1150  1.5819  0.8903
 3092SOL    HW210058   2.390   5.907   1.085  1.8289  1.2175 -1.7210
 3093SOL     OW10059   7.622   4.894   5.313 -0.2525 -0.4260  0.1887
 3093SOL    HW110060   7.589   4.882   5.402 -2.6798  1.7653 -0.3145
 3093SOL    HW210061   7.559   4.848   5.258  1.8398 -2.7324 -0.4330
 3094SOL     OW10062   2.116   0.236   4.487 -0.1508 -0.3993 -0.5672
 3094SOL    HW110063   2.117   0.222   4.582 -0.9447 -0.2516 -0.5336
 3094SOL    HW210064   2.173   0.312   4.474  1.6344 -1.6481 -0.4370
 3095SOL     OW10065   3.311   6.919   6.827 -0.4198 -0.4920 -0.0624
 3095SOL    HW110066   3.280   6.843   6.776  0.6467 -1.4748  0.7294
 3095SOL    HW210067   3.349   6.881   6.906  1.6312  0.7549 -0.3996
 3096SOL     OW10068   0.579   0.572   5.347  0.0073  0.3192 -0.5758
 3096SOL    HW110069   0.522   0.609   5.280 -1.5352 -2.1580 -0.7505
 3096SOL    HW210070   0.615   0.493   5.307  1.8264  0.6422  0.3435
 3097SOL     OW10071   5.245   4.387   0.036 -0.3199 -0.3922 -0.1896
 3097SOL    HW110072   5.160   4.390  -0.008 -0.2409  0.2316 -0.3182
 3097SOL    HW210073   5.295   4.457  -0.006  0.1442 -0.5430  0.1116
 3098SOL     OW10074   4.403   1.855   0.375 -0.6961  0.2943  0.2318
 3098SOL    HW110075   4.349   1.792   0.328 -1.4360  0.1291  1.2691
 3098SOL    HW210076   4.341   1.921   0.406 -0.4425 -0.2695  2.0488
 3099SOL     OW10077   8.185   3.687   8.108 -0.3800  0.0470 -0.7790
 3099SOL    HW110078   8.170   3.637   8.189  1.3126 -0.8668 -0.9834
 3099SOL    HW210079   8.126   3.646   8.044 -0.8375 -0.0288 -0.3218
 3100SOL     OW10080   2.344   6.006   8.063 -0.2120 -0.1208  0.0604
 3100SOL    HW110081   2.357   6.010   8.157 -1.4158 -0.8104  0.2749
 3100SOL    HW210082   2.422   5.963   8.029  0.1716  0.0204  0.7468
 3101SOL     OW10083   6.507   7.213   1.411  0.4511 -0.7499 -0.0389
 3101SOL    HW110084   6.462   7.147   1.464  1.4862 -0.8204  0.8001
 3101SOL    HW210085   6.439   7.275   1.386  0.2040  0.4550  3.1619
 3102SOL     OW10086   1.813   1.935   3.943 -0.1502  0.0328 -0.3548
 3102SOL    HW110087   1.904   1.965   3.940  0.4082 -1.6000 -1.0456
 3102SOL    HW210088   1.804   1.879   3.866 -0.5178 -3.0186  1.7171
 3103SOL     OW10089   2.855   5.137   0.116 -0.2348  0.1143  0.1014
 3103SOL    HW110090   2.799   5.062   0.136 -0.9960  0.5212 -0.4141
 3103SOL    HW210091   2.840   5.198   0.188  0.5104 -0.2838  0.6060
 3104SOL     OW10092   0.907   6.977   1.400 -0.1456  0.6089  0.1256
 3104SOL    HW110093   0.823   7.021   1.412 -0.4566  0.0877 -0.1141
 3104SOL    HW210094   0.886   6.884   1.407  0.5397  0.5038  0.8429
 3105SOL     OW10095   0.668   4.887   5.391 -0.5827  0.3197  0.2220
 3105SOL    HW110096   0.606   4.837   5.338 -1.5890  1.7459 -0.0064
 3105SOL    HW210097   0.686   4.966   5.340  0.0574  0.7483  1.0711
 3106SOL     OW10098   8.018   6.019   4.920 -0.3796 -0.1904  0.5105
 3106SOL    HW110099   7.988   5.929   4.925 -0.7402 -0.2389 -1.6459
 3106SOL    HW210100   8.014   6.041   4.827  2.5326  1.0920  0.5731
 3107SOL     OW10101   7.116   1.651   1.885  0.0420  0.4015  0.0960
 3107SOL    HW110102   7.073   1.678   1.804 -1.0072 -0.4398  0.3477
 3107SOL    HW210103   7.209   1.667   1.869 -0.3238  2.0782 -0.5363
 3108SOL     OW10104   4.557   3.660   2.046  0.2120 -0.5169 -0.3862
 3108SOL    HW110105   4.469   3.671   2.081  0.3563  0.1133 -0.1993
 3108SOL    HW210106   4.615   3.676   2.122  0.5070  0.0869 -0.7303
 3109SOL     OW10107   6.430   1.414   2.978 -0.6668  0.6371  0.1848
 3109SOL    HW110108   6.446   1.320   2.972 -0.8653  0.5015  1.4510
 3109SOL    HW210109   6.511   1.450   3.014 -0.5359  0.9845 -0.4341
 3110SOL     OW10110   8.010   7.800   5.606 -0.2353  0.7064 -0.0441
 3110SOL    HW110111   8.095   7.818   5.566 -0.4036  0.9241 -0.3087
 3110SOL    HW210112   7.950   7.793   5.532 -1.3877  5.1806  0.2195
 3111SOL     OW10113   5.779   4.488   4.782  0.0526  0.5444 -0.0466
 3111SOL    HW110114   5.725   4.418   4.819  0.1732 -0.5222 -1.7810
 3111SOL    HW210115   5.837   4.444   4.719  1.0639  2.0296 -0.2176
 3112SOL     OW10116   0.531   6.198   6.216 -0.8823 -0.5022  0.0053
 3112SOL    HW110117   0.565   6.141   6.146 -0.5932  0.5640 -0.7507
 3112SOL    HW210118   0.436   6.188   6.210 -0.9198  0.3977 -1.2861
 3113SOL     OW10119   4.359   1.839   6.434  0.0794  0.1914 -0.0166
 3113SOL    HW110120   4.431   1.778   6.448 -0.4825 -0.2536  1.0541
 3113SOL    HW210121   4.331   1.864   6.522 -0.8027  0.6803 -0.4240
 3114SOL     OW10122   6.234   5.290   3.418  0.1679  0.4645 -0.0089
 3114SOL    HW110123   6.284   5.334   3.487 -0.4729  1.2848 -0.0497
 3114SOL    HW210124   6.186   5.221   3.463  1.0628 -0.1174  0.0836
 3115SOL     OW10125   4.884   7.600   1.209 -0.2667 -0.5820  0.5183
 3115SOL    HW110126   4.921   7.593   1.297  0.6288 -0.0445  0.2037
 3115SOL    HW210127   4.919   7.682   1.175 -0.6210 -0.7705 -0.3292
 3116SOL     OW10128   2.064   2.349   5.243 -0.5000 -0.4399 -0.1175
 3116SOL    HW110129   2.113   2.349   5.161 -1.2531  0.5114 -0.5764
 3116SOL    HW210130   1.997   2.416   5.232  1.3075  2.0060  2.3950
 3117SOL     OW10131   1.451   2.061   1.189  0.2648  0.4389  0.4834
 3117SOL    HW110132   1.511   2.119   1.142 -0.1020  0.1777 -0.3300
 3117SOL    HW210133   1.364   2.100   1.175  0.1753  0.5064  1.1816
 3118SOL     OW10134   4.477   4.335   5.816  0.1947 -0.0232  0.4738
 3118SOL    HW110135   4.478   4.399   5.745 -1.2233  1.7196  1.9282
 3118SOL    HW210136   4.562   4.345   5.859 -0.7462  2.4997  1.9551
 3119SOL     OW10137   5.133   7.504   0.200  0.3569  0.0535 -0.8058
 3119SOL    HW110138   5.149   7.410   0.194  2.5287  0.4077 -1.2462
 3119SOL    HW210139   5.208   7.538   0.249  0.5382  1.7737 -2.1804
 3120SOL     OW10140   3.600   3.256   2.157 -0.1467 -0.1096 -0.2972
 3120SOL    HW110141   3.674   3.293   2.109 -1.8212  1.9514 -1.4745
 3120SOL    HW210142   3.612   3.287   2.247  0.1064  0.7476 -0.6148
 3121SOL     OW10143   4.916   6.264   3.695 -0.1343 -0.7177 -0.1522
 3121SOL    HW110144   4.860   6.259   3.617  0.3270  0.1641 -0.5484
 3121SOL    HW210145   4.871   6.209   3.759 -2.2734  1.0614  0.0287
 3122SOL     OW10146   0.970   3.147   0.320 -0.0387  0.6858 -0.5260
 3122SOL    HW110147   0.916   3.182   0.391 -0.9670 -0.1774 -0.7838
 3122SOL    HW210148   1.055   3.131   0.361 -0.8385 -0.7534  0.6917
 3123SOL     OW10149   2.356   0.556   3.025 -0.0591 -0.5698 -0.1570
 3123SOL    HW110150   2.434   0.560   3.081 -0.0598  1.0216 -0.2246
 3123SOL    HW210151   2.289   0.515   3.080  0.3897 -0.5283  0.4338
 3124SOL     OW10152   2.186   5.531   0.256  0.2507 -0.4541  1.2937
 3124SOL    HW110153   2.240   5.482   0.194 -0.7199 -1.3014  1.0852
 3124SOL    HW210154   2.137   5.464   0.303 -0.6645  0.2942  1.4335
 3125SOL     OW10155   3.807   8.271   0.207  0.0942  0.0891 -0.3408
 3125SOL    HW110156   3.832   8.328   0.280 -0.9505  1.4114 -0.9624
 3125SOL    HW210157   3.718   8.299   0.185  0.4683 -0.1161 -2.2821
 3126SOL     OW10158   3.730   2.447   5.997  0.2668  0.1139 -0.0960
 3126SOL    HW110159   3.730   2.541   6.012 -0.1893 -0.0451  0.9702
 3126SOL    HW210160   3.822   2.425   5.981  0.3780  0.7269 -0.3132
 3127SOL     OW10161   1.868   1.247   4.116  0.5371 -0.3250  0.2658
 3127SOL    HW110162   1.863   1.334   4.156  2.4199 -0.1482  0.2155
 3127SOL    HW210163   1.779   1.229   4.087 -0.5505  0.2606  2.9682
 3128SOL     OW10164   3.609   0.890   5.004 -0.9157 -0.5000 -0.4236
 3128SOL    HW110165   3.556   0.820   5.044  0.2432 -0.1687  1.8598
 3128SOL    HW210166   3.638   0.853   4.921 -0.1879 -2.8622  0.7762
 3129SOL     OW10167   5.525   1.493   1.712 -0.1063  0.1888 -0.2189
 3129SOL    HW110168   5.480   1.553   1.653  0.3946  0.3973 -0.3922
 3129SOL    HW210169   5.538   1.543   1.792 -1.8296 -0.4602  0.5221
 3130SOL     OW10170   5.034   7.813   1.099 -0.1503  0.0726 -0.0413
 3130SOL    HW110171   5.035   7.908   1.095 -0.6325  0.1159  0.6934
 3130SOL    HW210172   5.113   7.790   1.149  1.2138 -0.0485 -2.1255
 3131SOL     OW10173   5.027   6.627   1.143 -0.0441  0.7678 -0.1219
 3131SOL    HW110174   5.071   6.659   1.222  2.6998 -0.2931 -1.1198
 3131SOL    HW210175   4.979   6.549   1.173  1.4298  0.0402  0.4558
 3132SOL     OW10176   1.953   0.311   7.651 -0.1251  0.1410  0.0681
 3132SOL    HW110177   1.955   0.299   7.745 -0.3635  1.5300  0.2696
 3132SOL    HW210178   1.989   0.229   7.615  0.2187 -0.2883  1.3522
 3133SOL     OW10179   5.172   2.151   7.295 -0.4303  0.0800 -0.2119
 3133SOL    HW110180   5.242   2.086   7.295  0.0968  0.6260  0.8159
 3133SOL    HW210181   5.095   2.103   7.265 -0.0557 -1.0328  0.5213
 3134SOL     OW10182   6.972   4.139   4.320  0.3027 -0.9562  0.5125
 3134SOL    HW110183   6.904   4.139   4.252  0.2618 -0.9953  0.5533
 3134SOL    HW210184   6.953   4.218   4.372 -0.5886 -1.7167  1.3940
 3135SOL     OW10185   4.301   8.174   5.521 -0.2150  0.8843 -0.1657
 3135SOL    HW110186   4.354   8.182   5.600 -0.1814  0.8236 -0.1820
 3135SOL    HW210187   4.215   8.148   5.552 -0.0936  0.4665 -0.1822
 3136SOL     OW10188   2.830   3.616   7.981  0.0989  0.2645 -0.3031
 3136SOL    HW110189   2.811   3.695   8.031 -0.3638 -0.0569  0.0424
 3136SOL    HW210190   2.753   3.560   7.995  0.4465 -0.2664 -0.4962
 3137SOL     OW10191   0.035   1.652   6.026 -0.3222  0.2832  0.1605
 3137SOL    HW110192   0.116   1.682   6.067 -0.7378 -0.2621  1.4342
 3137SOL    HW210193   0.062   1.579   5.971  0.3572  1.4975 -1.1707
 3138SOL     OW10194   7.099   1.506   6.777 -0.9419  0.3899 -0.1511
 3138SOL    HW110195   7.034   1.569   6.808  1.1689  2.1662  0.9878
 3138SOL    HW210196   7.155   1.557   6.718  0.8611 -0.3550  0.8447
 3139SOL     OW10197   0.799   0.729   1.218  0.0015 -0.6411 -0.2094
 3139SOL    HW110198   0.743   0.651   1.215 -1.9225  0.6430  0.2571
 3139SOL    HW210199   0.801   0.753   1.311  0.5833 -0.1335 -0.3452
 3140SOL     OW10200   2.983   6.012   5.222 -0.6678 -0.4841  0.1281
 3140SOL    HW110201   3.025   6.050   5.299 -0.7210  0.4388 -0.2786
 3140SOL    HW210202   2.928   5.942   5.257 -2.6788  1.5353  1.2580
 3141SOL     OW10203   3.687   1.101   0.042 -0.0292 -0.1088  0.7494
 3141SOL    HW110204   3.694   1.014   0.002  0.0798 -0.6691  1.9673
 3141SOL    HW210205   3.698   1.086   0.136 -0.4691  1.1665  1.0234
 3142SOL     OW10206   2.452   7.190   7.727 -0.1753 -0.1440 -0.0049
 3142SOL    HW110207   2.401   7.269   7.712 -0.4390 -0.5819 -1.5477
 3142SOL    HW210208   2.536   7.207   7.684  0.3737 -0.0995  1.0385
 3143SOL     OW10209   0.484   2.559   5.137 -0.2119  0.1216  0.5283
 3143SOL    HW110210   0.533   2.616   5.197  0.5106  0.3381 -0.2545
 3143SOL    HW210211   0.401   2.605   5.123 -0.2982  0.1773  1.1794
 3144SOL     OW10212   7.971   3.011   5.929  0.0163 -0.2519  0.2038
 3144SOL    HW110213   7.882   3.043   5.915  0.1579  0.5906  1.0886
 3144SOL    HW210214   7.960   2.923   5.965 -0.3809 -1.3446 -2.3728
 3145SOL     OW10215   0.536   0.028   1.251  0.2128 -0.6122 -0.0757
 3145SOL    HW110216   0.600  -0.023   1.201  0.5791 -1.6885  1.4124
 3145SOL    HW210217   0.536  -0.013   1.337 -1.6609  0.0993  0.2995
 3146SOL     OW10218   3.690   1.402   1.002  0.1598  0.2685  0.1643
 3146SOL    HW110219   3.639   1.378   0.925 -0.2093 -0.1236  0.5278
 3146SOL    HW210220   3.750   1.469   0.971  0.3779 -0.2606 -0.5941
 3147SOL     OW10221   3.117   6.921   0.509  0.0320  0.3508  0.7678
 3147SOL    HW110222   3.191   6.864   0.485  0.5267  1.0243  0.6577
 3147SOL    HW210223   3.086   6.886   0.593  0.0551 -0.3354  0.4992
 3148SOL     OW10224   6.416   6.904   3.100  0.2547  0.4600 -0.5078
 3148SOL    HW110225   6.354   6.947   3.159  0.4832  0.1778 -0.0488
 3148SOL    HW210226   6.502   6.938   3.127  0.9476 -3.0354  2.5131
 3149SOL     OW10227   0.524   0.162   0.998  0.6004  0.1378  0.7574
 3149SOL    HW110228   0.523   0.157   1.094  0.2586  0.3165  0.7658
 3149SOL    HW210229   0.470   0.239   0.978  0.6510  0.0865  0.4191
 3150SOL     OW10230   4.379   6.236   5.686 -0.6762 -0.3445 -0.0999
 3150SOL    HW110231   4.285   6.244   5.701 -1.0679 -2.8264 -0.7882
 3150SOL    HW210232   4.402   6.152   5.725  1.3779  0.3974  0.4102
 3151SOL     OW10233   0.345   0.990   2.120  0.1714 -0.0537 -0.5103
 3151SOL    HW110234   0.360   1.083   2.139  1.5772 -0.3468 -0.0474
 3151SOL    HW210235   0.365   0.946   2.202  1.4906 -0.9284 -1.2709
 3152SOL     OW10236   0.676   4.768   1.039 -0.8419  0.6838  0.0513
 3152SOL    HW110237   0.721   4.842   0.998  0.2723  0.0562  0.0853
 3152SOL    HW210238   0.587   4.799   1.055 -1.1165  1.1994 -2.1615
 3153SOL     OW10239   6.621   5.054   7.860  0.3452 -0.1730 -1.0090
 3153SOL    HW110240   6.539   5.067   7.813  1.3440 -0.5569 -2.9673
 3153SOL    HW210241   6.601   5.075   7.951 -1.1819  2.6959 -1.9149
 3154SOL     OW10242   2.541   4.510   1.921 -0.4296  0.5246  0.0407
 3154SOL    HW110243   2.541   4.441   1.987 -1.5006  0.8549  0.4018
 3154SOL    HW210244   2.569   4.589   1.967 -0.1014  0.5338 -0.1650
 3155SOL     OW10245   3.124   3.862   5.299  0.3187  0.3297  1.0022
 3155SOL    HW110246   3.095   3.892   5.213  0.2862 -0.5627  0.6934
 3155SOL    HW210247   3.109   3.768   5.298 -0.2595  0.3896  2.2164
 3156SOL     OW10248   0.843   7.932   5.547  0.3854 -0.1707  0.4367
 3156SOL    HW110249   0.814   7.885   5.469  3.4058 -1.7157  0.1066
 3156SOL    HW210250   0.794   7.893   5.619  1.4116 -2.5775 -0.0821
 3157SOL     OW10251   0.937   6.503   1.504  0.2067  0.1265  0.6930
 3157SOL    HW110252   0.926   6.477   1.413 -0.7526  0.1493  0.7904
 3157SOL    HW210253   0.900   6.431   1.555  0.3518  0.3008  1.0526
 3158SOL     OW10254   5.869   8.183   7.349 -0.6335 -0.0212 -0.1846
 3158SOL    HW110255   5.820   8.110   7.386 -0.7531  0.6105  0.9584
 3158SOL    HW210256   5.840   8.259   7.400  1.1872  0.4510  0.2043
 3159SOL     OW10257   3.637   4.638   6.494 -0.0358  0.2663 -0.4967
 3159SOL    HW110258   3.576   4.564   6.496  1.6703 -1.2183  1.3636
 3159SOL    HW210259   3.586   4.712   6.527 -0.7157 -1.1108  1.7715
 3160SOL     OW10260   3.640   2.707   0.178 -0.3685 -0.3411  0.4893
 3160SOL    HW110261   3.727   2.686   0.144 -0.7409  1.1335 -1.5258
 3160SOL    HW210262   3.655   2.727   0.271  1.2698 -1.0192  0.4058
 3161SOL     OW10263   1.185   1.160   6.451 -0.0126 -0.3499  0.5951
 3161SOL    HW110264   1.218   1.153   6.362  0.9410 -0.5299  0.9510
 3161SOL    HW210265   1.138   1.078   6.466 -0.2155 -0.2988  0.2488
 3162SOL     OW10266   5.243   2.373   2.801 -0.7008 -0.4192  0.3541
 3162SOL    HW110267   5.289   2.441   2.851 -3.4877  0.5511  1.7819
 3162SOL    HW210268   5.211   2.419   2.723  0.0877 -0.9186 -0.2776
 3163SOL     OW10269   3.283   0.874   1.085  0.4321 -0.0603 -0.3391
 3163SOL    HW110270   3.364   0.860   1.134  0.5567  1.3660 -0.0800
 3163SOL    HW210271   3.267   0.968   1.092 -2.3010 -0.5187  1.3150
 3164SOL     OW10272   2.374   1.317   4.119  0.2423  0.1356 -0.1967
 3164SOL    HW110273   2.447   1.369   4.086  0.4209 -0.0069 -0.0304
 3164SOL    HW210274   2.299   1.377   4.120  0.5826  0.5654  0.5672
 3165SOL     OW10275   7.719   5.599   1.472  0.3045 -0.3768 -0.5114
 3165SOL    HW110276   7.683   5.514   1.497 -0.6080  0.2459  0.4111
 3165SOL    HW210277   7.801   5.579   1.428  0.3222 -1.7106  0.0866
 3166SOL     OW10278   5.072   5.442   0.846  0.3922  0.0546  0.6658
 3166SOL    HW110279   5.023   5.383   0.903 -1.3581 -0.9778 -1.7432
 3166SOL    HW210280   5.118   5.385   0.785  0.0868  1.1105 -0.6099
 3167SOL     OW10281   4.070   4.055   6.212 -0.1112  0.2176 -0.2707
 3167SOL    HW110282   4.085   4.139   6.256  0.1543 -0.0771  0.2044
 3167SOL    HW210283   4.025   4.002   6.278 -0.6220  0.1111 -0.6982
 3168SOL     OW10284   7.286   6.571   2.632  0.0422 -0.5282 -0.7260
 3168SOL    HW110285   7.193   6.589   2.649 -0.0384 -0.8929 -0.7724
 3168SOL    HW210286   7.294   6.579   2.537  0.6883  2.4422 -0.5241
 3169SOL     OW10287   5.760   8.183   6.503 -0.0496 -0.1300 -0.1123
 3169SOL    HW110288   5.700   8.257   6.496 -0.5625 -0.5207  0.1619
 3169SOL    HW210289   5.795   8.189   6.592 -2.2193 -1.8283  0.9330
 3170SOL     OW10290   0.238   7.649   0.363 -0.9315  0.6870  0.1995
 3170SOL    HW110291   0.261   7.594   0.288 -1.3338  0.6197  0.1256
 3170SOL    HW210292   0.307   7.631   0.428 -0.5013  0.8581 -0.2073
 3171SOL     OW10293   1.750   1.465   3.463 -0.2335 -0.4000 -0.3116
 3171SOL    HW110294   1.821   1.402   3.476 -0.1717  0.2297  3.5075
 3171SOL    HW210295   1.683   1.438   3.525 -0.2031  3.1650  1.5010
 3172SOL     OW10296   0.601   5.092   2.206 -0.5377  0.1271  0.0272
 3172SOL    HW110297   0.676   5.033   2.207 -0.9081 -0.5282 -2.6058
 3172SOL    HW210298   0.552   5.069   2.285  0.8265 -1.0587  0.5769
 3173SOL     OW10299   2.550   0.747   8.276  0.0381  0.3277 -0.0016
 3173SOL    HW110300   2.522   0.665   8.317  0.9650  0.6713  1.3928
 3173SOL    HW210301   2.469   0.796   8.262 -0.2919  0.5557  2.3052
 3174SOL     OW10302   3.137   2.608   2.347  0.9026 -0.2034  0.0468
 3174SOL    HW110303   3.224   2.621   2.385  1.5514  0.5346 -1.6199
 3174SOL    HW210304   3.076   2.625   2.420  2.0822  1.3406  0.7294
 3175SOL     OW10305   2.489   2.468   2.713  0.0099  0.1643  0.0198
 3175SOL    HW110306   2.423   2.398   2.720  0.0793  0.0878 -0.0847
 3175SOL    HW210307   2.477   2.520   2.792 -1.6889  1.4700 -1.0272
 3176SOL     OW10308   5.051   3.545   1.318  0.4375  0.2818 -0.3185
 3176SOL    HW110309   4.981   3.486   1.292 -1.1340  1.8625  0.1698
 3176SOL    HW210310   5.074   3.593   1.239 -1.0801  1.7821  0.1020
 3177SOL     OW10311   3.109   5.968   1.300 -0.3106  0.6104  0.1097
 3177SOL    HW110312   3.161   5.959   1.221  1.9386  1.3770  1.3896
 3177SOL    HW210313   3.130   5.890   1.352 -1.6528  0.1762  0.0237
 3178SOL     OW10314   7.057   0.773   0.412  0.1907  0.1207 -0.7258
 3178SOL    HW110315   7.033   0.688   0.376 -0.4425  0.5796 -1.4008
 3178SOL    HW210316   7.142   0.758   0.454 -0.6812 -1.2251  0.6363
 3179SOL     OW10317   2.003   7.910   2.628 -0.0555 -0.2836 -0.7144
 3179SOL    HW110318   2.050   7.886   2.708 -2.5790  0.3562  1.0977
 3179SOL    HW210319   1.966   7.827   2.596 -0.2106 -0.3509 -0.3709
 3180SOL     OW10320   4.384   3.060   1.216 -0.5832  0.5804 -0.4955
 3180SOL    HW110321   4.317   2.996   1.193  0.1542  0.1707 -1.5745
 3180SOL    HW210322   4.378   3.127   1.148  1.1386 -0.2708 -1.5324
 3181SOL     OW10323   1.219   3.157   3.526 -0.0269 -0.0852 -0.1664
 3181SOL    HW110324   1.190   3.143   3.436  0.4224 -0.3703 -0.2692
 3181SOL    HW210325   1.292   3.096   3.538  0.5591  0.6417  0.0700
 3182SOL     OW10326   5.064   6.003   5.578 -0.4055  0.4385  0.1377
 3182SOL    HW110327   5.061   6.097   5.594  0.3613  0.0687  3.0062
 3182SOL    HW210328   5.156   5.985   5.556 -0.3241  0.2433  0.6217
 3183SOL     OW10329   2.285   0.666   6.926  0.4316  0.3308  0.2171
 3183SOL    HW110330   2.249   0.754   6.932  0.6561  0.4247  0.2229
 3183SOL    HW210331   2.330   0.665   6.841 -0.6634 -0.1970 -0.3794
 3184SOL     OW10332   7.420   7.364   1.730 -0.1836  0.3366 -0.5032
 3184SOL    HW110333   7.341   7.415   1.749 -3.0578 -2.5403 -3.4205
 3184SOL    HW210334   7.429   7.370   1.635  1.7982 -1.2348 -0.4720
 3185SOL     OW10335   6.925   3.240   5.958 -0.2907 -0.5674  0.5824
 3185SOL    HW110336   6.935   3.146   5.972 -0.6600 -0.9324 -1.2968
 3185SOL    HW210337   6.939   3.279   6.044  0.0408 -2.3221  1.3660
 3186SOL     OW10338   6.547   6.153   5.429 -0.1284 -0.1548 -0.1329
 3186SOL    HW110339   6.513   6.185   5.346  2.5200 -0.4247 -1.4070
 3186SOL    HW210340   6.592   6.072   5.407  0.0510 -0.5902  1.6899
 3187SOL     OW10341   1.393   1.012   5.001 -0.0813  0.2922 -0.2014
 3187SOL    HW110342   1.398   1.087   5.059  3.4902  0.4900 -0.4973
 3187SOL    HW210343   1.338   0.949   5.046 -1.0835  2.1252  1.2333
 3188SOL     OW10344   6.657   5.880   6.261  0.6706 -0.6545  0.3400
 3188SOL    HW110345   6.734   5.934   6.280 -0.2901  1.2849 -0.8794
 3188SOL    HW210346   6.670   5.852   6.171  0.2540 -0.8674  0.3466
 3189SOL     OW10347   1.249   6.000   2.890  0.3894  0.1342  0.2926
 3189SOL    HW110348   1.167   6.048   2.900 -0.2427 -0.2427 -2.2770
 3189SOL    HW210349   1.288   6.035   2.809  2.9322  0.4591  1.5314
 3190SOL     OW10350   3.976   0.654   0.752  0.6975 -0.2019  0.3864
 3190SOL    HW110351   4.060   0.615   0.776  0.4661  0.1774  1.9543
 3190SOL    HW210352   3.915   0.620   0.817 -0.1552  0.3077 -0.1345
 3191SOL     OW10353   1.809   1.577   0.666 -0.1093  0.2147  0.7459
 3191SOL    HW110354   1.826   1.533   0.583 -0.5471  0.9169  0.2785
 3191SOL    HW210355   1.881   1.548   0.723  0.1976 -0.2687  0.1309
 3192SOL     OW10356   6.743   3.981   6.839  0.3336  0.0690  0.5717
 3192SOL    HW110357   6.683   4.041   6.795 -0.1275  0.2418  1.4195
 3192SOL    HW210358   6.820   3.977   6.782 -0.5013 -0.2181 -0.5762
 3193SOL     OW10359   4.939   0.267   7.607 -0.2055  0.0536 -0.5815
 3193SOL    HW110360   4.918   0.215   7.684 -0.9970  1.0159 -0.1133
 3193SOL    HW210361   5.018   0.316   7.631  3.1196 -3.8211 -2.4653
 3194SOL     OW10362   2.540   7.847   2.776 -0.0067  0.2016  0.5629
 3194SOL    HW110363   2.616   7.892   2.740 -0.6948  1.1277  0.2377
 3194SOL    HW210364   2.570   7.757   2.792  0.4474 -0.1795 -2.0077
 3195SOL     OW10365   4.476   1.811   3.478  0.3818  0.0659 -0.5936
 3195SOL    HW110366   4.407   1.870   3.507  0.8424  0.3661 -0.0713
 3195SOL    HW210367   4.431   1.740   3.433 -0.2161  0.5628 -0.7877
 3196SOL     OW10368   5.969   6.030   7.395 -0.0327 -0.1680  0.3767
 3196SOL    HW110369   6.019   6.107   7.366 -0.2071 -0.2992 -0.2826
 3196SOL    HW210370   5.882   6.063   7.415  0.3442  0.0959  1.7098
 3197SOL     OW10371   6.007   3.290   4.210 -0.1053  0.1021  0.1014
 3197SOL    HW110372   6.080   3.295   4.272  0.1382  0.2702 -0.1965
 3197SOL    HW210373   6.007   3.199   4.181  0.0318  0.1190  0.0477
 3198SOL     OW10374   3.077   2.714   5.793  0.2955  0.8332 -0.0828
 3198SOL    HW110375   3.129   2.740   5.869 -1.4574 -0.5269  1.6921
 3198SOL    HW210376   3.000   2.771   5.797  0.2808  0.8955 -0.9962
 3199SOL     OW10377   3.926   3.174   3.742 -0.2591 -0.4509  0.1952
 3199SOL    HW110378   3.974   3.131   3.671  0.9516  1.4957 -0.2205
 3199SOL    HW210379   3.966   3.140   3.822  0.8068  0.0328 -0.1232
 3200SOL     OW10380   2.371   7.620   6.956 -0.0015 -0.1975 -0.0108
 3200SOL    HW110381   2.400   7.621   6.865  1.3662  1.0176  0.3859
 3200SOL    HW210382   2.277   7.637   6.953  0.2707  1.3461 -1.1592
 3201SOL     OW10383   7.029   2.095   2.189 -0.0649  0.6450 -0.0652
 3201SOL    HW110384   7.068   2.056   2.267  0.6297  0.1822 -0.6328
 3201SOL    HW210385   7.050   2.034   2.119 -0.1480  1.3621 -0.7224
 3202SOL     OW10386   7.497   3.220   5.139 -0.1334  0.4554 -0.1837
 3202SOL    HW110387   7.443   3.299   5.143 -1.2050  0.0200 -3.4056
 3202SOL    HW210388   7.563   3.240   5.073 -0.4340 -1.3192 -1.0673
 3203SOL     OW10389   6.648   3.203   5.208  0.5216 -0.5010 -0.6548
 3203SOL    HW110390   6.633   3.231   5.298  0.1821 -0.3998 -0.7437
 3203SOL    HW210391   6.713   3.265   5.174 -0.9700  0.8442 -1.1764
 3204SOL     OW10392   7.971   3.945   7.965  0.1059 -0.2615 -0.1381
 3204SOL    HW110393   7.959   4.008   7.894  0.1732 -1.6792 -1.4669
 3204SOL    HW210394   7.882   3.917   7.987  0.1577 -0.8186 -0.6179
 3205SOL     OW10395   6.562   1.321   0.342 -0.6162 -0.1761  0.2334
 3205SOL    HW110396   6.621   1.305   0.416 -1.2670  0.1105  0.8303
 3205SOL    HW210397   6.492   1.374   0.379 -1.4308 -0.7999 -0.3738
 3206SOL     OW10398   5.430   2.112   3.663 -0.4913  0.0031  0.0991
 3206SOL    HW110399   5.418   2.183   3.600 -0.3228 -0.0650 -0.0101
 3206SOL    HW210400   5.391   2.036   3.621  1.2636 -0.4887 -0.7489
 3207SOL     OW10401   6.233   4.057   6.734 -0.1722 -0.6832 -0.1355
 3207SOL    HW110402   6.261   4.146   6.710 -1.7661 -0.0811  0.0628
 3207SOL    HW210403   6.164   4.071   6.799 -1.2381 -2.0228 -0.9260
 3208SOL     OW10404   1.302   6.411   4.306 -0.0413  0.1400  0.6087
 3208SOL    HW110405   1.394   6.412   4.280 -0.0447 -1.0530  0.5100
 3208SOL    HW210406   1.254   6.436   4.227  0.2085  1.1350  0.7622
 3209SOL     OW10407   4.592   2.550   4.283 -0.3553 -0.3548 -0.2773
 3209SOL    HW110408   4.513   2.507   4.249  0.4136 -1.0997 -1.1691
 3209SOL    HW210409   4.631   2.591   4.206  0.1502 -0.0197  0.1571
 3210SOL     OW10410   1.336   6.116   8.049 -0.7111 -0.0678 -0.1980
 3210SOL    HW110411   1.290   6.162   7.979  0.3627  1.0690 -0.1872
 3210SOL    HW210412   1.306   6.025   8.042 -2.7241  0.5648 -0.3535
 3211SOL     OW10413   8.284   8.098   5.951  0.2780  0.1075  0.8491
 3211SOL    HW110414   8.243   8.027   6.001  0.5599  0.3532  1.4347
 3211SOL    HW210415   8.344   8.139   6.013  0.0587  0.9121  0.5344
 3212SOL     OW10416   3.193   7.322   5.632 -0.2468 -0.0901  0.4958
 3212SOL    HW110417   3.255   7.274   5.577 -0.7278  1.8523 -1.8893
 3212SOL    HW210418   3.114   7.268   5.631  0.1672 -0.7104  0.3975
 3213SOL     OW10419   4.770   7.178   3.041  0.2610 -0.5564 -0.3615
 3213SOL    HW110420   4.780   7.120   2.966 -1.2916 -1.0088 -0.2640
 3213SOL    HW210421   4.735   7.122   3.111  0.6293  0.0846  0.3530
 3214SOL     OW10422   4.680   2.595   6.467 -0.2544  0.3718  0.0532
 3214SOL    HW110423   4.687   2.533   6.539 -0.9336 -1.3263 -1.2677
 3214SOL    HW210424   4.596   2.640   6.481 -0.0565  0.5507  0.6787
 3215SOL     OW10425   4.610   4.841   1.386 -0.3988  0.3369 -0.0202
 3215SOL    HW110426   4.514   4.837   1.377 -0.3257 -1.2922 -0.4494
 3215SOL    HW210427   4.627   4.819   1.477 -0.4868  2.5702  0.5855
 3216SOL     OW10428   4.216   1.475   1.784  0.2107 -0.4137  0.4235
 3216SOL    HW110429   4.128   1.439   1.789  0.0528 -0.3201 -1.3237
 3216SOL    HW210430   4.205   1.568   1.803 -0.2596 -0.1771 -0.9256
 3217SOL     OW10431   7.943   1.781   3.248  0.3745  0.5566  0.7056
 3217SOL    HW110432   7.903   1.698   3.273  0.1260  1.0324  1.9509
 3217SOL    HW210433   7.930   1.838   3.324  3.5004  0.6990  1.2695
 3218SOL     OW10434   1.881   0.074   5.209  0.1546 -0.2392  0.1412
 3218SOL    HW110435   1.800   0.067   5.158 -0.0499  1.7918  0.1036
 3218SOL    HW210436   1.950   0.049   5.148 -0.2522  0.3578 -0.5780
 3219SOL     OW10437   1.124   8.089   1.338  0.9044  0.2794  0.4096
 3219SOL    HW110438   1.198   8.049   1.382  1.6949 -0.1421 -1.2145
 3219SOL    HW210439   1.156   8.176   1.312  0.8424  0.0937 -0.3044
 3220SOL     OW10440   4.673   7.756   3.085 -0.3714  0.1358 -0.4348
 3220SOL    HW110441   4.578   7.747   3.093 -0.6802  2.3022 -0.8111
 3220SOL    HW210442   4.688   7.851   3.089  1.6648 -0.0785 -1.5382
 3221SOL     OW10443   6.823   3.814   3.942 -0.3404  0.5524  0.2498
 3221SOL    HW110444   6.852   3.723   3.948 -1.1940  0.2567  0.0207
 3221SOL    HW210445   6.775   3.829   4.023 -0.9643  0.5145 -0.1067
 3222SOL     OW10446   3.453   0.594   1.999 -0.4155  0.1930 -0.1108
 3222SOL    HW110447   3.398   0.618   2.073 -0.8920  1.3769 -0.8129
 3222SOL    HW210448   3.391   0.576   1.928 -0.1159 -3.4836  0.3826
 3223SOL     OW10449   7.584   2.732   2.298 -0.1992  0.3062  0.1569
 3223SOL    HW110450   7.528   2.787   2.354 -0.0928 -0.1525  0.7222
 3223SOL    HW210451   7.597   2.784   2.219 -0.6236  0.8304  0.4259
 3224SOL     OW10452   3.615   3.641   5.773 -0.1445  0.1818  0.1822
 3224SOL    HW110453   3.552   3.674   5.837 -1.2650  0.4105 -0.9738
 3224SOL    HW210454   3.627   3.549   5.796 -0.5360  0.2585  0.7091
 3225SOL     OW10455   0.064   2.771   0.298 -0.1767  0.5859  0.1524
 3225SOL    HW110456   0.055   2.707   0.227 -0.6612  0.8156 -0.0058
 3225SOL    HW210457   0.026   2.851   0.261  0.7214  1.0546  0.2312
 3226SOL     OW10458   7.379   4.937   3.144  0.3844  0.0400 -0.0877
 3226SOL    HW110459   7.384   4.882   3.066  0.4045  0.3471 -0.3036
 3226SOL    HW210460   7.469   4.966   3.160  0.3489  0.1407 -0.0675
 3227SOL     OW10461   6.378   3.712   6.911 -0.0957 -0.0211  0.3293
 3227SOL    HW110462   6.326   3.659   6.972  0.7256 -0.7036  0.4448
 3227SOL    HW210463   6.459   3.731   6.958 -0.4186  1.4696  0.3366
 3228SOL     OW10464   2.721   4.623   7.916 -0.1503  0.2142 -0.1930
 3228SOL    HW110465   2.802   4.669   7.893 -0.2578  0.2514 -0.4956
 3228SOL    HW210466   2.651   4.678   7.882 -0.2366 -1.1737 -2.4645
 3229SOL     OW10467   6.047   1.480   6.690  0.1628  0.2508  0.0447
 3229SOL    HW110468   5.958   1.501   6.717 -0.1699 -1.0104 -0.0214
 3229SOL    HW210469   6.087   1.442   6.768 -0.1463 -1.4558 -0.5874
 3230SOL     OW10470   7.447   2.825   6.806  0.0103  0.6075  0.2497
 3230SOL    HW110471   7.515   2.759   6.819 -1.8156 -1.6521 -1.0424
 3230SOL    HW210472   7.378   2.802   6.869 -0.6050  1.3644 -0.1249
 3231SOL     OW10473   3.955   4.723   5.659  0.0323  0.0598  0.2824
 3231SOL    HW110474   4.045   4.730   5.691  0.9055 -1.7431 -1.5377
 3231SOL    HW210475   3.963   4.679   5.574 -2.4862  0.8655 -0.4602
 3232SOL     OW10476   4.877   3.754   6.940  0.5505 -0.8066  0.1131
 3232SOL    HW110477   4.885   3.741   7.035 -1.2732  0.6138  0.5334
 3232SOL    HW210478   4.857   3.668   6.905  1.2745 -1.3541  1.0223
 3233SOL     OW10479   5.917   6.937   7.106  0.1296  0.5193  0.4527
 3233SOL    HW110480   6.000   6.890   7.096 -1.1935 -1.7327 -0.7915
 3233SOL    HW210481   5.863   6.880   7.161 -1.0407  1.2835  0.1413
 3234SOL     OW10482   6.534   7.025   5.645 -0.3706 -0.0321  0.5348
 3234SOL    HW110483   6.606   7.008   5.707  0.0308  1.2435  0.4370
 3234SOL    HW210484   6.468   6.960   5.668  0.2611 -0.3539  1.5270
 3235SOL     OW10485   5.930   0.142   6.830 -0.0761 -0.3388  0.1348
 3235SOL    HW110486   5.874   0.205   6.874 -0.2185  0.1212 -0.6866
 3235SOL    HW210487   5.991   0.112   6.898 -1.2170 -0.7546  1.0014
 3236SOL     OW10488   1.237   0.497   3.549 -0.0810  0.3317  0.5667
 3236SOL    HW110489   1.229   0.583   3.508 -0.6148  0.4197  0.8523
 3236SOL    HW210490   1.296   0.449   3.491 -1.5493  0.1420 -0.8444
 3237SOL     OW10491   5.961   7.176   3.880  0.2266  0.4096 -0.1358
 3237SOL    HW110492   6.031   7.239   3.857  2.5258 -1.7554  0.4916
 3237SOL    HW210493   5.924   7.211   3.961  0.5495  1.6176 -0.4748
 3238SOL     OW10494   6.783   4.596   8.284 -0.8509  0.0362  0.2474
 3238SOL    HW110495   6.706   4.634   8.327 -0.5808 -0.5857  1.3311
 3238SOL    HW210496   6.816   4.665   8.227 -1.9298  0.4753  0.1340
 3239SOL     OW10497   5.965   6.141   7.009 -0.0457 -0.0707 -0.2367
 3239SOL    HW110498   5.887   6.100   7.044  0.6576 -1.6791 -0.4863
 3239SOL    HW210499   5.952   6.140   6.914 -0.3836  1.0886 -0.2267
 3240SOL     OW10500   2.633   6.242   5.717  0.3134  0.2618  0.7989
 3240SOL    HW110501   2.641   6.200   5.803  0.8698  0.7358  0.9886
 3240SOL    HW210502   2.543   6.275   5.715 -0.0500 -0.7208  0.7409
 3241SOL     OW10503   6.564   7.450   1.013  0.8994 -0.0599 -0.4389
 3241SOL    HW110504   6.648   7.407   1.029  0.2104 -0.8130  1.4968
 3241SOL    HW210505   6.503   7.378   0.997  0.3062  0.3653 -0.1460
 3242SOL     OW10506   7.837   4.376   7.333 -0.4035 -0.5922 -0.1729
 3242SOL    HW110507   7.864   4.405   7.246  1.3647  0.5151  0.6797
 3242SOL    HW210508   7.846   4.454   7.388 -3.7278 -0.6170  0.6251
 3243SOL     OW10509   1.642   7.915   4.770  0.8076  0.2912  0.5007
 3243SOL    HW110510   1.652   7.984   4.704 -1.7979 -1.2542 -1.7253
 3243SOL    HW210511   1.599   7.959   4.844 -2.7327  0.8893 -1.6661
 3244SOL     OW10512   2.142   2.378   1.113  0.4394 -0.3112 -0.0493
 3244SOL    HW110513   2.156   2.284   1.101 -0.6315 -0.5095  0.1168
 3244SOL    HW210514   2.080   2.384   1.186  0.3174  0.5134 -0.2066
 3245SOL     OW10515   5.070   6.725   4.604  0.1118  0.4398  0.2326
 3245SOL    HW110516   5.127   6.791   4.642 -0.3974  0.0775  1.6922
 3245SOL    HW210517   5.044   6.670   4.678  0.8516 -1.6593 -0.9792
 3246SOL     OW10518   1.380   0.985   5.622 -0.3069 -0.7793 -0.4534
 3246SOL    HW110519   1.366   0.893   5.644 -2.1498 -1.0705 -2.4305
 3246SOL    HW210520   1.471   1.002   5.645  0.0371 -3.0561  0.1066
 3247SOL     OW10521   6.144   0.961   4.065  0.4205  0.5637 -0.3700
 3247SOL    HW110522   6.120   1.051   4.089  0.7421  1.0304 -1.6675
 3247SOL    HW210523   6.136   0.960   3.969 -1.6738 -1.4186 -0.2458
 3248SOL     OW10524   6.358   6.208   4.179 -0.1829  0.0358  0.3528
 3248SOL    HW110525   6.402   6.159   4.110  1.3421  2.3427 -0.4443
 3248SOL    HW210526   6.285   6.252   4.134 -0.2536  0.1678  0.5972
 3249SOL     OW10527   2.028   7.747   3.079  0.0597 -0.3200 -0.1656
 3249SOL    HW110528   1.968   7.820   3.092  0.8324  0.1833  0.7168
 3249SOL    HW210529   1.971   7.670   3.073 -0.7050  0.2245 -0.0542
 3250SOL     OW10530   5.868   5.774   0.631  0.3993 -1.1032 -1.0019
 3250SOL    HW110531   5.798   5.781   0.567  0.6508 -1.0360 -1.2744
 3250SOL    HW210532   5.917   5.856   0.621 -0.1388 -0.6526 -0.0288
 3251SOL     OW10533   6.402   0.643   6.868  0.4412 -0.2941  0.3635
 3251SOL    HW110534   6.336   0.598   6.921 -0.2883 -1.9953 -1.8048
 3251SOL    HW210535   6.474   0.581   6.861  0.6865  0.0481 -0.2655
 3252SOL     OW10536   3.793   2.759   0.491 -0.0927  0.1342  0.2966
 3252SOL    HW110537   3.868   2.817   0.497  1.4504 -1.6907 -0.5400
 3252SOL    HW210538   3.759   2.754   0.581 -0.5157  2.5561  0.3232
 3253SOL     OW10539   6.038   7.731   2.344  0.2440 -0.1971  0.5305
 3253SOL    HW110540   6.115   7.676   2.353  0.3579 -0.7375 -2.7650
 3253SOL    HW210541   5.973   7.676   2.302 -0.7410  1.2722  0.0363
 3254SOL     OW10542   2.193   3.749   5.551  0.2664 -0.1380  0.2634
 3254SOL    HW110543   2.277   3.795   5.552  0.2053 -0.0457  1.0523
 3254SOL    HW210544   2.193   3.695   5.630 -0.5463  0.1023  0.4391
 3255SOL     OW10545   7.155   7.052   4.572  0.4684 -0.1932 -0.1906
 3255SOL    HW110546   7.204   7.134   4.566  1.8141 -1.0509 -1.4382
 3255SOL    HW210547   7.195   7.005   4.645  0.0728 -0.0036  0.1561
 3256SOL     OW10548   0.853   4.175   4.862 -0.1926 -0.5430 -0.3842
 3256SOL    HW110549   0.934   4.200   4.816 -0.6709  0.9738 -0.4585
 3256SOL    HW210550   0.796   4.143   4.792  0.2964 -1.5677 -0.3394
 3257SOL     OW10551   2.518   6.529   0.567  0.4745 -0.1426 -0.0611
 3257SOL    HW110552   2.529   6.563   0.478  1.3004  0.2181  0.1717
 3257SOL    HW210553   2.471   6.599   0.614 -2.0839 -1.2408 -0.7676
 3258SOL     OW10554   0.316   0.123   7.421 -0.1703  0.0489  0.6041
 3258SOL    HW110555   0.269   0.206   7.419  1.7123  1.1623  0.2685
 3258SOL    HW210556   0.252   0.059   7.453 -1.0828  2.0054  2.9509
 3259SOL     OW10557   1.705   5.922   7.311 -0.2409 -0.2530  0.6982
 3259SOL    HW110558   1.709   6.014   7.336 -1.0608 -0.2612  0.9011
 3259SOL    HW210559   1.736   5.919   7.221 -1.2806  0.3926  0.3069
 3260SOL     OW10560   7.729   1.881   5.704  0.1173  0.5354  0.3950
 3260SOL    HW110561   7.661   1.844   5.759  0.7652 -1.4047 -0.0306
 3260SOL    HW210562   7.689   1.887   5.617 -0.0692  1.1541  0.5130
 3261SOL     OW10563   6.938   7.423   5.108  0.5641 -0.0542 -0.3420
 3261SOL    HW110564   6.950   7.483   5.181 -0.1372 -1.9057  1.3813
 3261SOL    HW210565   6.847   7.395   5.114  0.8651 -1.2958 -1.0489
 3262SOL     OW10566   2.441   7.223   1.763  0.2935  0.0520  0.5573
 3262SOL    HW110567   2.461   7.258   1.850  0.2809  1.1403  0.1403
 3262SOL    HW210568   2.465   7.294   1.703 -0.1780 -0.4941 -0.2928
 3263SOL     OW10569   6.078   3.668   1.239 -0.3726 -0.6310 -0.1689
 3263SOL    HW110570   5.999   3.615   1.248 -2.5124  2.5065  1.3027
 3263SOL    HW210571   6.065   3.718   1.159 -0.3701  0.5543  0.5416
 3264SOL     OW10572   5.040   2.361   2.986  0.4812  0.0102 -0.1399
 3264SOL    HW110573   5.119   2.363   2.932  0.0939  1.4076 -0.6961
 3264SOL    HW210574   5.023   2.453   3.006 -1.3725 -0.2002 -0.5943
 3265SOL     OW10575   7.292   1.669   3.436  0.4262  1.1141 -0.3546
 3265SOL    HW110576   7.314   1.692   3.526 -2.2002  1.4596  0.2836
 3265SOL    HW210577   7.280   1.574   3.436 -1.4493  1.3097  0.1900
 3266SOL     OW10578   6.245   7.280   4.583 -0.1967  0.3102 -0.4951
 3266SOL    HW110579   6.187   7.287   4.507  0.9612 -1.9819 -1.7102
 3266SOL    HW210580   6.239   7.188   4.609  0.8773  0.6332  1.0277
 3267SOL     OW10581   1.241   8.124   6.049  0.0919  0.2399 -0.2922
 3267SOL    HW110582   1.250   8.152   5.958 -1.8821  1.0455 -0.2827
 3267SOL    HW210583   1.331   8.124   6.083  0.9747 -0.8718 -2.4324
 3268SOL     OW10584   3.943   0.644   4.401 -0.0276 -0.0205 -0.7131
 3268SOL    HW110585   4.009   0.714   4.394  3.0517 -2.3577  1.9545
 3268SOL    HW210586   3.975   0.575   4.343 -0.6533 -0.8485 -0.0891
 3269SOL     OW10587   7.977   7.393   7.929 -0.1293 -0.4330  0.5198
 3269SOL    HW110588   7.952   7.304   7.906  2.6253 -1.9018  2.6019
 3269SOL    HW210589   8.030   7.423   7.856 -0.1896 -0.9105  0.2754
 3270SOL     OW10590   1.218   3.678   0.666 -0.2932 -0.1073  0.7618
 3270SOL    HW110591   1.251   3.690   0.576 -1.8061  0.4063  0.2392
 3270SOL    HW210592   1.220   3.583   0.679  0.4841 -0.1538  0.4139
 3271SOL     OW10593   0.003   7.193   6.565 -0.0861 -0.3130  0.4376
 3271SOL    HW110594   0.021   7.194   6.659  0.8454 -1.0076  0.2771
 3271SOL    HW210595   0.083   7.227   6.525 -0.8651  1.0339 -0.0694
 3272SOL     OW10596   4.085   5.564   8.198  0.6375 -0.1388  0.3494
 3272SOL    HW110597   4.088   5.471   8.173 -3.9677 -0.4895  0.2277
 3272SOL    HW210598   4.090   5.564   8.293  0.2544 -0.5823  0.3742
 3273SOL     OW10599   8.291   7.683   6.566 -0.0279 -0.8925 -0.7454
 3273SOL    HW110600   8.355   7.741   6.608 -0.2174 -0.4083 -1.1064
 3273SOL    HW210601   8.318   7.595   6.591  0.7019 -0.6899 -0.7900
 3274SOL     OW10602   3.575   1.701   1.155  0.4764 -0.9643 -0.1096
 3274SOL    HW110603   3.656   1.740   1.120  1.5737 -1.3436  1.8617
 3274SOL    HW210604   3.592   1.691   1.248 -2.5680  0.7109  0.7805
 3275SOL     OW10605   8.107   5.064   2.866  0.5476 -0.4850  0.4533
 3275SOL    HW110606   8.053   5.056   2.787  1.7312 -0.3111 -0.3977
 3275SOL    HW210607   8.062   5.010   2.931  0.0276 -1.3680 -0.6002
 3276SOL     OW10608   7.519   1.463   5.015  0.3733 -0.3079  0.1233
 3276SOL    HW110609   7.453   1.415   4.965  1.0132  0.1280 -1.1857
 3276SOL    HW210610   7.476   1.485   5.097 -1.9940  2.0751 -1.5970
 3277SOL     OW10611   3.084   1.046   6.135 -0.3006  0.2267 -0.6272
 3277SOL    HW110612   3.081   1.050   6.230  2.4544 -0.8577 -0.4006
 3277SOL    HW210613   3.048   0.960   6.113  0.2647 -0.0692 -0.4269
 3278SOL     OW10614   1.809   2.749   7.023 -0.5474  0.3655  0.9005
 3278SOL    HW110615   1.845   2.669   6.982 -2.5997  0.6170 -1.6416
 3278SOL    HW210616   1.776   2.719   7.107 -1.6043 -1.6248 -0.1349
 3279SOL     OW10617   6.375   7.800   2.096 -0.3466  0.7577  0.1921
 3279SOL    HW110618   6.347   7.843   2.177 -2.5585 -1.3848  0.6843
 3279SOL    HW210619   6.455   7.752   2.121 -2.2384 -1.7964  1.9238
 3280SOL     OW10620   7.880   5.210   5.151  0.4758  0.0397  0.6589
 3280SOL    HW110621   7.842   5.196   5.238  0.0157 -1.1283  0.2827
 3280SOL    HW210622   7.922   5.296   5.157  1.3555 -0.4571  2.3569
 3281SOL     OW10623   7.139   1.916   4.267 -0.7568  0.0391  0.3689
 3281SOL    HW110624   7.150   1.822   4.258 -1.5126  0.0652 -1.0421
 3281SOL    HW210625   7.046   1.928   4.287 -0.7009  0.4983  0.3759
 3282SOL     OW10626   0.485   6.575   5.801 -0.3790 -0.6463 -0.4848
 3282SOL    HW110627   0.532   6.585   5.883 -2.4767 -0.6508  0.7946
 3282SOL    HW210628   0.506   6.654   5.751 -0.3972  0.1704  0.7702
 3283SOL     OW10629   5.059   7.388   6.889  0.1792 -0.4728 -0.0245
 3283SOL    HW110630   5.035   7.471   6.929  0.1480 -0.2028 -0.5870
 3283SOL    HW210631   5.154   7.381   6.903  0.3488  0.1166 -0.7808
 3284SOL     OW10632   4.362   0.371   0.705  0.0375  0.0730 -0.4893
 3284SOL    HW110633   4.272   0.396   0.724  0.2290  0.9460 -0.6912
 3284SOL    HW210634   4.413   0.451   0.717  0.9391 -0.6202  0.5470
 3285SOL     OW10635   2.196   4.935   6.295 -0.3968 -0.1383  0.3582
 3285SOL    HW110636   2.217   4.985   6.375 -1.2877  0.9394 -0.0527
 3285SOL    HW210637   2.268   4.872   6.287  0.7762  1.0732  0.9055
 3286SOL     OW10638   4.730   5.063   3.133  0.2024 -0.4412 -0.1705
 3286SOL    HW110639   4.668   5.069   3.206 -1.0618 -0.6122 -1.1814
 3286SOL    HW210640   4.807   5.111   3.162 -0.6570  0.3348  0.9059
 3287SOL     OW10641   0.603   7.194   4.489  0.3886  0.0031  0.1269
 3287SOL    HW110642   0.650   7.233   4.416  1.2468 -1.7364 -0.3164
 3287SOL    HW210643   0.646   7.109   4.503 -1.2032 -0.6892  1.1731
 3288SOL     OW10644   3.684   8.039   1.516 -0.7542  0.2525  0.3946
 3288SOL    HW110645   3.610   8.099   1.513  0.8641  2.3997  0.6672
 3288SOL    HW210646   3.761   8.096   1.509  0.9142 -1.7003  1.6629
 3289SOL     OW10647   3.479   7.208   0.306 -0.0750 -0.4882 -0.3926
 3289SOL    HW110648   3.442   7.234   0.391 -0.3433  0.9055 -0.9141
 3289SOL    HW210649   3.538   7.135   0.327  0.1319  0.0595  1.0454
 3290SOL     OW10650   4.900   5.575   2.483  0.6545 -0.2400  0.1308
 3290SOL    HW110651   4.928   5.505   2.423 -0.7187 -0.2880 -0.5094
 3290SOL    HW210652   4.842   5.630   2.430 -0.6051 -0.2821  1.3929
 3291SOL     OW10653   7.321   6.497   4.842  0.0589 -0.1183  0.1526
 3291SOL    HW110654   7.390   6.451   4.794 -1.5259 -0.5781 -1.7945
 3291SOL    HW210655   7.352   6.587   4.848  1.4306 -0.5922  0.5501
 3292SOL     OW10656   1.039   7.336   4.073  0.0483 -0.1266  0.3834
 3292SOL    HW110657   0.982   7.406   4.040 -1.1170 -1.7816 -1.3016
 3292SOL    HW210658   1.110   7.331   4.009  1.8667  1.4748  2.1227
 3293SOL     OW10659   1.286   7.611   1.559  0.0270  0.3538 -0.1656
 3293SOL    HW110660   1.347   7.642   1.492  0.7347 -2.5289 -0.9832
 3293SOL    HW210661   1.332   7.621   1.642  1.5079 -1.3475 -0.7293
 3294SOL     OW10662   5.056   2.979   2.438 -0.0209  0.0354  0.2073
 3294SOL    HW110663   5.105   2.939   2.510  1.2794  0.5933 -0.3302
 3294SOL    HW210664   5.085   2.933   2.360 -0.7134  0.0656 -0.0758
 3295SOL     OW10665   2.370   0.102   3.310  0.9419 -0.4880 -0.0203
 3295SOL    HW110666   2.416   0.186   3.304 -0.2544  0.1828 -0.3708
 3295SOL    HW210667   2.415   0.054   3.380  1.5988  0.4799  0.2440
 3296SOL     OW10668   0.985   7.459   7.946  0.2737 -0.8658  0.4404
 3296SOL    HW110669   0.975   7.382   7.890  0.4644 -2.1027  2.0294
 3296SOL    HW210670   0.931   7.526   7.905  0.7457 -1.5781 -1.4409
 3297SOL     OW10671   4.310   8.119   7.386 -0.6818 -0.3255  0.0145
 3297SOL    HW110672   4.218   8.119   7.360 -0.6457  0.4543 -0.1350
 3297SOL    HW210673   4.321   8.036   7.434 -1.3894 -0.5510 -0.1943
 3298SOL     OW10674   5.711   8.248   4.485 -0.1119  0.2843  0.1544
 3298SOL    HW110675   5.794   8.284   4.514  0.9046  0.0768 -2.2342
 3298SOL    HW210676   5.710   8.159   4.519  0.0903  0.6562  1.1574
 3299SOL     OW10677   7.876   4.392   3.657  0.3974  0.1787 -0.3269
 3299SOL    HW110678   7.905   4.304   3.679 -1.3729  0.2366  2.8971
 3299SOL    HW210679   7.787   4.380   3.623  0.4513  0.6838 -0.6632
 3300SOL     OW10680   8.047   7.883   0.504  0.1970  0.2904  0.3419
 3300SOL    HW110681   8.132   7.842   0.487 -0.5323 -0.9038 -0.5016
 3300SOL    HW210682   8.004   7.886   0.419 -0.9242  0.1856  0.8874
 3301SOL     OW10683   2.190   6.338   2.725  0.0780 -0.2771 -0.1527
 3301SOL    HW110684   2.241   6.346   2.806  0.1019  1.7055 -0.3267
 3301SOL    HW210685   2.106   6.302   2.754 -0.3160  1.4036  0.9673
 3302SOL     OW10686   1.283   6.381   0.680  0.1961 -0.2559 -0.1030
 3302SOL    HW110687   1.344   6.453   0.694 -0.9241  0.6360  0.3627
 3302SOL    HW210688   1.226   6.410   0.609 -1.8050  0.4284  1.6479
 3303SOL     OW10689   2.106   8.019   5.911  0.7439 -1.1800 -0.8117
 3303SOL    HW110690   2.143   7.939   5.947  0.3497 -0.5083  1.1938
 3303SOL    HW210691   2.017   8.022   5.945  1.0015  0.4765 -0.2082
 3304SOL     OW10692   2.369   2.047   1.438  0.3304 -0.2912 -0.2617
 3304SOL    HW110693   2.385   1.957   1.464 -1.7722 -0.7421 -0.3721
 3304SOL    HW210694   2.337   2.041   1.348 -1.1787  0.3897  0.1898
 3305SOL     OW10695   7.693   7.227   7.362 -0.3170 -0.5431  0.1601
 3305SOL    HW110696   7.676   7.261   7.449  2.3600 -0.3718  0.6968
 3305SOL    HW210697   7.609   7.192   7.333 -1.5918  0.6265  2.2214
 3306SOL     OW10698   6.386   5.099   7.753  0.0324  0.0828  0.9186
 3306SOL    HW110699   6.306   5.152   7.750 -0.5460 -0.7631  0.8302
 3306SOL    HW210700   6.356   5.014   7.786  0.8131 -0.3857  0.4445
 3307SOL     OW10701   6.566   2.787   7.242 -0.3879  0.3105  0.4262
 3307SOL    HW110702   6.501   2.742   7.189 -0.5247 -0.9120  1.5776
 3307SOL    HW210703   6.650   2.758   7.207 -0.4690  0.3741  0.1746
 3308SOL     OW10704   4.816   0.340   2.455  0.5048  0.3041 -0.0686
 3308SOL    HW110705   4.855   0.382   2.378  0.5797 -1.1135 -0.8228
 3308SOL    HW210706   4.890   0.301   2.501  0.4135  0.8353  0.5446
 3309SOL     OW10707   4.389   1.203   6.161 -0.0603  0.0754  0.0791
 3309SOL    HW110708   4.440   1.275   6.124 -0.9859  0.5081 -0.4049
 3309SOL    HW210709   4.302   1.213   6.122  0.0273 -1.8583 -0.7220
 3310SOL     OW10710   4.279   3.523   0.407  0.7601  0.1740  0.0812
 3310SOL    HW110711   4.356   3.467   0.405  0.1601 -0.6910  0.3581
 3310SOL    HW210712   4.299   3.591   0.472  0.9827 -0.5088  0.7344
 3311SOL     OW10713   2.102   5.374   1.956 -0.0553 -0.4182  0.3399
 3311SOL    HW110714   2.118   5.361   1.862 -1.1321 -0.3153  0.1189
 3311SOL    HW210715   2.167   5.439   1.982 -0.8973  0.9832 -0.7975
 3312SOL     OW10716   1.460   3.456   0.589 -0.7527 -0.4052 -0.9653
 3312SOL    HW110717   1.431   3.498   0.508  1.5388  0.0245 -1.6152
 3312SOL    HW210718   1.551   3.483   0.600 -1.0651 -0.2020  1.9537
 3313SOL     OW10719   7.087   4.681   7.821 -0.0867 -0.0990 -0.1125
 3313SOL    HW110720   7.031   4.697   7.746  1.3109 -0.7965 -1.3663
 3313SOL    HW210721   7.171   4.653   7.783  0.8396  0.0571  1.6868
 3314SOL     OW10722   6.866   7.308   0.998 -0.1537 -0.4576 -0.2508
 3314SOL    HW110723   6.950   7.349   1.018  0.3026 -1.4238 -0.0928
 3314SOL    HW210724   6.877   7.276   0.908 -0.6814  0.1955 -0.5534
 3315SOL     OW10725   2.331   8.286   4.902  0.3929 -0.2005  0.5969
 3315SOL    HW110726   2.419   8.254   4.882  0.6188  0.7087  0.0258
 3315SOL    HW210727   2.327   8.290   4.997  0.9722 -0.2446  0.6245
 3316SOL     OW10728   6.628   0.580   1.964 -0.1458 -0.1752  0.1375
 3316SOL    HW110729   6.579   0.636   1.904  1.0951  1.4896  0.5852
 3316SOL    HW210730   6.717   0.615   1.962  0.1577 -0.6787  2.1747
 3317SOL     OW10731   7.836   6.126   8.277 -0.0671 -0.5417  0.0057
 3317SOL    HW110732   7.891   6.173   8.340 -1.5059  1.0754  0.1177
 3317SOL    HW210733   7.897   6.094   8.211  0.8730  2.8244 -0.9141
 3318SOL     OW10734   6.045   3.099   5.810  0.0387  0.1444  0.2574
 3318SOL    HW110735   6.007   3.185   5.828  0.6848  0.3050  0.9292
 3318SOL    HW210736   6.033   3.086   5.716 -1.0835  0.4601  0.3497
 3319SOL     OW10737   1.415   7.822   6.926 -0.2351 -0.4025 -0.4169
 3319SOL    HW110738   1.453   7.893   6.873 -0.8945  1.3603  1.3644
 3319SOL    HW210739   1.461   7.827   7.009 -2.5182  0.1033  0.8932
 3320SOL     OW10740   0.197   1.995   1.076  0.5492 -0.3060  0.7668
 3320SOL    HW110741   0.127   2.002   1.140 -0.7284  0.3145 -0.6228
 3320SOL    HW210742   0.227   2.086   1.064 -0.0398 -0.2424 -0.3458
 3321SOL     OW10743   3.531   6.086   5.957 -0.1526 -0.1274  0.1871
 3321SOL    HW110744   3.539   6.180   5.945 -0.9666  0.1626  1.6900
 3321SOL    HW210745   3.466   6.059   5.891  0.6608  0.2122 -0.7692
 3322SOL     OW10746   0.797   1.765   0.232 -0.5735 -0.1520 -0.6937
 3322SOL    HW110747   0.858   1.826   0.189  0.3434  0.0206  0.8021
 3322SOL    HW210748   0.826   1.762   0.323 -0.9909 -2.3719 -0.5973
 3323SOL     OW10749   4.464   6.463   0.359 -0.3687  0.0489 -0.1415
 3323SOL    HW110750   4.477   6.557   0.371 -1.1778  0.3658 -1.5180
 3323SOL    HW210751   4.385   6.456   0.305  0.5021 -1.3497 -1.3182
 3324SOL     OW10752   3.715   0.666   2.794 -0.4784  0.1719 -0.2188
 3324SOL    HW110753   3.793   0.694   2.843 -0.2735 -1.1915  0.2587
 3324SOL    HW210754   3.719   0.717   2.713  2.1178 -1.4236 -1.2032
 3325SOL     OW10755   2.290   4.797   6.722  0.2880  0.2061  0.2677
 3325SOL    HW110756   2.233   4.872   6.703  0.3570 -0.1546 -1.5277
 3325SOL    HW210757   2.360   4.833   6.776  0.0255  1.3337 -0.1200
 3326SOL     OW10758   6.479   2.996   1.886  0.7548  0.5658 -0.7391
 3326SOL    HW110759   6.539   2.965   1.817 -0.9424  1.0302 -2.5110
 3326SOL    HW210760   6.394   2.999   1.843 -0.3048  1.2796  1.3149
 3327SOL     OW10761   6.623   7.250   6.650  0.2980 -0.3249  0.3276
 3327SOL    HW110762   6.630   7.345   6.664 -0.9162 -0.3558  1.3864
 3327SOL    HW210763   6.712   7.222   6.632  0.3209  1.4097 -3.0213
 3328SOL     OW10764   7.034   8.016   2.491 -0.1409 -0.5175  0.6101
 3328SOL    HW110765   7.123   8.050   2.503  0.7030 -1.7288 -1.6766
 3328SOL    HW210766   7.039   7.925   2.521 -0.2189 -0.9849 -0.7248
 3329SOL     OW10767   6.706   3.854   4.196  0.1356  0.3390 -0.2811
 3329SOL    HW110768   6.686   3.773   4.242  0.9387  0.2329 -0.0955
 3329SOL    HW210769   6.639   3.916   4.226  0.1113  0.0176  0.3396
 3330SOL     OW10770   3.738   6.816   1.676  0.0002  0.6990 -0.5662
 3330SOL    HW110771   3.755   6.758   1.750  1.3033  0.2801 -1.1728
 3330SOL    HW210772   3.782   6.898   1.698  0.4129  0.5660 -0.8763
 3331SOL     OW10773   1.134   1.527   2.865  0.5418  0.1458 -0.6940
 3331SOL    HW110774   1.087   1.449   2.892  2.0356 -0.6641 -0.2956
 3331SOL    HW210775   1.182   1.501   2.786 -1.5196  1.6564 -2.5522
 3332SOL     OW10776   5.180   1.265   1.944  0.6217 -0.5491  0.0669
 3332SOL    HW110777   5.256   1.237   1.892  1.0015 -1.1893  0.9398
 3332SOL    HW210778   5.143   1.338   1.895  1.6878 -0.3590 -0.4806
 3333SOL     OW10779   0.319   7.020   1.483  0.2162 -0.4346 -0.0559
 3333SOL    HW110780   0.307   7.114   1.498 -1.4449 -0.4383 -1.1651
 3333SOL    HW210781   0.289   7.006   1.393  1.9191 -1.7890 -0.4670
 3334SOL     OW10782   2.683   1.866   6.376 -0.6845 -0.0015  0.2014
 3334SOL    HW110783   2.634   1.891   6.454 -0.8351  0.1945  0.0440
 3334SOL    HW210784   2.742   1.797   6.406 -0.6113  0.2021  0.5305
 3335SOL     OW10785   0.693   3.413   5.342 -0.3948  0.1639  0.4732
 3335SOL    HW110786   0.749   3.353   5.391  1.0773  2.4760  1.8149
 3335SOL    HW210787   0.613   3.418   5.394 -0.5932 -0.7374  0.2642
 3336SOL     OW10788   1.292   6.038   2.127 -0.2151  0.2092 -0.1924
 3336SOL    HW110789   1.243   5.992   2.195  0.6325 -0.8310 -0.2617
 3336SOL    HW210790   1.252   6.125   2.123  0.3222  0.6219  2.2696
 3337SOL     OW10791   3.557   1.653   4.341  0.1882 -0.0701 -0.7333
 3337SOL    HW110792   3.619   1.625   4.408 -0.0033  0.8158 -0.1648
 3337SOL    HW210793   3.472   1.624   4.374  0.0274  0.8500 -0.2978
 3338SOL     OW10794   3.854   0.720   6.285  0.6462  0.2771  0.3115
 3338SOL    HW110795   3.946   0.697   6.301  0.5501  0.3336  0.9950
 3338SOL    HW210796   3.812   0.711   6.371 -0.2390 -0.9015 -0.2156
 3339SOL     OW10797   7.408   5.585   3.334  0.2704  0.3036 -0.1036
 3339SOL    HW110798   7.396   5.569   3.427  1.0771 -0.5051 -0.1257
 3339SOL    HW210799   7.355   5.518   3.291 -0.0703  0.6512 -0.2282
 3340SOL     OW10800   1.189   0.752   3.462 -0.1437 -0.2658 -0.1502
 3340SOL    HW110801   1.153   0.787   3.544  1.4170  0.4554  0.2617
 3340SOL    HW210802   1.260   0.812   3.440  1.7692 -2.3893 -0.1469
 3341SOL     OW10803   4.160   3.424   1.791  0.5861  0.4306 -1.0382
 3341SOL    HW110804   4.065   3.416   1.792  0.6587 -0.5314 -1.2129
 3341SOL    HW210805   4.176   3.517   1.810 -0.2908 -0.0581  3.0840
 3342SOL     OW10806   8.202   1.353   0.889  0.5350 -0.6866  0.0428
 3342SOL    HW110807   8.176   1.445   0.896 -2.5180 -1.5569  3.2624
 3342SOL    HW210808   8.298   1.355   0.897  0.4926  2.1592  1.2638
 3343SOL     OW10809   4.160   0.490   2.405  0.0208 -0.5246  0.2477
 3343SOL    HW110810   4.110   0.418   2.367  0.8738 -1.0145  0.0438
 3343SOL    HW210811   4.252   0.466   2.393  0.3194  0.3706  0.6024
 3344SOL     OW10812   5.370   4.780   4.489  0.1670 -0.1146 -0.2442
 3344SOL    HW110813   5.390   4.726   4.413  0.7918 -0.1982 -0.0300
 3344SOL    HW210814   5.454   4.791   4.533 -0.1423  0.1447  0.2950
 3345SOL     OW10815   4.939   1.600   6.992 -0.1267 -0.7811  0.3049
 3345SOL    HW110816   5.001   1.658   7.037  1.1082 -2.7333  1.3169
 3345SOL    HW210817   4.856   1.647   6.993  1.2979  2.0362 -1.2535
 3346SOL     OW10818   0.557   0.936   6.965  0.0760  0.4633  0.4675
 3346SOL    HW110819   0.552   1.005   7.031 -1.0332 -0.2162  1.1124
 3346SOL    HW210820   0.506   0.970   6.891 -2.0246 -0.3634  1.4635
 3347SOL     OW10821   4.397   5.058   7.338 -1.0294 -0.1793  0.5956
 3347SOL    HW110822   4.314   5.096   7.367 -1.6155  1.3258 -2.5608
 3347SOL    HW210823   4.382   5.035   7.246  2.3396  1.1969 -0.4624
 3348SOL     OW10824   4.581   0.289   3.493 -0.1072  0.0594  0.5419
 3348SOL    HW110825   4.598   0.195   3.498 -0.8152 -0.0627  0.8550
 3348SOL    HW210826   4.574   0.317   3.585 -0.6603  0.2641  0.4447
 3349SOL     OW10827   8.131   4.586   2.621  0.1761  0.4164 -0.1874
 3349SOL    HW110828   8.073   4.543   2.684  0.3710  0.7679  0.2356
 3349SOL    HW210829   8.085   4.578   2.537  0.5226 -1.2264 -0.2602
 3350SOL     OW10830   6.857   1.600   2.745  0.3139  0.2103  0.9508
 3350SOL    HW110831   6.797   1.529   2.720 -0.2217  0.5546  1.2355
 3350SOL    HW210832   6.807   1.680   2.731  0.5208  0.4787  1.6765
 3351SOL     OW10833   2.661   6.944   4.217 -0.1923  0.0916 -0.0277
 3351SOL    HW110834   2.734   7.002   4.238  0.0630  0.6396 -2.1622
 3351SOL    HW210835   2.702   6.860   4.196 -0.1924  0.2628 -0.7471
 3352SOL     OW10836   5.228   0.109   0.858 -0.0847 -0.5748  0.4855
 3352SOL    HW110837   5.229   0.014   0.865 -0.4612 -0.5966  0.2399
 3352SOL    HW210838   5.200   0.139   0.944 -1.2225 -0.7295  0.1795
 3353SOL     OW10839   0.606   2.449   4.811 -0.9480 -0.4962 -0.7024
 3353SOL    HW110840   0.594   2.402   4.893  1.9178 -1.3686 -0.6788
 3353SOL    HW210841   0.645   2.384   4.752  0.0493  0.9510 -1.7060
 3354SOL     OW10842   7.812   3.560   5.953 -1.1173 -0.2772  0.2819
 3354SOL    HW110843   7.869   3.607   5.892 -2.2278 -0.1756 -0.7168
 3354SOL    HW210844   7.848   3.472   5.955  0.6601  0.4052  1.7527
 3355SOL     OW10845   6.064   6.601   4.342  0.1585  0.2741 -0.2921
 3355SOL    HW110846   6.093   6.517   4.378 -0.1060  0.4783  0.4062
 3355SOL    HW210847   5.995   6.578   4.280 -0.6557  0.0447  0.6742
 3356SOL     OW10848   5.764   6.921   0.777 -0.7401 -0.5676  0.6171
 3356SOL    HW110849   5.740   6.841   0.731 -1.3629 -0.1288  0.1542
 3356SOL    HW210850   5.835   6.959   0.724 -1.2712 -0.2022  0.1515
 3357SOL     OW10851   4.069   6.965   1.525  0.1863  0.6505  0.5434
 3357SOL    HW110852   4.049   6.990   1.615 -0.7434  0.9942  0.2556
 3357SOL    HW210853   4.010   6.891   1.507  1.8512 -0.8369  0.8904
 3358SOL     OW10854   3.005   6.887   6.889 -0.3243  0.0401 -0.8193
 3358SOL    HW110855   3.064   6.960   6.906 -0.9503  0.3246  0.1713
 3358SOL    HW210856   2.922   6.928   6.865 -0.7846 -0.3401  0.1085
 3359SOL     OW10857   1.586   4.758   7.385  0.4906  0.5514  0.3234
 3359SOL    HW110858   1.529   4.705   7.441  0.6854 -0.2746 -0.2458
 3359SOL    HW210859   1.622   4.824   7.444  1.2449 -0.7177  1.3560
 3360SOL     OW10860   6.434   5.976   5.017  0.4417  0.1797 -0.2203
 3360SOL    HW110861   6.438   5.940   4.929 -2.6244 -0.9010 -0.0452
 3360SOL    HW210862   6.516   5.950   5.058  0.9520 -1.2640 -2.0498
 3361SOL     OW10863   4.051   4.588   3.380 -0.8349 -0.2621  0.7968
 3361SOL    HW110864   4.145   4.572   3.383 -0.8020  0.1078  2.9418
 3361SOL    HW210865   4.012   4.514   3.425 -1.5245 -0.0595  0.5493
 3362SOL     OW10866   2.218   5.362   4.351  0.2881 -0.3013  0.0899
 3362SOL    HW110867   2.299   5.375   4.301 -0.5473 -0.9775 -1.5044
 3362SOL    HW210868   2.188   5.275   4.325 -1.3340  0.2391  0.0542
 3363SOL     OW10869   7.338   2.459   4.817  0.0262 -0.4246 -0.5263
 3363SOL    HW110870   7.414   2.501   4.778 -0.6257  0.3982 -0.9467
 3363SOL    HW210871   7.265   2.486   4.761 -0.7763 -0.0631  0.6613
 3364SOL     OW10872   3.353   2.860   7.151 -0.5716 -0.2860  0.4330
 3364SOL    HW110873   3.278   2.809   7.120 -0.9749 -0.4134  1.5749
 3364SOL    HW210874   3.351   2.939   7.098  0.1089 -1.4491 -1.4153
 3365SOL     OW10875   4.719   1.355   5.668  0.1437 -0.2003 -0.3149
 3365SOL    HW110876   4.796   1.350   5.612  0.7995 -0.3161  0.5748
 3365SOL    HW210877   4.753   1.382   5.754 -0.7242 -0.8006  0.2369
 3366SOL     OW10878   7.078   5.075   0.528  0.6037 -0.5944 -0.4722
 3366SOL    HW110879   7.098   4.984   0.551  0.6179  0.2031  3.3551
 3366SOL    HW210880   7.150   5.125   0.567 -0.4195  1.1934 -0.7817
 3367SOL     OW10881   6.054   6.816   6.859 -0.0022 -0.0688 -0.0009
 3367SOL    HW110882   6.114   6.842   6.789 -0.4115 -0.3759 -0.4675
 3367SOL    HW210883   5.983   6.879   6.855  0.2757  0.2906  0.5492
 3368SOL     OW10884   0.238   2.245   0.536 -0.0225  0.2202  0.5507
 3368SOL    HW110885   0.266   2.165   0.579 -0.1551  0.2028  0.6046
 3368SOL    HW210886   0.214   2.304   0.608 -0.7081  0.0212  0.4889
 3369SOL     OW10887   0.324   7.079   5.750 -0.1903 -0.2319 -0.7991
 3369SOL    HW110888   0.415   7.048   5.750 -0.7007 -1.8810  0.2708
 3369SOL    HW210889   0.274   7.005   5.784 -1.7103  1.3015  0.4776
 3370SOL     OW10890   1.007   5.170   7.739  0.7020  0.3475  0.2379
 3370SOL    HW110891   0.953   5.112   7.792  2.7387 -1.0017  0.9759
 3370SOL    HW210892   0.952   5.194   7.665 -0.7768 -1.2042  0.7719
 3371SOL     OW10893   0.404   1.007   4.937  0.1503 -0.6164 -0.1587
 3371SOL    HW110894   0.383   1.005   5.030  0.1466 -0.6377 -0.1600
 3371SOL    HW210895   0.499   1.011   4.933  0.2508 -2.2614 -0.1539
 3372SOL     OW10896   0.951   6.349   2.019 -0.5148 -0.3106 -1.1754
 3372SOL    HW110897   1.029   6.300   2.047  0.6409  2.7969  1.8225
 3372SOL    HW210898   0.878   6.307   2.065  0.0480 -0.8005 -0.7079
 3373SOL     OW10899   1.425   2.601   0.508  0.4001 -0.1808  0.3207
 3373SOL    HW110900   1.386   2.513   0.509  0.4402 -0.2116 -0.3347
 3373SOL    HW210901   1.352   2.659   0.529  0.2702 -0.3316  0.2939
 3374SOL     OW10902   3.893   0.748   3.256 -0.0804 -0.0632  0.0155
 3374SOL    HW110903   3.978   0.772   3.293 -0.2954  0.7162  0.0104
 3374SOL    HW210904   3.851   0.695   3.324  0.3682 -0.3724  0.0535
 3375SOL     OW10905   4.521   2.195   4.618 -0.0962  0.1895 -0.6843
 3375SOL    HW110906   4.550   2.250   4.691  0.5921  1.7176 -2.0437
 3375SOL    HW210907   4.568   2.113   4.630 -0.7792  0.0267  1.1319
 3376SOL     OW10908   4.629   1.973   2.139 -0.0248  0.4166 -0.2675
 3376SOL    HW110909   4.643   1.891   2.187 -1.6386  0.0449 -0.3721
 3376SOL    HW210910   4.689   2.035   2.180  1.8395 -1.0005 -0.7433
 3377SOL     OW10911   8.198   6.678   1.308  0.1056 -0.5368 -0.1116
 3377SOL    HW110912   8.150   6.620   1.367 -0.2352 -0.3221 -0.1727
 3377SOL    HW210913   8.273   6.626   1.279 -1.0007 -1.5299 -1.3729
 3378SOL     OW10914   0.710   3.150   1.008  0.0612  0.0603  0.1673
 3378SOL    HW110915   0.716   3.148   0.912  0.0560 -0.7430  0.1832
 3378SOL    HW210916   0.699   3.243   1.028  1.2749  0.3728 -0.5285
 3379SOL     OW10917   0.244   2.024   8.273 -0.6702 -0.4058  0.7922
 3379SOL    HW110918   0.268   2.001   8.183  0.7230 -1.5031  1.4165
 3379SOL    HW210919   0.310   2.088   8.300 -1.2703  0.1621  0.9503
 3380SOL     OW10920   0.452   2.948   7.266 -0.3891 -0.6405  0.4777
 3380SOL    HW110921   0.430   2.945   7.359  0.4233 -2.5911  0.6476
 3380SOL    HW210922   0.494   2.864   7.248 -0.9437 -0.5045 -1.7772
 3381SOL     OW10923   3.693   2.149   5.646  0.1589 -0.2596  0.0932
 3381SOL    HW110924   3.725   2.136   5.557 -2.2210 -0.7645 -0.7707
 3381SOL    HW210925   3.768   2.128   5.702  0.4445 -5.0412 -1.5859
 3382SOL     OW10926   1.959   0.545   1.259 -0.0134  0.5635 -0.0186
 3382SOL    HW110927   2.046   0.522   1.293  0.6413  2.4009 -0.3738
 3382SOL    HW210928   1.930   0.465   1.215  0.4392 -0.8747  2.1152
 3383SOL     OW10929   8.186   7.796   4.943 -0.0141  0.5420  0.2093
 3383SOL    HW110930   8.282   7.800   4.936  0.1513  0.7665  2.0728
 3383SOL    HW210931   8.156   7.874   4.897  0.9127  2.0691  2.0311
 3384SOL     OW10932   4.219   5.886   3.367 -0.1457  0.3239 -0.1676
 3384SOL    HW110933   4.213   5.795   3.336 -0.8595  0.3287 -0.0632
 3384SOL    HW210934   4.128   5.914   3.376  0.0686  0.8958  0.2682
 3385SOL     OW10935   0.853   8.235   2.615 -0.1048  0.6214  0.2464
 3385SOL    HW110936   0.938   8.215   2.654 -0.2753 -1.4566 -0.3280
 3385SOL    HW210937   0.835   8.325   2.641  2.3088  1.1475  0.2833
 3386SOL     OW10938   5.393   5.998   0.439  0.6920 -0.3521 -0.1203
 3386SOL    HW110939   5.318   5.946   0.411 -0.5003  1.5164 -0.5784
 3386SOL    HW210940   5.383   6.005   0.534 -0.2846  0.6405 -0.2686
 3387SOL     OW10941   7.176   3.394   0.199  0.3218  0.7185 -0.0183
 3387SOL    HW110942   7.238   3.421   0.131  0.7498 -0.7246 -0.2293
 3387SOL    HW210943   7.200   3.447   0.276  1.8179  0.1967 -0.1014
 3388SOL     OW10944   1.101   5.201   1.947 -0.5045 -0.1817 -0.0055
 3388SOL    HW110945   1.015   5.195   1.989 -0.3867 -0.9441  0.1352
 3388SOL    HW210946   1.126   5.110   1.930  0.0134  0.0597 -0.5854
 3389SOL     OW10947   7.976   3.284   4.057 -0.4555  0.1206  0.2426
 3389SOL    HW110948   7.903   3.343   4.077 -0.7626 -0.4218  0.7394
 3389SOL    HW210949   8.005   3.252   4.143 -0.4312 -0.6158 -0.0354
 3390SOL     OW10950   7.563   3.346   6.641 -0.1868  0.9302  0.6566
 3390SOL    HW110951   7.645   3.382   6.673 -0.1844  0.4944  1.1455
 3390SOL    HW210952   7.496   3.410   6.665 -0.4778 -0.2546  3.2959
 3391SOL     OW10953   6.424   5.480   7.996  0.1554  0.3149  0.0035
 3391SOL    HW110954   6.507   5.433   7.989 -0.1178 -0.2773  0.6332
 3391SOL    HW210955   6.400   5.500   7.905 -0.8809 -2.8380 -0.5363
 3392SOL     OW10956   2.768   1.826   2.971 -0.4423  0.3641  0.1012
 3392SOL    HW110957   2.821   1.817   3.051 -1.9605  0.7881  1.2042
 3392SOL    HW210958   2.817   1.887   2.917  0.2601  0.6712  1.0464
 3393SOL     OW10959   1.291   2.461   0.226 -0.3293  0.1636 -0.7064
 3393SOL    HW110960   1.359   2.395   0.240 -0.7078  0.2303  1.9903
 3393SOL    HW210961   1.330   2.523   0.164  2.1924  0.2820  0.8357
 3394SOL     OW10962   0.826   1.006   1.785 -0.1695 -0.3545  0.2273
 3394SOL    HW110963   0.900   0.988   1.727  1.5814  0.4848  2.0714
 3394SOL    HW210964   0.838   0.945   1.858 -0.8618  0.2870  0.8930
 3395SOL     OW10965   6.719   1.621   1.525  0.0474 -0.2676 -0.1123
 3395SOL    HW110966   6.630   1.623   1.561 -1.2090  1.4944 -2.9984
 3395SOL    HW210967   6.767   1.684   1.579 -0.4597 -1.1291  1.3973
 3396SOL     OW10968   3.347   4.955   5.514 -0.1447  0.6408 -0.0486
 3396SOL    HW110969   3.330   4.917   5.600  0.5442 -0.3693 -0.3466
 3396SOL    HW210970   3.260   4.966   5.475 -0.3515 -1.8219 -0.4394
 3397SOL     OW10971   4.403   2.815   5.701 -0.4155  0.2222  0.5076
 3397SOL    HW110972   4.359   2.736   5.670 -0.6851  0.6163 -0.1401
 3397SOL    HW210973   4.496   2.798   5.687 -0.5110  0.2639 -0.2487
 3398SOL     OW10974   6.371   6.817   2.793 -0.0435 -0.4557 -0.4635
 3398SOL    HW110975   6.339   6.729   2.774 -0.5303 -0.8708  1.9639
 3398SOL    HW210976   6.442   6.831   2.730 -0.6029 -2.1750 -1.5336
 3399SOL     OW10977   2.017   3.544   3.177 -0.2163  0.5079 -0.0556
 3399SOL    HW110978   2.021   3.583   3.264  2.3753 -0.6992  0.4757
 3399SOL    HW210979   2.010   3.450   3.194  0.3270  0.2625 -1.1315
 3400SOL     OW10980   6.422   0.215   4.285  0.3373  0.2194  0.2721
 3400SOL    HW110981   6.510   0.252   4.294 -0.3345  1.6221  1.4497
 3400SOL    HW210982   6.407   0.213   4.190  0.7748  2.1179  0.1217
 3401SOL     OW10983   3.991   6.542   5.336  0.0298  0.2607  0.0731
 3401SOL    HW110984   3.966   6.567   5.424 -0.0624  0.0153  0.1164
 3401SOL    HW210985   3.929   6.587   5.279 -0.4200 -0.2362  0.1729
 3402SOL     OW10986   2.873   2.218   0.568  0.4006  0.3556  0.1215
 3402SOL    HW110987   2.880   2.275   0.492  1.2848  0.7222  0.4584
 3402SOL    HW210988   2.949   2.159   0.561 -0.6801 -1.0311 -0.4074
 3403SOL     OW10989   7.690   3.005   7.597 -0.0337 -0.7122 -0.2205
 3403SOL    HW110990   7.698   3.054   7.515 -0.4509 -0.5259 -0.1546
 3403SOL    HW210991   7.622   3.051   7.646  1.3359  0.1255  0.9388
 3404SOL     OW10992   0.535   8.016   7.139 -0.2911 -0.9416  0.1581
 3404SOL    HW110993   0.562   7.938   7.187  3.2504  0.0446  0.0731
 3404SOL    HW210994   0.581   8.009   7.055 -1.1244  0.5440 -0.4634
 3405SOL     OW10995   2.091   6.676   3.221 -0.2093  0.0593 -0.3165
 3405SOL    HW110996   2.067   6.769   3.216 -1.9464 -0.3329  0.0027
 3405SOL    HW210997   2.080   6.644   3.132  0.4875  0.1718 -0.4471
 3406SOL     OW10998   4.234   0.953   1.994 -0.0697  0.3928  0.2606
 3406SOL    HW110999   4.235   0.898   2.072  0.0746  0.9820  0.6846
 3406SOL    HW211000   4.176   1.026   2.017 -0.4129  0.3163 -0.3629
 3407SOL     OW11001   4.300   3.036   7.607  0.0923 -0.3478 -0.0947
 3407SOL    HW111002   4.372   3.099   7.603  0.1428 -0.2974  1.1244
 3407SOL    HW211003   4.341   2.952   7.625 -0.2069 -0.0179  2.6055
 3408SOL     OW11004   1.044   8.238   8.228 -0.3760 -0.7459  0.3901
 3408SOL    HW111005   1.049   8.319   8.280  0.6777  0.0337 -0.8627
 3408SOL    HW211006   0.989   8.180   8.280 -2.5270  1.3261  0.6049
 3409SOL     OW11007   4.209   7.877   5.483  0.2068 -0.0597  0.0550
 3409SOL    HW111008   4.156   7.931   5.541  0.2665  0.1987 -0.1271
 3409SOL    HW211009   4.290   7.926   5.472 -0.6162  0.9537 -1.9426
 3410SOL     OW11010   0.155   7.650   4.668  0.3229  0.3692  0.5929
 3410SOL    HW111011   0.147   7.701   4.748 -0.7170  0.4090  0.4824
 3410SOL    HW211012   0.132   7.561   4.694 -0.2552  0.4258  0.3084
 3411SOL     OW11013   0.000   4.233   0.851  0.1706 -0.0324 -0.4013
 3411SOL    HW111014   0.095   4.247   0.848 -0.1710  2.9851  0.1505
 3411SOL    HW211015  -0.036   4.304   0.797 -1.7768 -1.9705 -1.8213
 3412SOL     OW11016   2.158   0.238   5.639  0.3338 -0.2636 -0.1571
 3412SOL    HW111017   2.175   0.332   5.650 -0.9263 -0.2656  2.5617
 3412SOL    HW211018   2.087   0.235   5.574  0.5418  0.6391 -0.4489
 3413SOL     OW11019   7.309   7.390   0.629 -0.1010  1.2161  0.0930
 3413SOL    HW111020   7.256   7.324   0.584  0.8965  0.7018 -0.3832
 3413SOL    HW211021   7.348   7.343   0.703  1.1648  1.0480 -0.6443
 3414SOL     OW11022   2.591   7.387   0.418 -0.0825  0.2383 -0.6207
 3414SOL    HW111023   2.550   7.310   0.457  2.7550 -1.2431 -0.3036
 3414SOL    HW211024   2.640   7.428   0.489  0.3087  0.9927 -1.3046
 3415SOL     OW11025   3.782   0.728   2.207 -0.2059 -0.6394 -0.3711
 3415SOL    HW111026   3.827   0.701   2.287  1.8918 -1.0122 -1.5961
 3415SOL    HW211027   3.795   0.655   2.147  0.0101  0.4384 -1.6852
 3416SOL     OW11028   8.303   3.509   7.521 -0.5156 -0.5068  0.0874
 3416SOL    HW111029   8.248   3.457   7.579 -1.4991  0.6773  0.2651
 3416SOL    HW211030   8.253   3.516   7.440  0.2917 -1.0938 -0.4880
 3417SOL     OW11031   8.152   4.875   6.132 -0.2074 -0.5518 -1.0567
 3417SOL    HW111032   8.062   4.871   6.100 -1.9412  0.0004  3.0037
 3417SOL    HW211033   8.183   4.785   6.128 -2.1994 -1.3848  0.2893
 3418SOL     OW11034   4.204   2.353   6.370  0.3317  0.2418 -0.0537
 3418SOL    HW111035   4.171   2.377   6.283 -0.1509  0.0567  0.0769
 3418SOL    HW211036   4.166   2.417   6.429  0.2049  0.0251  0.1001
 3419SOL     OW11037   3.856   2.392   4.082 -0.5994  0.2373 -0.1994
 3419SOL    HW111038   3.849   2.307   4.040 -0.6750  1.0462 -1.9015
 3419SOL    HW211039   3.890   2.373   4.170  1.0134 -1.3870 -1.1212
 3420SOL     OW11040   7.569   6.882   1.079  0.6462  0.1926  1.0024
 3420SOL    HW111041   7.565   6.828   1.000  3.0010 -0.1525  1.0654
 3420SOL    HW211042   7.519   6.832   1.144 -0.7668  0.1713 -0.0577
 3421SOL     OW11043   1.501   4.456   1.805 -0.6170 -0.4927 -0.1262
 3421SOL    HW111044   1.539   4.460   1.893 -0.1174 -1.6159 -0.2709
 3421SOL    HW211045   1.481   4.547   1.783  0.0950 -0.1007  0.7846
 3422SOL     OW11046   7.702   6.595   4.241 -0.6760 -0.2188  0.3884
 3422SOL    HW111047   7.616   6.558   4.219 -0.5661 -0.4441  0.3409
 3422SOL    HW211048   7.712   6.577   4.335  0.5292 -2.6859 -0.1363
 3423SOL     OW11049   2.619   8.064   3.507  0.8072 -0.1025  0.2571
 3423SOL    HW111050   2.708   8.036   3.526  0.5358 -0.7275  0.6257
 3423SOL    HW211051   2.572   8.054   3.591  0.4907  0.6164  0.1764
 3424SOL     OW11052   5.709   0.699   2.246  0.0059 -0.0445 -0.3785
 3424SOL    HW111053   5.629   0.714   2.295 -0.6734  1.5900 -1.9001
 3424SOL    HW211054   5.681   0.686   2.155  1.4920  3.3061 -1.5019
 3425SOL     OW11055   6.875   3.178   0.376 -0.5252 -0.4584  0.0890
 3425SOL    HW111056   6.795   3.142   0.335  0.4801 -0.7968 -1.6926
 3425SOL    HW211057   6.847   3.261   0.414 -1.4180  0.3136 -2.0544
 3426SOL     OW11058   1.408   4.189   1.762  0.1905 -0.3416 -0.0193
 3426SOL    HW111059   1.489   4.139   1.774 -0.0547 -0.8362 -0.3365
 3426SOL    HW211060   1.431   4.279   1.783  1.0721 -0.3106 -0.9966
 3427SOL     OW11061   8.129   0.601   1.176 -0.2111 -0.0270  0.3664
 3427SOL    HW111062   8.066   0.614   1.247 -1.0034  0.8447 -0.4761
 3427SOL    HW211063   8.076   0.583   1.099  0.6525 -1.4604  0.0533
 3428SOL     OW11064   8.078   1.273   6.969  0.1103 -0.2487  0.0042
 3428SOL    HW111065   8.043   1.359   6.942  1.2530  0.6398  1.2404
 3428SOL    HW211066   8.038   1.257   7.054 -1.7020 -1.9689 -1.0739
 3429SOL     OW11067   7.133   0.747   3.941 -0.1646 -0.3934  0.0411
 3429SOL    HW111068   7.137   0.765   4.035  0.8134  0.8979 -0.2137
 3429SOL    HW211069   7.147   0.653   3.934 -2.2517 -0.8478  1.2845
 3430SOL     OW11070   2.035   5.471   5.981  0.0527  0.1507 -0.6492
 3430SOL    HW111071   2.067   5.457   6.070  0.7653  0.8270 -0.7835
 3430SOL    HW211072   2.049   5.565   5.965 -0.3112  0.0883 -1.3745
 3431SOL     OW11073   0.045   5.642   3.293 -0.0085  0.2443 -0.3504
 3431SOL    HW111074  -0.049   5.639   3.279  0.1434  1.0509 -1.6535
 3431SOL    HW211075   0.055   5.647   3.388 -1.3184  1.3558 -0.2495
 3432SOL     OW11076   1.425   1.418   2.146  0.1719 -0.0894  0.1361
 3432SOL    HW111077   1.348   1.458   2.186 -0.0658  0.0146 -0.4046
 3432SOL    HW211078   1.499   1.456   2.192 -0.0671  0.6583 -0.0807
 3433SOL     OW11079   2.858   7.314   0.967 -0.6520 -0.3949 -0.1285
 3433SOL    HW111080   2.902   7.368   1.033 -2.1253  0.4490  0.2141
 3433SOL    HW211081   2.846   7.229   1.010  0.0005 -0.4128  0.0242
 3434SOL     OW11082   3.952   3.983   1.273  1.0075  0.7120 -0.7515
 3434SOL    HW111083   3.997   3.982   1.357 -0.0618 -2.4315 -0.1021
 3434SOL    HW211084   3.863   4.010   1.294  0.9053  0.5699 -1.0054
 3435SOL     OW11085   1.479   0.163   0.405  0.1612 -0.3152  0.2653
 3435SOL    HW111086   1.478   0.151   0.310  1.0639 -0.3551  0.2507
 3435SOL    HW211087   1.396   0.125   0.435 -0.8295  1.0617 -0.6469
 3436SOL     OW11088   7.187   2.465   8.117 -0.0314  0.7376 -0.2196
 3436SOL    HW111089   7.105   2.420   8.134 -0.3317  0.9153 -1.1801
 3436SOL    HW211090   7.238   2.453   8.198 -0.6641 -0.0821  0.0669
 3437SOL     OW11091   4.128   3.892   2.529  0.2949 -0.5273  0.1172
 3437SOL    HW111092   4.186   3.818   2.547 -0.6320 -1.3005  0.0045
 3437SOL    HW211093   4.145   3.914   2.437  0.5860 -0.5892  0.1548
 3438SOL     OW11094   0.315   2.219   5.365 -0.2295 -0.3667  0.0576
 3438SOL    HW111095   0.360   2.264   5.436 -0.6781 -1.4315  1.0413
 3438SOL    HW211096   0.248   2.281   5.336  0.3714  0.3220  0.1167
 3439SOL     OW11097   4.060   6.615   7.562  0.0778  0.3898 -0.8722
 3439SOL    HW111098   4.057   6.591   7.655 -0.3699  0.5353 -0.8465
 3439SOL    HW211099   4.007   6.549   7.518 -1.6472  1.6267 -0.7306
 3440SOL     OW11100   8.253   0.883   2.579 -0.6130  0.1902  0.1327
 3440SOL    HW111101   8.302   0.855   2.657 -0.7753 -1.9593 -0.4802
 3440SOL    HW211102   8.171   0.834   2.583 -1.1240  0.9297 -0.8121
 3441SOL     OW11103   1.555   2.862   2.272  0.1117 -0.0938  0.3853
 3441SOL    HW111104   1.603   2.928   2.323 -1.4681  0.0531  1.7740
 3441SOL    HW211105   1.499   2.819   2.336 -0.7156 -1.0864 -0.9563
 3442SOL     OW11106   6.226   3.881   0.060  0.0055  0.3949 -0.0347
 3442SOL    HW111107   6.266   3.806   0.106 -0.2218 -0.5415 -1.3156
 3442SOL    HW211108   6.191   3.935   0.131 -3.3396 -2.6468  0.9327
 3443SOL     OW11109   6.664   0.668   0.429 -0.3535 -0.0486  0.5194
 3443SOL    HW111110   6.665   0.634   0.340  0.7916  1.2552 -0.0023
 3443SOL    HW211111   6.587   0.725   0.432 -2.0801 -2.2592  1.2958
 3444SOL     OW11112   1.178   6.401   7.276 -0.7505  0.0409  0.1231
 3444SOL    HW111113   1.182   6.316   7.320 -0.9236 -0.3704 -0.6380
 3444SOL    HW211114   1.179   6.380   7.182  0.2048  0.9218 -0.0847
 3445SOL     OW11115   3.433   2.083   1.414  0.1997 -0.7472 -0.3092
 3445SOL    HW111116   3.375   2.008   1.399  0.6007 -1.0153 -0.5510
 3445SOL    HW211117   3.480   2.062   1.494 -1.1885  0.2107  0.8010
 3446SOL     OW11118   6.268   8.296   6.717  0.2024  0.1109  0.2094
 3446SOL    HW111119   6.338   8.243   6.678  0.6872  0.1558  1.0032
 3446SOL    HW211120   6.223   8.237   6.776  0.6930  0.5473  1.0366
 3447SOL     OW11121   1.546   0.482   6.211 -0.4413 -0.1239  0.0539
 3447SOL    HW111122   1.518   0.479   6.120  0.3975 -1.2781 -0.1886
 3447SOL    HW211123   1.641   0.467   6.207 -0.4832 -0.7602  1.1556
 3448SOL     OW11124   4.683   2.480   5.592 -0.7876 -0.5760 -0.5080
 3448SOL    HW111125   4.723   2.509   5.510 -2.6289  1.0456 -0.8984
 3448SOL    HW211126   4.626   2.407   5.566 -1.0832 -0.3054 -0.6342
 3449SOL     OW11127   3.565   4.747   7.481  0.0496  0.6309  0.3864
 3449SOL    HW111128   3.493   4.765   7.421 -0.9357  0.2748  1.4163
 3449SOL    HW211129   3.574   4.828   7.532  1.9399  1.5194 -1.2318
 3450SOL     OW11130   0.468   4.503   2.849  0.6267 -0.1513 -0.2801
 3450SOL    HW111131   0.390   4.544   2.888 -0.6346  0.1580 -2.9213
 3450SOL    HW211132   0.542   4.554   2.885 -0.5528  1.1368  0.4268
 3451SOL     OW11133   6.236   8.153   7.965  0.7941  0.1039  0.2843
 3451SOL    HW111134   6.328   8.143   7.989  0.8119  0.3520  0.3190
 3451SOL    HW211135   6.191   8.083   8.013  0.8880  0.3279  0.7046
 3452SOL     OW11136   1.506   0.545   8.093  0.0095  0.1859  0.2777
 3452SOL    HW111137   1.553   0.521   8.013 -1.4201 -1.2439 -0.1892
 3452SOL    HW211138   1.560   0.614   8.133  2.2968 -1.1114 -0.3882
 3453SOL     OW11139   5.977   5.319   1.671  0.3580 -0.5928 -0.1789
 3453SOL    HW111140   5.988   5.394   1.612  1.3992  0.3071  1.0919
 3453SOL    HW211141   6.004   5.243   1.619  1.8885  0.2510 -0.6932
 3454SOL     OW11142   0.204   3.064   0.471 -0.3920  0.0459  0.6836
 3454SOL    HW111143   0.282   3.070   0.525 -1.5607  2.3801  2.2786
 3454SOL    HW211144   0.144   3.009   0.522 -0.8919  0.8646  0.9996
 3455SOL     OW11145   3.981   5.927   1.207  0.0426  0.0548  0.2904
 3455SOL    HW111146   4.005   6.018   1.223  0.7870 -0.1139  0.1570
 3455SOL    HW211147   4.042   5.897   1.140 -0.1801 -0.5553  0.3543
 3456SOL     OW11148   1.015   5.009   4.316 -0.2991 -0.0426  0.4939
 3456SOL    HW111149   1.034   4.919   4.343  0.2316 -0.3088 -0.6912
 3456SOL    HW211150   1.090   5.033   4.262 -1.3682  0.4055 -0.8270
 3457SOL     OW11151   1.625   4.628   0.054  0.4519  0.5723  0.2461
 3457SOL    HW111152   1.573   4.552   0.078  1.4682 -0.0931  0.4220
 3457SOL    HW211153   1.614   4.689   0.127 -1.5883  1.2722 -0.5893
 3458SOL     OW11154   3.755   5.365   1.820 -0.0826 -0.2551  0.0178
 3458SOL    HW111155   3.738   5.272   1.834  0.0434 -0.5055 -1.3141
 3458SOL    HW211156   3.682   5.395   1.765  0.7107  0.0366 -0.9033
 3459SOL     OW11157   1.169   0.301   6.249  0.6137 -0.5648  0.1350
 3459SOL    HW111158   1.261   0.295   6.273  0.5150 -0.3238  0.5894
 3459SOL    HW211159   1.142   0.211   6.232  0.7888 -0.6986  0.5608
 3460SOL     OW11160   1.500   7.665   0.598  0.2170  1.1017  0.7346
 3460SOL    HW111161   1.410   7.691   0.620 -0.1120 -0.0759  0.8518
 3460SOL    HW211162   1.527   7.609   0.671  0.0827 -0.6992 -0.5334
 3461SOL     OW11163   1.621   5.741   1.108 -0.3680 -0.8023 -0.1529
 3461SOL    HW111164   1.628   5.834   1.085 -0.4884 -0.6418  0.4473
 3461SOL    HW211165   1.671   5.733   1.190 -2.0263 -0.8525  0.9019
 3462SOL     OW11166   0.401   2.593   7.363  0.1324  0.2007  0.3065
 3462SOL    HW111167   0.312   2.575   7.331 -0.3903  4.2021 -1.0700
 3462SOL    HW211168   0.389   2.617   7.455  0.4134 -2.7400  1.2026
 3463SOL     OW11169   1.864   7.461   4.591  0.3619  0.0708  0.6891
 3463SOL    HW111170   1.851   7.368   4.569  1.4062  0.0837 -0.0325
 3463SOL    HW211171   1.958   7.471   4.599  0.3653  1.3515 -0.5389
 3464SOL     OW11172   1.744   1.613   5.871  0.0088  0.1615  0.3310
 3464SOL    HW111173   1.786   1.580   5.792 -1.4600  0.8372 -0.7792
 3464SOL    HW211174   1.744   1.538   5.931 -1.5882 -1.3884 -1.4350
 3465SOL     OW11175   3.923   0.557   1.762  0.5566 -0.5892  0.2440
 3465SOL    HW111176   3.832   0.571   1.736  1.7812  2.3815 -3.4445
 3465SOL    HW211177   3.942   0.628   1.822  0.5423 -1.0530  0.8048
 3466SOL     OW11178   6.116   5.627   5.523 -0.1794 -0.1139 -0.0686
 3466SOL    HW111179   6.059   5.590   5.591 -0.7425 -1.0697 -1.0340
 3466SOL    HW211180   6.202   5.591   5.541 -0.1621  0.2284  0.5672
 3467SOL     OW11181   8.232   0.239   4.075  0.3587 -0.0692 -0.0266
 3467SOL    HW111182   8.327   0.247   4.075  0.6733 -2.4260 -2.4890
 3467SOL    HW211183   8.202   0.306   4.013  1.0393 -2.6247 -3.4428
 3468SOL     OW11184   4.638   1.628   0.951  0.2302 -0.4723  0.0622
 3468SOL    HW111185   4.567   1.664   0.898  0.5214 -0.5314 -0.3680
 3468SOL    HW211186   4.707   1.693   0.947 -0.3940  0.3830  1.8499
 3469SOL     OW11187   5.435   7.853   1.511  0.7180 -0.0189 -0.3720
 3469SOL    HW111188   5.384   7.912   1.455 -2.1831 -0.1877  1.8877
 3469SOL    HW211189   5.377   7.779   1.526  2.4019 -1.1493  0.8472
 3470SOL     OW11190   4.826   1.196   7.105 -0.6018  0.4637 -0.4583
 3470SOL    HW111191   4.816   1.120   7.047  0.7095  0.8018 -1.1759
 3470SOL    HW211192   4.777   1.173   7.184 -1.4058 -0.5266 -1.2179
 3471SOL     OW11193   2.317   4.586   0.087 -0.1298  0.4049 -0.0475
 3471SOL    HW111194   2.268   4.558   0.165  0.4403 -0.0442  0.1553
 3471SOL    HW211195   2.274   4.668   0.060 -0.0873  0.7773  0.9703
 3472SOL     OW11196   0.809   8.283   0.671  0.4389  0.1727  0.6661
 3472SOL    HW111197   0.829   8.209   0.614 -0.3773 -0.8560  1.6700
 3472SOL    HW211198   0.714   8.295   0.662  0.8465  3.0669 -1.7545
 3473SOL     OW11199   4.191   7.701   1.330 -0.4125 -0.4041 -0.6802
 3473SOL    HW111200   4.267   7.660   1.372 -0.7854 -1.9886 -1.4561
 3473SOL    HW211201   4.163   7.769   1.391  1.6714  0.2831 -0.4173
 3474SOL     OW11202   4.450   7.909   6.199 -0.0885 -0.2855 -0.2044
 3474SOL    HW111203   4.515   7.980   6.198  0.3363 -0.6171  1.3164
 3474SOL    HW211204   4.496   7.833   6.165 -0.5184  0.1026 -1.7521
 3475SOL     OW11205   5.973   1.463   2.469  0.6683  0.0451  0.3374
 3475SOL    HW111206   6.016   1.408   2.534  2.6878  2.1194  0.8953
 3475SOL    HW211207   6.044   1.516   2.431 -0.5878 -0.2909 -2.8110
 3476SOL     OW11208   6.019   7.501   7.440 -0.4747 -0.0908 -0.2727
 3476SOL    HW111209   6.043   7.591   7.420 -0.8419  0.2799  0.8736
 3476SOL    HW211210   5.924   7.498   7.429 -0.4697 -0.3277 -0.2664
 3477SOL     OW11211   4.222   4.733   2.775 -0.4754 -0.5951 -0.0598
 3477SOL    HW111212   4.289   4.680   2.731 -1.2946 -1.0798 -0.7642
 3477SOL    HW211213   4.191   4.793   2.707 -1.9190 -1.5110 -0.2627
 3478SOL     OW11214   0.437   3.196   7.460  0.7415 -0.2677 -0.3420
 3478SOL    HW111215   0.523   3.183   7.500  1.9780  0.8118 -2.5200
 3478SOL    HW211216   0.375   3.167   7.528  2.7667 -0.5653  1.4871
 3479SOL     OW11217   7.435   6.119   1.825  0.5383  0.5495  0.3662
 3479SOL    HW111218   7.391   6.123   1.910 -0.0688  0.9302  0.0380
 3479SOL    HW211219   7.400   6.039   1.784 -0.9555  1.5884 -0.4780
 3480SOL     OW11220   7.961   6.242   5.073 -0.0654 -0.4396  0.1765
 3480SOL    HW111221   7.878   6.194   5.066  0.1254 -0.8361  0.5818
 3480SOL    HW211222   8.024   6.189   5.026  0.1880 -0.6886  0.7865
 3481SOL     OW11223   5.668   6.147   3.126  0.2162  0.5066 -0.6326
 3481SOL    HW111224   5.576   6.129   3.108  0.2879 -0.2517 -0.2754
 3481SOL    HW211225   5.680   6.123   3.217  0.4557  1.9307 -0.2654
 3482SOL     OW11226   0.639   3.892   1.971 -0.4511  0.3104 -0.4929
 3482SOL    HW111227   0.715   3.911   2.026 -0.0398  1.7851 -1.5063
 3482SOL    HW211228   0.576   3.961   1.991 -1.7257 -1.1330  0.6304
 3483SOL     OW11229   7.918   8.176   1.154  0.2410 -0.7653  0.4508
 3483SOL    HW111230   7.947   8.187   1.245  1.7007 -1.4125  0.0897
 3483SOL    HW211231   7.983   8.119   1.115 -1.4860 -2.2174 -0.4769
 3484SOL     OW11232   6.887   4.421   6.945  0.0038  0.2862  0.0281
 3484SOL    HW111233   6.913   4.489   6.882  0.2037  0.8243  0.6868
 3484SOL    HW211234   6.958   4.418   7.008 -0.4009  0.0439  0.4758
 3485SOL     OW11235   4.068   6.715   4.934  0.1673 -0.2466 -0.1262
 3485SOL    HW111236   4.065   6.644   4.869  0.9247 -1.2203  0.8531
 3485SOL    HW211237   4.158   6.748   4.930  1.0896 -2.1286  2.1976
 3486SOL     OW11238   3.565   2.640   5.075 -0.3117  0.2248  1.0625
 3486SOL    HW111239   3.528   2.711   5.128 -0.6075  1.0044 -0.1322
 3486SOL    HW211240   3.541   2.663   4.985  0.2288 -1.0178  0.5783
 3487SOL     OW11241   7.639   3.077   1.910  0.4380 -0.7246 -0.0732
 3487SOL    HW111242   7.646   3.165   1.946  0.8857 -0.4166 -0.8849
 3487SOL    HW211243   7.549   3.049   1.930  0.0344  0.2262 -0.4950
 3488SOL     OW11244   1.911   4.288   2.587 -0.0842  0.1278 -1.0405
 3488SOL    HW111245   1.873   4.328   2.508  1.2927  0.5918 -1.4976
 3488SOL    HW211246   2.003   4.315   2.586 -0.1079  0.4140  0.9153
 3489SOL     OW11247   7.846   1.062   3.652 -0.3906 -0.1439 -0.1664
 3489SOL    HW111248   7.847   1.121   3.577 -0.5028 -0.4977 -0.4526
 3489SOL    HW211249   7.825   0.976   3.614 -0.0392 -0.4024  0.2166
 3490SOL     OW11250   5.205   4.407   7.017  0.1854 -0.1538  0.1347
 3490SOL    HW111251   5.157   4.463   7.078 -0.4734 -0.1119 -0.4167
 3490SOL    HW211252   5.166   4.425   6.931  1.5568  0.3179 -0.4328
 3491SOL     OW11253   4.662   8.035   1.315 -0.5970 -0.3000 -0.0334
 3491SOL    HW111254   4.600   8.086   1.263 -0.6692  1.0083  1.2614
 3491SOL    HW211255   4.633   7.944   1.304 -0.5756 -0.0799 -2.2536
 3492SOL     OW11256   4.075   6.346   0.277  0.3210 -0.6010 -0.4460
 3492SOL    HW111257   4.166   6.342   0.247  0.3295 -0.8643 -0.3930
 3492SOL    HW211258   4.053   6.439   0.275  0.8342 -0.4542  0.2385
 3493SOL     OW11259   7.599   0.290   3.807  0.1563  0.4959  0.0994
 3493SOL    HW111260   7.542   0.290   3.884 -0.1514  0.9542 -0.1249
 3493SOL    HW211261   7.632   0.200   3.802 -0.8658  0.1156 -0.0019
 3494SOL     OW11262   6.625   7.088   4.850 -0.7757 -0.2462 -0.0080
 3494SOL    HW111263   6.705   7.105   4.900 -0.2653  0.3463 -0.9817
 3494SOL    HW211264   6.633   6.998   4.820  1.3401  0.8045 -3.1215
 3495SOL     OW11265   3.765   2.062   3.040 -0.1214  0.4045  0.1609
 3495SOL    HW111266   3.807   1.992   2.990 -0.4661  0.1201  0.2685
 3495SOL    HW211267   3.724   2.018   3.115 -0.6567  0.6705  0.0313
 3496SOL     OW11268   5.012   3.569   4.886 -0.1123 -0.3134 -1.1129
 3496SOL    HW111269   5.102   3.538   4.885 -0.0525 -0.1587 -0.8365
 3496SOL    HW211270   4.971   3.527   4.811  0.5524  0.6821 -2.0811
 3497SOL     OW11271   1.005   1.555   5.641  0.0502  0.2958  0.0639
 3497SOL    HW111272   0.911   1.542   5.653 -0.2482  2.2772  0.2665
 3497SOL    HW211273   1.017   1.650   5.651  2.0318  0.1123 -0.2334
 3498SOL     OW11274   4.267   1.851   4.169 -0.0937  0.6065 -0.1787
 3498SOL    HW111275   4.318   1.776   4.199  0.0866  0.9843  0.4877
 3498SOL    HW211276   4.202   1.866   4.237 -0.4963  0.7087 -0.5778
 3499SOL     OW11277   1.538   0.502   7.831  0.0534 -0.7447 -0.2260
 3499SOL    HW111278   1.584   0.490   7.748 -0.6119  1.7504 -1.0523
 3499SOL    HW211279   1.491   0.585   7.821  2.4070  1.4117  3.7117
 3500SOL     OW11280   6.198   1.961   3.288  0.0944  0.2848  0.1998
 3500SOL    HW111281   6.133   1.892   3.287  0.0097  0.3511 -1.1497
 3500SOL    HW211282   6.153   2.037   3.326  0.3556 -0.5061  2.2125
 3501SOL     OW11283   7.393   3.321   3.195 -0.6726  0.0561 -0.0794
 3501SOL    HW111284   7.468   3.271   3.163 -1.0068 -1.2758  1.0953
 3501SOL    HW211285   7.382   3.391   3.131  0.1847 -1.0336 -1.4961
 3502SOL     OW11286   5.891   3.513   5.488 -0.0889  1.0523  0.0475
 3502SOL    HW111287   5.915   3.534   5.578  0.4677  0.2271  0.1036
 3502SOL    HW211288   5.974   3.510   5.441 -0.1798 -0.4756 -0.0585
 3503SOL     OW11289   2.067   4.448   6.874 -0.3428  0.8176 -0.1713
 3503SOL    HW111290   2.031   4.399   6.948 -0.7161  0.9975 -0.2294
 3503SOL    HW211291   2.006   4.521   6.862 -0.2557  0.8212 -0.6173
 3504SOL     OW11292   6.041   7.540   6.341 -0.0024 -0.0698  0.0151
 3504SOL    HW111293   6.125   7.577   6.369 -0.0877 -0.3472  0.6463
 3504SOL    HW211294   6.020   7.588   6.260  2.1184 -1.8596 -1.7604
 3505SOL     OW11295   0.223   2.797   1.050 -0.3270  0.1452 -0.0139
 3505SOL    HW111296   0.145   2.747   1.072  0.3955 -1.0172 -0.0038
 3505SOL    HW211297   0.236   2.782   0.957  0.9702 -1.2895  0.3660
 3506SOL     OW11298   2.071   2.264   4.386 -0.2587  0.5785  0.4003
 3506SOL    HW111299   2.036   2.178   4.363 -3.0385  0.9144  2.7420
 3506SOL    HW211300   2.166   2.253   4.383 -0.5110 -2.6299  0.7040
 3507SOL     OW11301   0.285   1.849   6.619  0.3165 -0.6911 -0.1283
 3507SOL    HW111302   0.285   1.914   6.689 -0.7402 -2.4065  1.5914
 3507SOL    HW211303   0.242   1.772   6.658  1.0680 -2.2637 -2.1890
 3508SOL     OW11304   6.286   2.911   2.815  0.6506 -0.0126  0.2584
 3508SOL    HW111305   6.240   2.841   2.769  0.3340 -0.5740  1.3998
 3508SOL    HW211306   6.366   2.925   2.764 -0.3111  0.3253 -1.2147
 3509SOL     OW11307   4.605   0.650   2.643 -0.1354  0.1840 -0.0515
 3509SOL    HW111308   4.646   0.714   2.585 -0.8573 -1.9409 -3.1958
 3509SOL    HW211309   4.675   0.588   2.664  0.3183  1.3395  2.1668
 3510SOL     OW11310   8.124   3.756   6.711  0.5000  0.2724 -0.0141
 3510SOL    HW111311   8.125   3.676   6.763  0.5251  1.7729  2.4647
 3510SOL    HW211312   8.033   3.767   6.684  0.2739 -0.0075  0.6233
 3511SOL     OW11313   3.996   6.967   6.842  0.0480  0.2203 -0.1387
 3511SOL    HW111314   4.029   6.879   6.821 -1.5622 -0.3282 -0.5554
 3511SOL    HW211315   3.998   7.014   6.758  0.2042  0.3388 -0.0689
 3512SOL     OW11316   8.319   6.603   1.784  0.4326 -0.1339 -0.3136
 3512SOL    HW111317   8.323   6.530   1.721  2.0708 -0.2281 -0.1543
 3512SOL    HW211318   8.229   6.602   1.816  0.4839 -2.3708 -0.0275
 3513SOL     OW11319   0.210   7.318   6.417 -0.2120 -0.0732  0.2396
 3513SOL    HW111320   0.258   7.353   6.492  1.1102  0.5943 -0.8738
 3513SOL    HW211321   0.188   7.395   6.365 -2.2497 -0.3951  0.5275
 3514SOL     OW11322   0.432   1.371   0.989 -0.3158  0.5232  0.1306
 3514SOL    HW111323   0.371   1.315   0.942 -0.6531  1.9089 -1.1329
 3514SOL    HW211324   0.412   1.356   1.082 -0.6814 -1.0842 -0.1839
 3515SOL     OW11325   7.060   3.519   5.660  0.3435 -0.4723 -0.5261
 3515SOL    HW111326   7.012   3.437   5.646 -0.9962  0.2598 -0.4134
 3515SOL    HW211327   7.036   3.546   5.748 -0.7900  0.9927 -1.2244
 3516SOL     OW11328   4.525   2.724   0.172  0.3151  1.2750 -0.9203
 3516SOL    HW111329   4.482   2.639   0.165 -1.0342  1.8643 -0.2084
 3516SOL    HW211330   4.595   2.721   0.106  0.5123 -0.4860 -0.6938
 3517SOL     OW11331   2.011   6.540   5.618  0.1778  0.0561 -0.0347
 3517SOL    HW111332   2.037   6.448   5.613  1.5775  0.4339 -0.2092
 3517SOL    HW211333   2.023   6.573   5.529  1.1844  0.7629  0.3417
 3518SOL     OW11334   1.956   5.042   1.819 -0.2020  0.3998  0.3695
 3518SOL    HW111335   1.864   5.049   1.794 -0.4132 -0.8912  0.7545
 3518SOL    HW211336   1.993   5.128   1.798 -1.9463  1.6566  2.1186
 3519SOL     OW11337   0.770   3.323   3.849 -0.2432 -0.1767  0.1157
 3519SOL    HW111338   0.757   3.415   3.876  3.5335  0.7415 -0.6160
 3519SOL    HW211339   0.764   3.325   3.754  0.1230 -0.6467  0.0814
 3520SOL     OW11340   6.082   7.066   1.705 -0.2711 -0.1647 -0.1915
 3520SOL    HW111341   6.112   6.975   1.705 -0.8806 -0.3687  0.4301
 3520SOL    HW211342   5.987   7.061   1.715 -0.4441  0.5112 -1.3075
 3521SOL     OW11343   5.050   0.251   5.941 -0.2360 -0.0632 -0.1387
 3521SOL    HW111344   5.107   0.275   5.868  0.2017 -1.5682 -0.3432
 3521SOL    HW211345   4.962   0.276   5.913 -0.0462 -0.4414 -1.1097
 3522SOL     OW11346   2.993   6.334   3.447  0.4659  0.2763 -0.4818
 3522SOL    HW111347   3.013   6.322   3.354  3.2672  0.9679 -0.0707
 3522SOL    HW211348   2.980   6.429   3.456 -1.3211  0.0535 -0.3729
 3523SOL     OW11349   5.710   6.898   0.448  0.3093 -0.5648 -0.6406
 3523SOL    HW111350   5.721   6.834   0.377  1.4528 -0.2889 -0.7337
 3523SOL    HW211351   5.638   6.955   0.418 -0.9399 -1.9621 -0.4128
 3524SOL     OW11352   0.140   7.324   3.568  0.2258  0.2907 -0.5345
 3524SOL    HW111353   0.222   7.298   3.610 -0.5703 -1.2865  0.1242
 3524SOL    HW211354   0.092   7.242   3.555 -1.7982  1.2738  0.2778
 3525SOL     OW11355   0.918   3.331   3.360 -0.1646 -0.4180 -0.4217
 3525SOL    HW111356   0.856   3.263   3.335 -0.0260 -1.4872  1.8653
 3525SOL    HW211357   1.002   3.286   3.368 -0.0302  0.0003  0.9285
 3526SOL     OW11358   4.849   2.221   4.393  0.4337 -0.6932  0.0502
 3526SOL    HW111359   4.860   2.316   4.394  1.9271 -0.8349  0.8892
 3526SOL    HW211360   4.907   2.191   4.324 -1.4409 -0.9069 -1.5174
 3527SOL     OW11361   1.811   6.330   8.135 -0.3845 -0.8649  0.4928
 3527SOL    HW111362   1.826   6.415   8.093 -2.7386 -0.0560  1.1420
 3527SOL    HW211363   1.786   6.272   8.064  2.8551 -1.5903 -0.2264
 3528SOL     OW11364   5.452   1.705   4.866  0.0073 -0.0918 -0.6977
 3528SOL    HW111365   5.431   1.666   4.951 -0.4505  1.2236 -0.1734
 3528SOL    HW211366   5.486   1.633   4.813 -0.1854 -1.0337  0.4379
 3529SOL     OW11367   4.837   2.382   5.836 -0.0301 -0.2666 -0.0390
 3529SOL    HW111368   4.805   2.413   5.751 -1.4661  0.6712  0.8062
 3529SOL    HW211369   4.890   2.305   5.815 -0.7960 -0.3647 -1.7437
 3530SOL     OW11370   7.794   4.877   7.549 -0.0175 -0.0721 -0.3801
 3530SOL    HW111371   7.888   4.893   7.561 -0.4093  1.4112  1.0644
 3530SOL    HW211372   7.763   4.951   7.497 -0.5939  0.1292  0.2282
 3531SOL     OW11373   4.049   0.411   7.935  0.6069  0.4482 -0.7604
 3531SOL    HW111374   4.103   0.438   7.861 -0.5542  2.0333 -1.0828
 3531SOL    HW211375   4.046   0.488   7.992  0.9404 -0.5280  0.6383
 3532SOL     OW11376   8.163   7.002   0.336 -0.8133 -0.7499  0.1217
 3532SOL    HW111377   8.105   6.948   0.283 -0.7299 -2.0106  1.2457
 3532SOL    HW211378   8.155   7.090   0.299 -2.0819 -1.2364 -0.8411
 3533SOL     OW11379   3.411   1.621   4.688 -0.0622 -0.3769 -0.8255
 3533SOL    HW111380   3.341   1.585   4.742 -2.5947  2.3362 -2.0033
 3533SOL    HW211381   3.370   1.635   4.602  1.7303  1.7708 -1.4324
 3534SOL     OW11382   4.204   1.741   5.069 -0.1674  0.1259 -0.0523
 3534SOL    HW111383   4.158   1.659   5.084  0.7233 -0.7473 -1.7371
 3534SOL    HW211384   4.138   1.809   5.083 -0.9586 -0.8619  1.2061
 3535SOL     OW11385   7.918   2.791   0.740  0.5480 -0.0723  0.1665
 3535SOL    HW111386   7.836   2.758   0.705  0.7773 -1.2161  0.6392
 3535SOL    HW211387   7.945   2.860   0.679  0.0425 -0.7816 -0.8890
 3536SOL     OW11388   1.203   3.919   5.245 -0.5917 -0.2325 -0.3930
 3536SOL    HW111389   1.163   3.856   5.186 -2.4240 -1.4838  2.0187
 3536SOL    HW211390   1.129   3.963   5.287  0.5828 -0.2027  1.7672
 3537SOL     OW11391   4.703   1.176   6.706 -0.6018  0.1956 -0.0138
 3537SOL    HW111392   4.750   1.242   6.757  0.5015 -1.0760  0.6740
 3537SOL    HW211393   4.770   1.137   6.650 -0.7934 -1.6480  0.9696
 3538SOL     OW11394   3.495   4.529   6.215 -0.1856 -0.5057  0.0887
 3538SOL    HW111395   3.521   4.461   6.154 -1.5597 -1.9701  1.0600
 3538SOL    HW211396   3.510   4.491   6.302 -0.3797  0.6770  0.6655
 3539SOL     OW11397   6.553   0.882   0.761 -0.6164  0.2191 -0.0914
 3539SOL    HW111398   6.486   0.873   0.694 -2.7468  2.1114  1.6386
 3539SOL    HW211399   6.614   0.948   0.727  1.0332 -2.1177 -2.0446
 3540SOL     OW11400   1.610   4.470   2.329 -0.5409  0.2126 -0.4103
 3540SOL    HW111401   1.641   4.549   2.373  0.4174 -0.2826 -0.1785
 3540SOL    HW211402   1.674   4.403   2.352 -0.2869 -0.1829 -2.1597
 3541SOL     OW11403   0.771   0.143   3.920 -0.2790  0.4835  0.2153
 3541SOL    HW111404   0.691   0.136   3.972 -0.9544  1.5134 -0.6492
 3541SOL    HW211405   0.750   0.205   3.851  1.0628  0.2553 -0.4379
 3542SOL     OW11406   6.717   4.995   8.322  0.1480 -0.0132 -0.0281
 3542SOL    HW111407   6.760   4.924   8.274  1.3210  0.1809  0.7092
 3542SOL    HW211408   6.747   5.075   8.279 -0.7272  0.0739 -0.4980
 3543SOL     OW11409   6.831   6.479   0.727  0.4489 -0.0225 -0.2921
 3543SOL    HW111410   6.780   6.427   0.789  3.6625 -1.3322  1.5101
 3543SOL    HW211411   6.886   6.535   0.782  0.5814  1.7938 -2.1356
 3544SOL     OW11412   2.994   6.040   4.103  0.0091 -0.3220 -0.0647
 3544SOL    HW111413   2.946   6.013   4.025 -1.4344 -0.4582  0.8321
 3544SOL    HW211414   2.960   6.126   4.125 -0.8509 -0.9927  1.3631
 3545SOL     OW11415   5.788   4.372   4.403 -0.0119  0.1689  0.4121
 3545SOL    HW111416   5.751   4.453   4.367 -1.1289 -1.6322 -3.0191
 3545SOL    HW211417   5.871   4.361   4.356 -0.3621 -1.1226  0.0473
 3546SOL     OW11418   6.078   0.041   5.152 -0.4058  0.0840  0.2190
 3546SOL    HW111419   6.119   0.113   5.103 -0.7840  0.3141  0.2313
 3546SOL    HW211420   6.146   0.011   5.213  0.1774 -0.4297 -0.6747
 3547SOL     OW11421   5.318   4.887   0.673 -0.2879  0.2463  0.2019
 3547SOL    HW111422   5.372   4.909   0.597 -1.2562 -1.0685 -0.9147
 3547SOL    HW211423   5.331   4.793   0.684  0.7403  0.5845  2.4290
 3548SOL     OW11424   5.431   0.497   3.493  0.0096  0.8191 -0.3943
 3548SOL    HW111425   5.357   0.558   3.495 -1.2685 -0.5620 -2.2303
 3548SOL    HW211426   5.476   0.516   3.411  0.6881  0.4994 -0.1026
 3549SOL     OW11427   6.623   5.404   4.754  0.9598  0.3054 -0.1562
 3549SOL    HW111428   6.581   5.393   4.839 -0.6155 -0.4033 -0.9754
 3549SOL    HW211429   6.689   5.471   4.768  0.8305  0.1055  1.6487
 3550SOL     OW11430   4.417   7.759   1.507  0.0151 -0.4198  0.1867
 3550SOL    HW111431   4.492   7.815   1.527 -1.0918  1.3625 -0.3428
 3550SOL    HW211432   4.380   7.738   1.593 -0.2404  0.7191  0.3815
 3551SOL     OW11433   2.616   5.655   6.687  0.4369 -0.7267  0.5791
 3551SOL    HW111434   2.604   5.581   6.745  1.6904 -0.3493  1.3601
 3551SOL    HW211435   2.626   5.617   6.600  0.3433 -1.4157  0.8697
 3552SOL     OW11436   5.135   3.297   0.728  0.5844  0.4003 -0.3551
 3552SOL    HW111437   5.210   3.349   0.755  0.2319  1.1932 -0.8629
 3552SOL    HW211438   5.143   3.216   0.778  0.7729  1.2057  0.9753
 3553SOL     OW11439   7.150   0.594   2.007 -0.4137  0.5670  0.0457
 3553SOL    HW111440   7.128   0.683   2.036 -0.0628  1.2940 -1.8049
 3553SOL    HW211441   7.144   0.598   1.912 -1.6544 -1.7622 -0.0174
 3554SOL     OW11442   1.495   3.291   3.818  0.8422  0.6061 -0.4576
 3554SOL    HW111443   1.472   3.284   3.911  0.2433  1.0606 -0.5652
 3554SOL    HW211444   1.508   3.200   3.790  0.8361  0.4527  0.0246
 3555SOL     OW11445   4.436   2.411   5.309  0.5805 -0.4295  0.7122
 3555SOL    HW111446   4.460   2.422   5.217  1.5550  0.9618  1.0836
 3555SOL    HW211447   4.504   2.354   5.345  0.0513 -1.1906  0.5312
 3556SOL     OW11448   4.011   6.028   3.072  0.6959 -0.3417 -0.2590
 3556SOL    HW111449   3.917   6.020   3.055  0.3008 -0.9812  1.9700
 3556SOL    HW211450   4.045   5.939   3.067  1.0645 -0.1998 -0.3631
 3557SOL     OW11451   1.448   2.198   2.359 -0.2217 -0.4083  0.3560
 3557SOL    HW111452   1.426   2.173   2.269  0.2899  0.3210  0.0214
 3557SOL    HW211453   1.531   2.154   2.376 -0.7016 -1.1822  0.7585
 3558SOL     OW11454   0.080   2.368   0.076  0.3630  0.7777  0.6161
 3558SOL    HW111455   0.010   2.344   0.015 -0.3136  2.2950  0.7551
 3558SOL    HW211456   0.034   2.390   0.157  0.8979  2.7026  0.4292
 3559SOL     OW11457   0.592   7.101   0.209  0.1595  0.1139  0.0661
 3559SOL    HW111458   0.678   7.060   0.213 -0.8501 -2.0209  0.9622
 3559SOL    HW211459   0.545   7.053   0.141 -0.8144  0.2528  0.6169
 3560SOL     OW11460   4.625   1.939   3.670  0.1873 -0.0100 -0.1692
 3560SOL    HW111461   4.677   2.005   3.625  0.8152 -0.0221  0.5322
 3560SOL    HW211462   4.582   1.890   3.599  1.5995 -0.3946 -0.7796
 3561SOL     OW11463   3.072   6.135   8.268  0.4796 -0.8758 -0.2424
 3561SOL    HW111464   3.158   6.130   8.308  0.1953 -3.4606  0.2605
 3561SOL    HW211465   3.081   6.085   8.186 -0.0700  0.5534 -1.2252
 3562SOL     OW11466   2.617   1.066   3.254 -0.2234 -0.1898  0.1277
 3562SOL    HW111467   2.711   1.047   3.247 -0.3554 -0.9671  0.4283
 3562SOL    HW211468   2.588   1.016   3.330 -0.4619  1.7021  1.3444
 3563SOL     OW11469   6.138   4.768   8.277 -0.4455  0.4090 -0.1827
 3563SOL    HW111470   6.097   4.684   8.254 -0.1333 -0.0214  0.7518
 3563SOL    HW211471   6.224   4.765   8.234  0.1080 -0.3586  0.9128
 3564SOL     OW11472   4.114   1.576   1.124  0.4786  0.2004 -0.1838
 3564SOL    HW111473   4.090   1.495   1.079  0.7018  0.7787 -1.3535
 3564SOL    HW211474   4.194   1.554   1.171  0.5634 -0.2490 -0.5327
 3565SOL     OW11475   1.429   1.221   5.202  0.0442  0.2177 -0.2310
 3565SOL    HW111476   1.505   1.277   5.220 -0.4840  0.9697 -0.3271
 3565SOL    HW211477   1.378   1.223   5.283 -0.9625  1.4446 -0.8625
 3566SOL     OW11478   2.448   6.773   5.374 -0.7194  0.1090  0.2616
 3566SOL    HW111479   2.440   6.840   5.307  1.3515 -0.5616 -0.7450
 3566SOL    HW211480   2.458   6.822   5.456 -0.0168  1.0204 -0.3532
 3567SOL     OW11481   0.226   0.190   2.690 -0.1274 -0.2973 -0.0299
 3567SOL    HW111482   0.263   0.104   2.712  0.9209 -0.1727 -1.2013
 3567SOL    HW211483   0.135   0.171   2.666 -0.3701 -0.8467  1.2104
 3568SOL     OW11484   1.295   6.845   1.950  0.6546  0.0593 -0.1723
 3568SOL    HW111485   1.301   6.834   1.855 -0.6216 -1.5216 -0.1099
 3568SOL    HW211486   1.260   6.934   1.961  2.5741  0.9883 -1.0649
 3569SOL     OW11487   2.966   3.488   1.610 -0.4033  0.0061  0.0114
 3569SOL    HW111488   2.998   3.460   1.525 -0.3841 -0.3308  0.1305
 3569SOL    HW211489   3.045   3.507   1.661 -0.3215 -2.1594  0.7675
 3570SOL     OW11490   8.132   2.719   6.638 -0.1274 -0.0427  0.0832
 3570SOL    HW111491   8.113   2.627   6.616 -0.6227 -0.0425  0.4846
 3570SOL    HW211492   8.080   2.736   6.717  0.6264  0.3339  0.5107
 3571SOL     OW11493   6.407   6.340   0.391  0.5058 -0.2071  0.2818
 3571SOL    HW111494   6.384   6.427   0.423 -0.0048 -1.1195  2.6341
 3571SOL    HW211495   6.337   6.283   0.422  0.4437 -1.3786 -1.8389
 3572SOL     OW11496   5.105   1.309   1.164  0.1479  0.6014  0.0367
 3572SOL    HW111497   5.019   1.349   1.147  0.0649  0.8772  1.0396
 3572SOL    HW211498   5.168   1.376   1.138  0.1713 -0.3177 -2.6301
 3573SOL     OW11499   0.457   0.786   1.193 -0.0303 -0.0245  0.0344
 3573SOL    HW111500   0.466   0.695   1.222 -0.7498 -0.2240 -0.3432
 3573SOL    HW211501   0.455   0.781   1.098 -1.0842  0.2734  0.0267
 3574SOL     OW11502   8.196   3.348   3.897 -0.4815  0.0394 -0.1833
 3574SOL    HW111503   8.166   3.376   3.810  0.5010 -0.8846 -0.8463
 3574SOL    HW211504   8.123   3.368   3.955 -1.0970  0.8230 -1.1967
 3575SOL     OW11505   2.054   7.328   1.197  0.1087  0.5298 -0.4391
 3575SOL    HW111506   2.085   7.312   1.286 -2.0400 -1.9087 -0.0041
 3575SOL    HW211507   2.022   7.419   1.199  1.1738  0.9050  0.9118
 3576SOL     OW11508   6.814   6.459   6.521 -0.0661  0.0678  0.2172
 3576SOL    HW111509   6.789   6.367   6.523 -1.5312  0.4292 -0.1249
 3576SOL    HW211510   6.840   6.475   6.430 -0.0606  0.0514  0.2161
 3577SOL     OW11511   7.599   1.114   2.236 -0.1239  0.3652 -0.0627
 3577SOL    HW111512   7.569   1.023   2.243  1.7221 -0.5086 -2.2068
 3577SOL    HW211513   7.686   1.114   2.277 -0.2967  1.2931  0.3251
 3578SOL     OW11514   1.927   0.363   0.451 -0.1389  0.0586  0.3095
 3578SOL    HW111515   1.834   0.373   0.435 -0.6339 -2.1982  1.4809
 3578SOL    HW211516   1.942   0.269   0.453  1.9983  0.3507  1.0208
 3579SOL     OW11517   1.063   1.151   6.980 -0.0915 -1.0286 -0.5280
 3579SOL    HW111518   1.050   1.155   7.075 -0.0637 -0.5089 -0.5419
 3579SOL    HW211519   1.127   1.081   6.967 -0.3529 -1.3347 -0.1919
 3580SOL     OW11520   0.034   3.340   7.102  0.2792 -0.0110  0.1675
 3580SOL    HW111521   0.050   3.278   7.031  2.2120  0.7150 -0.1042
 3580SOL    HW211522   0.083   3.305   7.176  1.4087  1.1562  0.0064
 3581SOL     OW11523   7.595   1.908   5.469 -0.1094  0.2810  0.0567
 3581SOL    HW111524   7.519   1.923   5.525 -0.2118 -1.3322  0.3863
 3581SOL    HW211525   7.605   1.990   5.420 -1.6912  0.7358  0.4312
 3582SOL     OW11526   0.856   6.240   6.196  0.1928  0.1373 -0.3205
 3582SOL    HW111527   0.765   6.232   6.169  0.4903  0.7531 -1.5660
 3582SOL    HW211528   0.880   6.331   6.177  0.7569  0.2895  1.0098
 3583SOL     OW11529   6.879   4.064   0.176  0.0420  0.0254 -0.1965
 3583SOL    HW111530   6.950   4.061   0.112  0.9922  1.0889  0.7411
 3583SOL    HW211531   6.890   3.984   0.228  0.5513  0.1604 -0.0869
 3584SOL     OW11532   2.495   6.213   7.585  0.1690 -0.2830 -0.1879
 3584SOL    HW111533   2.426   6.266   7.544  1.2680 -0.0242 -1.8057
 3584SOL    HW211534   2.478   6.124   7.554  0.2697 -0.3006 -0.1932
 3585SOL     OW11535   6.828   6.170   1.322 -0.3611 -0.0580  0.6189
 3585SOL    HW111536   6.835   6.265   1.331 -0.6730  0.0490 -0.1955
 3585SOL    HW211537   6.870   6.150   1.239  0.2609 -0.7186  1.0782
 3586SOL     OW11538   2.502   0.810   6.241  0.0073  0.5770 -0.0343
 3586SOL    HW111539   2.544   0.768   6.315 -3.5555 -0.2009  1.7724
 3586SOL    HW211540   2.521   0.903   6.253  2.3404  0.1831 -0.2195
 3587SOL     OW11541   6.869   4.767   5.249 -0.2525  0.0867  0.3915
 3587SOL    HW111542   6.829   4.690   5.208 -1.1605  0.9241 -0.3526
 3587SOL    HW211543   6.842   4.762   5.341 -0.6901 -0.2476  0.2511
 3588SOL     OW11544   3.642   6.244   6.712  0.1683 -0.3584 -0.8391
 3588SOL    HW111545   3.592   6.185   6.768  0.3625  0.5987  0.3933
 3588SOL    HW211546   3.690   6.300   6.773  1.2512  0.0065 -1.9822
 3589SOL     OW11547   7.688   3.445   6.333 -0.2847 -0.6096 -0.1329
 3589SOL    HW111548   7.745   3.437   6.409  0.2098  0.1665 -0.4078
 3589SOL    HW211549   7.729   3.514   6.280 -2.6485  1.6343  0.7375
 3590SOL     OW11550   5.807   0.786   0.485  0.0559 -0.4993  0.6719
 3590SOL    HW111551   5.741   0.854   0.472 -0.2414 -0.8623  0.2519
 3590SOL    HW211552   5.822   0.785   0.580 -1.8634 -1.6207  1.0129
 3591SOL     OW11553   7.843   7.380   2.413 -0.1286 -0.1669 -0.1296
 3591SOL    HW111554   7.935   7.374   2.439 -0.4235 -1.4565  0.6825
 3591SOL    HW211555   7.823   7.474   2.418  1.1871  0.1549 -0.5181
 3592SOL     OW11556   1.843   7.567   6.828 -0.3920 -0.4092  0.3408
 3592SOL    HW111557   1.911   7.501   6.814 -0.6718 -0.8550  1.0278
 3592SOL    HW211558   1.879   7.625   6.895 -0.8165 -0.8445  0.9543
 3593SOL     OW11559   2.639   6.617   3.171  0.2647  0.9315  0.2435
 3593SOL    HW111560   2.584   6.581   3.102  0.2260 -0.2149  0.8475
 3593SOL    HW211561   2.728   6.586   3.150  0.3337  0.9986  0.4331
 3594SOL     OW11562   2.413   7.643   7.467  0.9842  0.3366  0.3886
 3594SOL    HW111563   2.449   7.731   7.478  1.2779  0.2077  0.4616
 3594SOL    HW211564   2.318   7.655   7.473  1.0490  0.5604  1.0249
 3595SOL     OW11565   2.672   1.938   7.944 -0.6269  0.3241 -0.3924
 3595SOL    HW111566   2.602   1.912   7.885 -0.9899 -1.7212  0.8163
 3595SOL    HW211567   2.646   1.900   8.029  0.9351  1.2796  0.5547
 3596SOL     OW11568   4.621   7.477   4.200 -0.1492 -0.2171  0.0285
 3596SOL    HW111569   4.703   7.432   4.222  0.1247  0.4224  0.3537
 3596SOL    HW211570   4.571   7.476   4.282  1.2916  3.0692  1.1354
 3597SOL     OW11571   4.553   1.692   4.133  0.3654 -0.1395  0.5766
 3597SOL    HW111572   4.639   1.653   4.150  0.9330  0.6986 -0.2339
 3597SOL    HW211573   4.565   1.785   4.153 -0.5763 -0.1280  1.1661
 3598SOL     OW11574   1.046   1.559   4.670  0.4006  0.2447 -0.2508
 3598SOL    HW111575   1.066   1.471   4.637 -1.6918 -0.0650 -0.8536
 3598SOL    HW211576   1.012   1.543   4.758  0.8531  0.5480 -0.0199
 3599SOL     OW11577   3.488   6.659   3.674 -0.5904 -0.2524  0.2930
 3599SOL    HW111578   3.513   6.591   3.611 -1.2280  1.1125 -1.5288
 3599SOL    HW211579   3.392   6.660   3.672 -0.6123  0.0507  1.0482
 3600SOL     OW11580   7.387   5.317   8.136 -0.1643 -0.1367  0.8028
 3600SOL    HW111581   7.446   5.373   8.084 -0.5296 -0.7233 -0.2917
 3600SOL    HW211582   7.325   5.282   8.072  0.0705 -1.8167  1.4300
 3601SOL     OW11583   1.457   2.628   8.128 -0.2749  0.1450 -0.0144
 3601SOL    HW111584   1.473   2.614   8.035  0.5765  1.1080 -0.0289
 3601SOL    HW211585   1.538   2.597   8.171 -0.8217 -0.6815  0.4549
 3602SOL     OW11586   6.220   0.268   4.773  0.7695  0.0922 -0.4704
 3602SOL    HW111587   6.278   0.272   4.697 -0.3259  0.1849 -1.3294
 3602SOL    HW211588   6.148   0.327   4.751  0.2389 -0.1787  0.4780
 3603SOL     OW11589   5.833   5.159   0.982  0.5324  0.3598 -0.0480
 3603SOL    HW111590   5.758   5.125   1.030  0.0317  0.1794 -0.9391
 3603SOL    HW211591   5.803   5.241   0.944  1.3809  1.2628  1.1305
 3604SOL     OW11592   2.703   7.457   4.596  0.1113  0.3279 -0.3507
 3604SOL    HW111593   2.652   7.496   4.667 -1.7089 -0.3617 -1.2121
 3604SOL    HW211594   2.667   7.496   4.516 -0.6314 -1.8041 -1.1327
 3605SOL     OW11595   1.293   0.857   1.081 -0.2471  0.2421 -0.0126
 3605SOL    HW111596   1.366   0.849   1.144 -0.3315  0.3701  0.1018
 3605SOL    HW211597   1.282   0.951   1.070  0.9270  0.2298 -1.5778
 3606SOL     OW11598   5.475   7.057   6.583  0.5078  0.0242 -0.2153
 3606SOL    HW111599   5.570   7.058   6.578  0.5013  0.2861 -0.3053
 3606SOL    HW211600   5.455   7.005   6.661  0.6894 -1.1946 -0.9605
 3607SOL     OW11601   6.414   2.947   1.441 -0.2096 -0.1506 -0.6611
 3607SOL    HW111602   6.406   2.851   1.448  0.0391 -0.1146  0.4194
 3607SOL    HW211603   6.371   2.979   1.521 -2.2496  0.7659 -2.0549
 3608SOL     OW11604   6.220   8.309   8.229 -0.1039  0.0196 -0.5746
 3608SOL    HW111605   6.184   8.384   8.277 -0.4848  0.1064 -0.9902
 3608SOL    HW211606   6.287   8.273   8.287  0.5663  1.0962 -0.6639
 3609SOL     OW11607   2.375   8.223   1.732 -0.2088  0.2478 -0.0392
 3609SOL    HW111608   2.373   8.221   1.828 -0.4443  0.3606 -0.0433
 3609SOL    HW211609   2.327   8.302   1.708 -1.6751 -0.6952 -0.3001
 3610SOL     OW11610   0.155   2.604   4.593 -0.0444 -0.1137  0.4808
 3610SOL    HW111611   0.176   2.650   4.675  0.0691 -0.1071  0.4490
 3610SOL    HW211612   0.230   2.623   4.536 -0.1101 -0.1420  0.3859
 3611SOL     OW11613   6.821   4.389   6.576 -0.2151  0.7468  0.3153
 3611SOL    HW111614   6.780   4.391   6.663  0.0485  0.6288  0.4435
 3611SOL    HW211615   6.764   4.444   6.522  1.2420  3.3868  1.2726
 3612SOL     OW11616   2.612   0.706   5.345 -0.1676 -0.1216  0.2464
 3612SOL    HW111617   2.582   0.796   5.354  1.9681  0.6814  0.0614
 3612SOL    HW211618   2.643   0.700   5.254 -1.5555 -1.5101 -0.1909
 3613SOL     OW11619   5.923   4.581   3.428  0.4720 -0.4350  0.0075
 3613SOL    HW111620   5.914   4.486   3.426 -0.9157 -0.3392  0.7452
 3613SOL    HW211621   5.931   4.607   3.336 -2.3692 -1.0167 -0.4814
 3614SOL     OW11622   6.546   5.292   3.585  0.0417  0.1850  0.5764
 3614SOL    HW111623   6.592   5.352   3.645 -0.9850 -0.1712  1.7486
 3614SOL    HW211624   6.614   5.229   3.558  1.3931  2.2999 -1.4032
 3615SOL     OW11625   7.590   7.540   4.333 -0.2757 -1.0813 -0.2400
 3615SOL    HW111626   7.584   7.447   4.353  1.0363 -0.8385  1.4918
 3615SOL    HW211627   7.676   7.566   4.366 -0.9466  0.9009  0.0744
 3616SOL     OW11628   7.613   2.951   0.791  0.1877 -0.0293 -0.6921
 3616SOL    HW111629   7.668   2.957   0.712 -0.3003 -0.6648 -1.0874
 3616SOL    HW211630   7.524   2.969   0.760 -0.2662 -1.9572 -0.6254
 3617SOL     OW11631   4.236   4.675   3.708 -0.0959  0.1610 -0.2117
 3617SOL    HW111632   4.212   4.585   3.689 -1.0068  0.6545 -1.5608
 3617SOL    HW211633   4.275   4.672   3.795  1.7974 -1.8280 -1.0469
 3618SOL     OW11634   2.408   4.075   2.411 -0.3940 -0.4284 -0.5996
 3618SOL    HW111635   2.497   4.108   2.397 -0.4230  0.1531  0.4671
 3618SOL    HW211636   2.411   3.984   2.380  0.1588  0.0241 -1.9409
 3619SOL     OW11637   2.798   5.692   1.312 -0.1407  0.1128  0.1913
 3619SOL    HW111638   2.800   5.708   1.406  1.3461  1.1938  0.0167
 3619SOL    HW211639   2.806   5.597   1.303 -0.8814 -0.0517  1.1511
 3620SOL     OW11640   7.799   4.512   2.352 -0.3593 -0.6406  0.4595
 3620SOL    HW111641   7.863   4.445   2.376  3.4209  2.2344 -0.7066
 3620SOL    HW211642   7.759   4.478   2.272  0.0988 -2.2886  0.8900
 3621SOL     OW11643   4.655   6.746   7.994 -0.4235  0.1373  0.7339
 3621SOL    HW111644   4.670   6.683   7.923 -0.7860  1.2181 -0.3446
 3621SOL    HW211645   4.739   6.752   8.039  0.3740  0.8010 -0.7752
 3622SOL     OW11646   1.973   8.031   7.064 -0.2999 -0.3748 -0.5035
 3622SOL    HW111647   1.937   8.118   7.080 -0.0577 -0.2530 -0.6164
 3622SOL    HW211648   2.036   8.044   6.993  1.4953 -0.1853  1.0267
 3623SOL     OW11649   8.077   6.657   5.264 -0.0475  0.3174 -0.1454
 3623SOL    HW111650   8.048   6.730   5.210  0.6418  2.2489  1.9248
 3623SOL    HW211651   8.019   6.658   5.340  1.2649  0.0937  0.9134
 3624SOL     OW11652   3.735   1.784   5.529 -0.1490  0.6611  0.2636
 3624SOL    HW111653   3.671   1.735   5.581 -0.5996  0.4055 -0.5194
 3624SOL    HW211654   3.737   1.871   5.569 -0.9786  0.6697  0.2983
 3625SOL     OW11655   1.196   7.335   7.689 -0.0839  0.2759 -0.3744
 3625SOL    HW111656   1.279   7.289   7.687  0.5474  1.3935 -0.4506
 3625SOL    HW211657   1.192   7.380   7.605  0.2935  2.0293  0.5025
 3626SOL     OW11658   2.255   2.888   4.765  0.5210 -0.1514 -0.1539
 3626SOL    HW111659   2.197   2.963   4.756  0.4910 -0.2814 -1.2152
 3626SOL    HW211660   2.245   2.860   4.856  1.6578  2.0238  0.7221
 3627SOL     OW11661   4.355   8.167   0.494 -0.6721 -0.0018 -0.3841
 3627SOL    HW111662   4.275   8.130   0.457 -1.4077  0.2034  0.9618
 3627SOL    HW211663   4.367   8.250   0.447 -0.3094 -0.7905 -1.7494
 3628SOL     OW11664   7.149   3.789   5.789  0.1347  0.4172 -0.2926
 3628SOL    HW111665   7.157   3.797   5.694  2.5458  1.1160 -0.0909
 3628SOL    HW211666   7.097   3.709   5.802  0.8182 -0.3867 -2.1877
 3629SOL     OW11667   1.293   5.412   1.052  0.3447 -0.1972 -0.2198
 3629SOL    HW111668   1.341   5.431   0.972  1.5221  1.8224  0.8804
 3629SOL    HW211669   1.338   5.335   1.089  0.5002 -0.4562 -0.9385
 3630SOL     OW11670   0.141   1.273   7.434  0.0882  0.1208  0.2889
 3630SOL    HW111671   0.129   1.367   7.447  0.3021  0.2411 -0.3356
 3630SOL    HW211672   0.059   1.233   7.465  0.3224  0.4352  1.3318
 3631SOL     OW11673   8.078   7.316   2.509 -0.0811  0.3503 -0.2196
 3631SOL    HW111674   8.122   7.369   2.575 -1.1950  1.1816 -0.1186
 3631SOL    HW211675   8.037   7.245   2.559  2.2157 -1.2703 -0.4476
 3632SOL     OW11676   7.010   1.273   0.788  0.2283 -0.2737  0.4594
 3632SOL    HW111677   7.059   1.213   0.732  1.4627  0.9219  0.2107
 3632SOL    HW211678   6.953   1.321   0.728 -1.2165 -1.5924  0.7361
 3633SOL     OW11679   6.755   3.495   1.151  0.0318  0.2850 -0.1654
 3633SOL    HW111680   6.827   3.548   1.117 -1.3597 -0.1183 -4.3930
 3633SOL    HW211681   6.678   3.553   1.148 -0.5155 -0.3862  0.4808
 3634SOL     OW11682   5.416   2.595   3.590  0.7342 -0.4222  0.4510
 3634SOL    HW111683   5.392   2.633   3.675  0.4211 -1.1766  0.7060
 3634SOL    HW211684   5.347   2.623   3.531 -1.4062 -3.2750  1.3583
 3635SOL     OW11685   3.454   0.890   6.812 -0.5993  0.0360  0.4842
 3635SOL    HW111686   3.494   0.809   6.779 -1.3307  0.2535 -1.0202
 3635SOL    HW211687   3.454   0.880   6.908 -1.0112 -1.9179  0.3201
 3636SOL     OW11688   1.751   6.944   0.267  0.1038 -0.0493  0.1083
 3636SOL    HW111689   1.838   6.926   0.232 -0.1914 -1.0243 -0.1607
 3636SOL    HW211690   1.765   7.012   0.333  1.0507 -0.1254 -0.0004
 3637SOL     OW11691   4.432   3.345   0.738 -0.0730 -0.3892 -0.1564
 3637SOL    HW111692   4.516   3.392   0.737  0.9040 -1.9630  1.4795
 3637SOL    HW211693   4.451   3.261   0.697 -1.2032 -0.2841 -0.9341
 3638SOL     OW11694   0.593   5.484   6.777 -0.4412  0.1838 -0.1880
 3638SOL    HW111695   0.642   5.543   6.718  0.0775  0.7527  0.7861
 3638SOL    HW211696   0.656   5.415   6.799  0.2762  1.3993  1.7880
 3639SOL     OW11697   2.988   2.789   3.772  0.1578 -0.9418 -0.4701
 3639SOL    HW111698   2.921   2.832   3.825  0.1804  0.2956 -1.3882
 3639SOL    HW211699   3.064   2.783   3.829 -0.3743 -1.3264  0.2171
 3640SOL     OW11700   3.594   6.826   5.234  0.2847 -0.0029 -0.1048
 3640SOL    HW111701   3.582   6.898   5.172 -0.5836  0.5597  0.6919
 3640SOL    HW211702   3.611   6.869   5.318 -2.3169 -0.6402  0.8333
 3641SOL     OW11703   4.017   1.822   1.144 -0.2646  0.3129  0.1406
 3641SOL    HW111704   4.088   1.871   1.184  0.3194  0.6650 -1.2680
 3641SOL    HW211705   4.040   1.730   1.160  1.2126  0.3670 -1.3585
 3642SOL     OW11706   5.004   4.586   1.907  0.2854  0.3682 -0.2143
 3642SOL    HW111707   5.003   4.672   1.949 -0.0111  0.9513 -1.3610
 3642SOL    HW211708   5.097   4.568   1.893  0.3826  0.1896  0.6309
 3643SOL     OW11709   1.160   4.505   6.718 -0.5402 -0.1548 -0.2810
 3643SOL    HW111710   1.148   4.413   6.694  1.6108 -0.4863 -0.2587
 3643SOL    HW211711   1.181   4.548   6.635 -0.9860  0.2232 -0.2018
 3644SOL     OW11712   2.055   4.732   0.591 -0.1793  0.4144  0.1200
 3644SOL    HW111713   2.092   4.800   0.535  0.6207 -1.6235 -1.9734
 3644SOL    HW211714   2.132   4.692   0.633 -0.2821 -1.1924 -1.1185
 3645SOL     OW11715   7.630   4.213   2.124  0.9543  0.8900  0.0317
 3645SOL    HW111716   7.609   4.285   2.185 -0.5999  1.3317 -0.9606
 3645SOL    HW211717   7.593   4.241   2.041 -1.6966 -1.9598  0.0519
 3646SOL     OW11718   3.580   5.759   7.498 -0.9673 -0.0752  0.1506
 3646SOL    HW111719   3.553   5.695   7.564 -0.3256 -1.0685 -0.5276
 3646SOL    HW211720   3.612   5.834   7.549  0.0391 -1.0397  0.9677
 3647SOL     OW11721   0.482   0.738   5.856  0.0002 -0.2149  0.2164
 3647SOL    HW111722   0.552   0.762   5.917 -1.6190  4.1178  0.7398
 3647SOL    HW211723   0.528   0.711   5.776  2.1982 -0.7874  1.6017
 3648SOL     OW11724   0.601   1.820   5.643 -0.3507  0.3852  0.3087
 3648SOL    HW111725   0.600   1.744   5.585  1.4264  1.1760 -0.8565
 3648SOL    HW211726   0.509   1.838   5.662 -0.8305 -1.5600 -0.0155
 3649SOL     OW11727   1.930   5.635   2.122 -0.2148 -0.2171 -0.0948
 3649SOL    HW111728   1.898   5.621   2.211  2.6258 -0.5382  0.9939
 3649SOL    HW211729   1.951   5.729   2.119  1.4436 -0.5395  0.2924
 3650SOL     OW11730   1.983   8.155   2.037  0.5533 -0.4617 -0.4030
 3650SOL    HW111731   2.010   8.151   2.129  1.4676  0.0928 -0.6413
 3650SOL    HW211732   1.953   8.066   2.018 -1.0887 -0.2277  0.8452
 3651SOL     OW11733   1.704   2.636   2.206  0.0045 -0.1709 -0.3234
 3651SOL    HW111734   1.644   2.703   2.238 -0.1767 -0.0708 -0.8595
 3651SOL    HW211735   1.666   2.554   2.236 -0.1614 -0.0804 -0.2805
 3652SOL     OW11736   6.653   1.244   4.640  1.1122 -0.5828  0.2799
 3652SOL    HW111737   6.560   1.221   4.645  0.6937  0.8824 -0.1628
 3652SOL    HW211738   6.686   1.227   4.728  0.3347 -0.7991  0.5379
 3653SOL     OW11739   4.808   4.068   4.719 -0.5258 -0.1474 -0.4592
 3653SOL    HW111740   4.892   4.051   4.762  0.5808  0.6071 -2.1768
 3653SOL    HW211741   4.814   4.020   4.636 -0.7228  1.8617 -1.7043
 3654SOL     OW11742   0.686   5.223   3.841  0.1951 -0.2608 -0.2258
 3654SOL    HW111743   0.685   5.150   3.904  0.0687  0.4339  0.5865
 3654SOL    HW211744   0.773   5.261   3.850  0.1750 -0.1566 -0.4742
 3655SOL     OW11745   4.665   8.107   7.214  0.2279 -0.3648 -0.0429
 3655SOL    HW111746   4.612   8.183   7.240  1.1948  0.0289  0.8439
 3655SOL    HW211747   4.721   8.090   7.290  3.9896  1.5282 -2.1259
 3656SOL     OW11748   0.037   5.276   6.230  0.4734  0.1517 -0.8661
 3656SOL    HW111749  -0.020   5.200   6.216 -1.7319  1.1621  1.6205
 3656SOL    HW211750   0.113   5.241   6.277 -0.6669 -0.5657  0.5482
 3657SOL     OW11751   6.339   1.889   3.035 -0.2843  0.4530 -0.2707
 3657SOL    HW111752   6.313   1.933   3.116 -0.0550  0.5081 -0.2276
 3657SOL    HW211753   6.262   1.838   3.011 -0.1485 -0.0309  0.2994
 3658SOL     OW11754   5.572   2.032   7.704 -0.1004  0.8606 -0.1685
 3658SOL    HW111755   5.574   1.963   7.771  1.0169 -0.1002 -1.1522
 3658SOL    HW211756   5.478   2.044   7.686 -0.4072  0.8836  1.2807
 3659SOL     OW11757   2.507   2.454   7.717 -0.3066  0.7091  0.6537
 3659SOL    HW111758   2.556   2.419   7.792 -1.5942  0.7341  1.5333
 3659SOL    HW211759   2.517   2.388   7.649  1.6277  1.0830  0.5030
 3660SOL     OW11760   5.188   0.905   2.112 -0.3079 -0.1407 -0.1056
 3660SOL    HW111761   5.101   0.936   2.085 -0.4166  0.3234  0.7439
 3660SOL    HW211762   5.244   0.982   2.105 -0.1587 -0.2221  0.2029
 3661SOL     OW11763   0.337   0.817   8.144 -0.2656  0.1015  0.3378
 3661SOL    HW111764   0.296   0.819   8.058 -0.3140 -0.0415  0.3569
 3661SOL    HW211765   0.267   0.791   8.204  0.3414 -2.3580  0.0794
 3662SOL     OW11766   4.792   6.115   6.869  0.3634 -0.6273 -0.0527
 3662SOL    HW111767   4.728   6.127   6.940  2.7626 -0.6678  2.2753
 3662SOL    HW211768   4.788   6.021   6.849  0.0070 -0.7176  0.4160
 3663SOL     OW11769   7.006   4.315   4.553 -0.0673  0.1916 -0.2341
 3663SOL    HW111770   7.047   4.235   4.588 -2.1337 -1.0136 -0.4301
 3663SOL    HW211771   7.079   4.376   4.544  1.1958 -0.6662  2.6474
 3664SOL     OW11772   7.447   4.079   5.890  0.6709  0.3770 -0.5593
 3664SOL    HW111773   7.431   4.033   5.972 -0.0373  0.7222 -0.5015
 3664SOL    HW211774   7.432   4.013   5.822  0.5895  0.2713 -0.4391
 3665SOL     OW11775   4.453   8.171   5.768  0.1202 -0.2041  0.0744
 3665SOL    HW111776   4.420   8.125   5.846  2.2484  0.5029  1.4849
 3665SOL    HW211777   4.547   8.159   5.771  0.3416  0.6538 -1.9058
 3666SOL     OW11778   2.456   0.998   2.406 -0.5399 -0.3497  0.7033
 3666SOL    HW111779   2.539   1.034   2.435 -0.3774  0.9348 -1.2206
 3666SOL    HW211780   2.464   0.903   2.422  0.5042 -0.0324  2.2839
 3667SOL     OW11781   7.508   1.137   1.626 -0.0119  0.4534 -0.1037
 3667SOL    HW111782   7.455   1.112   1.702 -0.1221  1.5284  0.1845
 3667SOL    HW211783   7.508   1.059   1.570 -2.2298  0.5415 -0.2992
 3668SOL     OW11784   0.151   1.581   7.488 -0.6830 -0.4835  0.5001
 3668SOL    HW111785   0.211   1.642   7.531  2.2793 -2.0937 -1.0606
 3668SOL    HW211786   0.114   1.631   7.415  1.9140 -0.4885 -0.9305
 3669SOL     OW11787   2.029   5.034   0.123  0.1716  0.0315 -0.6456
 3669SOL    HW111788   2.022   5.011   0.215  0.3001 -1.4403 -0.9870
 3669SOL    HW211789   1.945   5.006   0.085  0.0495  0.7855 -0.9543
 3670SOL     OW11790   1.245   7.030   5.954 -0.7470 -0.3698 -0.3577
 3670SOL    HW111791   1.223   7.047   6.045  1.0529  0.6846 -0.0696
 3670SOL    HW211792   1.196   7.096   5.905 -1.1268 -0.4458 -0.0848
 3671SOL     OW11793   5.261   4.931   4.096 -0.1469  0.4035  0.5560
 3671SOL    HW111794   5.194   4.922   4.029 -1.1238  0.5591  1.4903
 3671SOL    HW211795   5.213   4.952   4.176  0.8304 -1.3527  1.6787
 3672SOL     OW11796   5.357   6.475   3.712  0.0961  0.3136  0.2413
 3672SOL    HW111797   5.265   6.455   3.696  0.1665 -0.4285  0.7277
 3672SOL    HW211798   5.357   6.527   3.793  0.0598  0.8070 -0.0728
 3673SOL     OW11799   7.804   0.869   0.591  0.9582 -0.4360  1.0756
 3673SOL    HW111800   7.805   0.793   0.649 -0.8311 -0.5107  1.0413
 3673SOL    HW211801   7.892   0.870   0.553  1.3512 -1.8740  1.8541
 3674SOL     OW11802   1.264   1.204   1.575  0.2191  0.0562  0.1036
 3674SOL    HW111803   1.209   1.206   1.653 -0.1400  0.5684 -0.1564
 3674SOL    HW211804   1.339   1.261   1.596 -0.5342  1.2674 -0.3914
 3675SOL     OW11805   6.888   0.060   5.471 -0.3124  0.4376 -0.1750
 3675SOL    HW111806   6.855   0.141   5.509  0.6446  1.3633 -1.2474
 3675SOL    HW211807   6.884   0.074   5.376 -0.8521 -1.0772 -0.4198
 3676SOL     OW11808   2.378   7.317   3.443  0.3686  1.1280 -0.2647
 3676SOL    HW111809   2.304   7.326   3.503  0.4062  0.7931 -0.1636
 3676SOL    HW211810   2.378   7.397   3.392  0.8513  1.8012  0.7665
 3677SOL     OW11811   0.765   2.674   4.365 -0.3957  0.1242 -0.6789
 3677SOL    HW111812   0.729   2.608   4.424 -0.1795 -1.4236 -2.1634
 3677SOL    HW211813   0.733   2.757   4.398 -1.5717 -0.8189  0.6636
 3678SOL     OW11814   3.948   7.289   5.906  0.0021  0.5524  0.3033
 3678SOL    HW111815   3.968   7.373   5.865  0.5269  0.5122  0.4697
 3678SOL    HW211816   3.946   7.307   6.000 -0.2478  0.4502  0.3200
 3679SOL     OW11817   6.073   0.754   6.234 -0.1076 -0.3204  0.1744
 3679SOL    HW111818   6.068   0.828   6.296 -0.9167 -1.9041  2.1159
 3679SOL    HW211819   6.166   0.735   6.227  0.2217  1.5153 -1.2223
 3680SOL     OW11820   6.484   7.448   7.228  0.3289 -0.4636 -0.2882
 3680SOL    HW111821   6.430   7.510   7.277  1.8769  1.7416 -1.2204
 3680SOL    HW211822   6.544   7.411   7.293 -0.8984 -1.4341  0.3596
 3681SOL     OW11823   0.198   3.700   1.936 -0.5233  0.1299 -0.2563
 3681SOL    HW111824   0.172   3.780   1.981  0.9757  0.4895  0.0012
 3681SOL    HW211825   0.271   3.665   1.986 -0.7176 -1.0546 -0.7448
 3682SOL     OW11826   4.300   3.225   7.267 -0.0046  0.3751  0.2683
 3682SOL    HW111827   4.359   3.300   7.268  1.9872 -1.1148 -0.0831
 3682SOL    HW211828   4.276   3.214   7.175 -0.2964  0.5517  0.3197
 3683SOL     OW11829   2.955   1.183   0.560 -0.3643 -0.2617  0.2203
 3683SOL    HW111830   3.021   1.217   0.499  0.5372 -0.1127  1.2402
 3683SOL    HW211831   2.986   1.211   0.647 -2.9824  1.8345  0.5964
 3684SOL     OW11832   2.386   6.840   3.218 -0.3861 -0.4329 -0.0462
 3684SOL    HW111833   2.449   6.871   3.284 -1.8319  2.3440  0.2135
 3684SOL    HW211834   2.323   6.788   3.268 -0.5885  0.3378  0.5387
 3685SOL     OW11835   2.369   7.053   6.481 -0.4294  0.2462 -0.2346
 3685SOL    HW111836   2.294   7.112   6.491 -0.6508  0.0587 -0.7605
 3685SOL    HW211837   2.332   6.973   6.444 -0.2683 -0.5622  1.2913
 3686SOL     OW11838   5.649   0.671   2.574  0.1369  0.4506 -0.1981
 3686SOL    HW111839   5.644   0.582   2.609  1.2092 -0.2032 -1.5672
 3686SOL    HW211840   5.591   0.670   2.498  0.0752  0.9606 -0.1611
 3687SOL     OW11841   6.822   2.942   7.195 -0.4442  0.1312  0.2784
 3687SOL    HW111842   6.906   2.909   7.227 -0.9683 -0.5542  1.0050
 3687SOL    HW211843   6.834   3.036   7.187 -0.2774  0.3591  2.5951
 3688SOL     OW11844   7.069   7.768   2.589  0.1410 -0.1997  0.1530
 3688SOL    HW111845   7.036   7.681   2.566  0.6204 -0.4145  0.2726
 3688SOL    HW211846   7.026   7.788   2.672  0.1113 -0.3635  0.1775
 3689SOL     OW11847   0.280   4.620   3.005  0.3465 -0.2386  0.4524
 3689SOL    HW111848   0.250   4.709   2.984  1.9551  0.6049  1.5912
 3689SOL    HW211849   0.262   4.610   3.099  1.0752 -0.7494  0.5421
 3690SOL     OW11850   7.941   5.866   7.225  0.4531  0.3867  0.4532
 3690SOL    HW111851   7.867   5.920   7.253  0.9313  1.1657  0.2415
 3690SOL    HW211852   8.015   5.899   7.276  0.8117  0.1170  0.1136
 3691SOL     OW11853   2.318   8.144   3.229  0.4289 -0.0653  0.4421
 3691SOL    HW111854   2.377   8.103   3.166  2.0250  1.8652  0.5688
 3691SOL    HW211855   2.337   8.238   3.221 -1.2919  0.4534  1.8683
 3692SOL     OW11856   8.166   0.310   1.929  0.0831  0.1284 -0.0191
 3692SOL    HW111857   8.098   0.287   1.866 -1.0607  1.2028  0.7651
 3692SOL    HW211858   8.236   0.349   1.877  0.2218 -1.2007 -0.8663
 3693SOL     OW11859   3.255   7.615   5.433  0.5909  0.5094 -0.2946
 3693SOL    HW111860   3.291   7.545   5.488  0.1180  0.0975 -0.4962
 3693SOL    HW211861   3.330   7.648   5.384  0.6979 -0.3591 -0.7348
 3694SOL     OW11862   6.161   1.447   3.023  0.0880  0.2066  0.4819
 3694SOL    HW111863   6.178   1.541   3.030  0.1446  0.1791  0.7314
 3694SOL    HW211864   6.245   1.408   3.000 -0.2808  0.3928 -1.3536
 3695SOL     OW11865   7.775   2.543   1.880 -0.2570  0.0751 -0.6606
 3695SOL    HW111866   7.765   2.529   1.786 -0.2910 -0.8172 -0.5302
 3695SOL    HW211867   7.841   2.479   1.908 -0.4698  0.1179 -0.0299
 3696SOL     OW11868   8.024   2.779   3.224 -0.0965  0.3022 -0.4695
 3696SOL    HW111869   7.949   2.800   3.167  1.1652 -0.4331 -2.5150
 3696SOL    HW211870   7.997   2.701   3.272 -1.3193  1.1225  0.2269
 3697SOL     OW11871   0.190   5.310   0.391  0.0636 -0.1630  0.0942
 3697SOL    HW111872   0.165   5.225   0.356  0.8472 -0.0964 -0.6613
 3697SOL    HW211873   0.115   5.366   0.374 -0.6184 -0.7845  0.9528
 3698SOL     OW11874   3.398   6.891   2.577 -0.0343 -0.0189  0.2603
 3698SOL    HW111875   3.322   6.941   2.609  1.0827  1.2304  1.0895
 3698SOL    HW211876   3.426   6.839   2.652 -1.0590 -1.8314 -0.5401
 3699SOL     OW11877   6.492   2.412   3.962 -0.0160 -0.4264 -0.4052
 3699SOL    HW111878   6.580   2.426   3.997  0.2411  1.3837 -1.6251
 3699SOL    HW211879   6.488   2.318   3.944  1.0972 -0.7926  1.0728
 3700SOL     OW11880   0.638   5.958   1.938 -0.1191 -0.2591  0.6215
 3700SOL    HW111881   0.603   6.047   1.937  0.4071 -0.0515  0.0007
 3700SOL    HW211882   0.564   5.903   1.912  0.4100  0.3582 -2.6353
 3701SOL     OW11883   1.202   4.502   1.203 -0.1112 -0.3989 -0.4894
 3701SOL    HW111884   1.157   4.438   1.259 -0.8066  0.0632 -0.4958
 3701SOL    HW211885   1.267   4.543   1.261  0.5791 -1.3399 -0.5792
 3702SOL     OW11886   0.127   5.077   7.483  0.4794  0.0647 -0.1087
 3702SOL    HW111887   0.055   5.108   7.428  1.5151  1.5453 -0.7154
 3702SOL    HW211888   0.180   5.023   7.425  1.0771  0.8822 -0.3577
 3703SOL     OW11889   2.513   5.165   5.601 -0.4575 -0.2685 -0.1976
 3703SOL    HW111890   2.464   5.110   5.540  0.3718 -0.9517 -0.2745
 3703SOL    HW211891   2.510   5.118   5.684  0.2426 -0.4285 -0.2593
 3704SOL     OW11892   1.580   3.452   5.216  0.1133 -0.5085  0.0250
 3704SOL    HW111893   1.520   3.381   5.237 -1.1134  1.0264  2.1185
 3704SOL    HW211894   1.637   3.458   5.294  1.8128 -0.7182 -1.1414
 3705SOL     OW11895   3.913   1.235   3.004  0.3043 -0.1539  0.4268
 3705SOL    HW111896   3.920   1.155   3.056  1.5187  0.6035  1.4965
 3705SOL    HW211897   3.831   1.226   2.956 -0.4550 -1.2579  1.8625
 3706SOL     OW11898   6.581   0.415   7.755  0.0971 -0.2658 -0.6044
 3706SOL    HW111899   6.539   0.501   7.759  3.2999  1.4170  0.7780
 3706SOL    HW211900   6.564   0.376   7.841  1.0172  0.2892 -0.1534
 3707SOL     OW11901   2.876   1.699   4.038  0.5059  0.9493  0.4992
 3707SOL    HW111902   2.803   1.717   4.098  0.4284  0.2194  0.6307
 3707SOL    HW211903   2.941   1.766   4.059 -0.1965  1.7300  0.2510
 3708SOL     OW11904   7.104   7.713   0.864  0.0460 -0.2804  0.0679
 3708SOL    HW111905   7.191   7.721   0.902  0.2146 -0.3566 -0.2976
 3708SOL    HW211906   7.107   7.769   0.786 -0.3949  0.1280  0.3354
 3709SOL     OW11907   3.998   8.032   3.822  0.0817  0.0046 -0.5674
 3709SOL    HW111908   3.935   8.082   3.874 -1.4411 -1.6150 -0.7584
 3709SOL    HW211909   4.078   8.033   3.874 -0.4124  1.1731  0.2269
 3710SOL     OW11910   6.423   5.417   0.010  0.0681 -0.2544 -0.7641
 3710SOL    HW111911   6.341   5.408  -0.037 -0.3248 -0.4147 -0.0536
 3710SOL    HW211912   6.422   5.506   0.045  0.4902 -0.0346 -1.3019
 3711SOL     OW11913   7.515   4.173   6.751  0.0865 -0.5939 -0.1084
 3711SOL    HW111914   7.501   4.118   6.674 -0.6673 -0.4026 -0.1189
 3711SOL    HW211915   7.543   4.258   6.715  0.7867 -0.8209 -0.1132
 3712SOL     OW11916   5.663   6.295   4.508 -0.6388  0.3985 -0.3730
 3712SOL    HW111917   5.737   6.280   4.449 -1.0337  0.8079 -0.9836
 3712SOL    HW211918   5.678   6.383   4.542  0.9569 -0.7422  2.1632
 3713SOL     OW11919   2.204   2.551   2.601  0.1313 -0.3211  0.1715
 3713SOL    HW111920   2.224   2.594   2.685  0.4848  1.3117 -0.6898
 3713SOL    HW211921   2.259   2.598   2.538 -1.5366 -0.2210 -1.2611
 3714SOL     OW11922   1.202   5.137   0.426  0.0467  0.6614 -0.2948
 3714SOL    HW111923   1.183   5.059   0.478 -0.3827 -0.4359 -2.0088
 3714SOL    HW211924   1.292   5.123   0.395  0.0950  1.0261 -0.3172
 3715SOL     OW11925   5.102   1.372   6.942 -0.2646 -0.4622  0.2717
 3715SOL    HW111926   5.178   1.397   6.889 -0.0903  1.0337  1.1692
 3715SOL    HW211927   5.048   1.450   6.946 -0.8594 -0.8972  1.3207
 3716SOL     OW11928   4.787   6.404   5.686 -0.4068 -0.0020 -0.1841
 3716SOL    HW111929   4.713   6.450   5.726 -0.3817 -1.8061  2.1388
 3716SOL    HW211930   4.751   6.319   5.660  0.2544  0.1137 -1.5588
 3717SOL     OW11931   0.764   1.771   1.138  0.4569  0.0639 -0.0154
 3717SOL    HW111932   0.691   1.743   1.193 -0.3358 -0.5693 -1.3412
 3717SOL    HW211933   0.775   1.864   1.159 -1.7825  0.5919 -0.9048
 3718SOL     OW11934   2.834   2.248   4.551 -0.1355  0.1728 -0.2795
 3718SOL    HW111935   2.754   2.300   4.542 -0.4524 -0.1223  0.6763
 3718SOL    HW211936   2.805   2.165   4.589  0.4268 -0.5326 -1.3551
 3719SOL     OW11937   1.104   6.149   7.329  0.1196  0.6509 -0.1071
 3719SOL    HW111938   1.136   6.060   7.342 -1.9149 -0.0094  0.7709
 3719SOL    HW211939   1.024   6.139   7.277  0.4065  2.0744 -0.8939
 3720SOL     OW11940   3.247   7.052   4.829  0.2466 -0.3238  0.3528
 3720SOL    HW111941   3.154   7.073   4.817  0.1954 -1.3429 -1.5777
 3720SOL    HW211942   3.255   7.026   4.920 -1.3422 -0.0754  0.5832
 3721SOL     OW11943   7.018   0.061   7.199  0.1063 -0.8098  0.0268
 3721SOL    HW111944   7.064   0.144   7.188 -1.4687  0.3805  1.9009
 3721SOL    HW211945   6.978   0.045   7.114 -1.7457  1.7740  0.2997
 3722SOL     OW11946   3.136   1.058   2.467  0.4382 -0.3200  0.0002
 3722SOL    HW111947   3.125   0.981   2.523  0.2606 -1.5650 -1.6819
 3722SOL    HW211948   3.069   1.119   2.498 -0.7679 -1.6306  0.0934
 3723SOL     OW11949   1.539   6.034   6.467 -0.0209 -0.1948 -0.2256
 3723SOL    HW111950   1.546   6.046   6.562  0.7607  2.1593 -0.5323
 3723SOL    HW211951   1.626   6.007   6.439 -0.5154 -2.0041 -0.2105
 3724SOL     OW11952   2.337   2.860   0.937  0.4208 -0.1093 -0.2265
 3724SOL    HW111953   2.350   2.886   1.028  2.1581  0.3182 -0.5581
 3724SOL    HW211954   2.343   2.942   0.888 -3.1141  0.1089 -0.6043
 3725SOL     OW11955   0.645   3.654   2.390  0.1824 -0.1291 -0.1651
 3725SOL    HW111956   0.589   3.650   2.313 -2.1071  2.1605  1.2261
 3725SOL    HW211957   0.681   3.566   2.398 -1.9891 -1.3004 -2.0588
 3726SOL     OW11958   2.728   7.149   1.601  0.1611  0.1876  0.5572
 3726SOL    HW111959   2.670   7.076   1.579 -1.3451  1.5830 -0.3401
 3726SOL    HW211960   2.775   7.168   1.520 -0.4771  1.0880  0.3910
 3727SOL     OW11961   7.843   3.334   8.288 -0.4915  0.2110  0.0928
 3727SOL    HW111962   7.842   3.242   8.314 -0.7282  0.7005  2.0253
 3727SOL    HW211963   7.881   3.379   8.364  0.7184  1.6008 -1.2652
 3728SOL     OW11964   3.781   7.894   5.729  0.0301  0.4686  0.1958
 3728SOL    HW111965   3.828   7.966   5.685  0.0724  0.3135 -0.0168
 3728SOL    HW211966   3.745   7.842   5.657  1.8243 -0.9545  0.2396
 3729SOL     OW11967   7.350   0.943   1.442  0.2701  0.4544 -0.1305
 3729SOL    HW111968   7.375   0.963   1.351  1.3472 -0.1832  0.0037
 3729SOL    HW211969   7.276   1.001   1.460 -0.0405  0.5060 -1.4558
 3730SOL     OW11970   7.191   1.248   1.493  0.3560  0.0855  0.1844
 3730SOL    HW111971   7.185   1.264   1.588 -1.6794 -1.4994  0.3853
 3730SOL    HW211972   7.274   1.290   1.468  1.4125 -0.1902  2.8010
 3731SOL     OW11973   2.900   7.342   6.099 -0.2226  0.1124 -0.1114
 3731SOL    HW111974   2.927   7.353   6.190  0.3706  2.7672 -0.5152
 3731SOL    HW211975   2.893   7.247   6.087  2.3517 -0.4468  1.9222
 3732SOL     OW11976   7.223   7.152   0.179 -0.1940  0.6133  0.3037
 3732SOL    HW111977   7.180   7.067   0.187  0.2086  0.3587 -0.1752
 3732SOL    HW211978   7.165   7.204   0.123  0.3977  0.0706 -0.8411
 3733SOL     OW11979   8.012   5.192   7.816  0.2178  0.0937 -0.1283
 3733SOL    HW111980   7.952   5.266   7.810 -0.5024 -0.4907 -0.3074
 3733SOL    HW211981   8.031   5.185   7.910  1.4142  1.3543 -0.2343
 3734SOL     OW11982   5.160   0.567   2.359 -0.1419 -0.1622 -0.3973
 3734SOL    HW111983   5.137   0.658   2.381  0.5949 -0.0203 -0.1884
 3734SOL    HW211984   5.093   0.540   2.296  0.4433  1.0183 -1.5774
 3735SOL     OW11985   4.538   6.197   2.897  0.1282 -0.1039 -0.2328
 3735SOL    HW111986   4.448   6.207   2.926 -0.2006 -2.4282 -0.1986
 3735SOL    HW211987   4.585   6.165   2.974  1.0513  1.2143 -0.2117
 3736SOL     OW11988   1.438   0.285   6.363 -0.1551 -0.2607  0.2727
 3736SOL    HW111989   1.474   0.368   6.333 -0.6952 -0.2767 -0.4328
 3736SOL    HW211990   1.471   0.220   6.302 -0.4791 -0.4312  0.2751
 3737SOL     OW11991   4.238   3.725   6.237  0.6758  0.0020  0.5345
 3737SOL    HW111992   4.165   3.744   6.296  1.3864  2.3356  0.7648
 3737SOL    HW211993   4.198   3.716   6.151 -0.3227 -2.9822  1.1611
 3738SOL     OW11994   6.949   1.290   3.088  0.3763 -0.1150  0.7449
 3738SOL    HW111995   7.023   1.346   3.110  0.8739 -0.5286  0.1358
 3738SOL    HW211996   6.976   1.244   3.009 -0.7552  0.1487  0.1810
 3739SOL     OW11997   6.180   8.107   4.591  0.4800  0.1125  0.1656
 3739SOL    HW111998   6.099   8.060   4.569 -0.6876  0.7516  2.7336
 3739SOL    HW211999   6.247   8.039   4.595 -0.2937 -0.6922 -0.2830
 3740SOL     OW12000   4.894   5.159   3.508  0.2885 -0.5440 -0.2613
 3740SOL    HW112001   4.845   5.219   3.564  1.4307  0.4103 -0.2353
 3740SOL    HW212002   4.863   5.072   3.532 -0.3703 -0.0548  0.7281
 3741SOL     OW12003   3.494   1.810   6.731 -0.2236 -0.1279 -0.3589
 3741SOL    HW112004   3.588   1.797   6.717 -0.3515 -0.8985 -0.5781
 3741SOL    HW212005   3.454   1.788   6.646 -0.6134 -0.0028 -0.2110
 3742SOL     OW12006   2.824   3.167   3.514  0.2886 -0.5107 -0.2307
 3742SOL    HW112007   2.837   3.076   3.486  0.9744  0.2231 -2.4556
 3742SOL    HW212008   2.854   3.220   3.440  0.5337  1.5648  1.2730
 3743SOL     OW12009   0.995   2.895   2.771 -0.0464 -0.1149 -0.3587
 3743SOL    HW112010   0.964   2.983   2.792 -0.1674 -0.1759 -0.2754
 3743SOL    HW212011   1.037   2.865   2.852 -0.9728 -0.5501 -0.0199
 3744SOL     OW12012   8.126   4.326   6.899  0.4526  0.3490 -0.7823
 3744SOL    HW112013   8.140   4.234   6.877 -1.4413 -0.0112 -0.6018
 3744SOL    HW212014   8.175   4.374   6.832  0.8103 -0.7723 -1.3553
 3745SOL     OW12015   7.741   7.113   1.039 -0.4802 -0.1369 -0.0551
 3745SOL    HW112016   7.660   7.067   1.016 -0.3542 -0.4328  0.0848
 3745SOL    HW212017   7.715   7.204   1.047 -0.8056 -0.2317  0.0014
 3746SOL     OW12018   1.290   3.354   7.099 -0.4802 -0.0669 -0.2757
 3746SOL    HW112019   1.197   3.348   7.079 -0.2567 -0.8137 -1.1764
 3746SOL    HW212020   1.294   3.402   7.181 -1.7394 -1.3396  0.5718
 3747SOL     OW12021   0.005   0.547   8.226 -0.1092  0.0464  0.3274
 3747SOL    HW112022   0.084   0.534   8.174 -0.3756 -0.6157  0.0809
 3747SOL    HW212023   0.014   0.488   8.301 -0.7203 -0.6351 -0.1147
 3748SOL     OW12024   5.439   5.646   6.579  0.1405  0.0922  0.0462
 3748SOL    HW112025   5.380   5.608   6.645  0.1246 -0.7935 -0.4591
 3748SOL    HW212026   5.468   5.571   6.528  1.1987  0.6122 -0.1274
 3749SOL     OW12027   0.531   4.843   4.187 -0.4720  0.0808 -0.1626
 3749SOL    HW112028   0.482   4.784   4.244  0.6852  0.1700  0.9867
 3749SOL    HW212029   0.487   4.927   4.195 -1.1280 -0.2283 -0.4826
 3750SOL     OW12030   1.871   4.061   7.850 -0.6721  0.3609  0.3460
 3750SOL    HW112031   1.775   4.051   7.851 -0.9331  1.3922 -2.5209
 3750SOL    HW212032   1.886   4.146   7.891 -0.8779 -0.1721  1.5609
 3751SOL     OW12033   8.249   5.804   0.420 -0.2798  0.3905  0.3868
 3751SOL    HW112034   8.303   5.787   0.343 -0.3129  0.1268  0.4208
 3751SOL    HW212035   8.190   5.874   0.393 -0.8104 -0.2227 -0.0790
 3752SOL     OW12036   2.254   4.830   5.933  0.1394 -0.2181 -0.2803
 3752SOL    HW112037   2.319   4.759   5.933  1.7071  1.1738 -0.3598
 3752SOL    HW212038   2.181   4.794   5.984  0.8694 -1.9056 -0.3483
 3753SOL     OW12039   1.254   0.058   2.212  0.5405  0.4917  0.1922
 3753SOL    HW112040   1.159   0.063   2.228  0.3550  2.5927 -1.1885
 3753SOL    HW212041   1.269  -0.034   2.191 -1.4166  0.3025 -0.6502
 3754SOL     OW12042   2.520   0.265   5.119  0.1865 -0.2629 -0.0618
 3754SOL    HW112043   2.615   0.259   5.134  0.1365 -0.3548  0.2230
 3754SOL    HW212044   2.489   0.176   5.134 -0.2348  0.1559  1.8595
 3755SOL     OW12045   5.982   1.099   7.884  0.4003  0.5155 -0.2244
 3755SOL    HW112046   5.955   1.189   7.865 -0.0426  0.7053  1.2322
 3755SOL    HW212047   5.955   1.049   7.806 -0.2904  1.4495 -0.6024
 3756SOL     OW12048   7.016   2.747   4.248 -0.4556  0.0551 -0.4350
 3756SOL    HW112049   7.110   2.733   4.242 -0.1671 -0.1008  2.6808
 3756SOL    HW212050   7.006   2.842   4.239 -0.0170  0.0609 -0.9090
 3757SOL     OW12051   2.700   1.486   6.791 -0.4324 -0.2867 -0.5237
 3757SOL    HW112052   2.616   1.470   6.748  0.0109 -0.2528 -1.4052
 3757SOL    HW212053   2.707   1.581   6.797 -0.6109 -0.2942 -0.1246
 3758SOL     OW12054   2.435   3.008   2.343  0.1690  0.9170 -0.4733
 3758SOL    HW112055   2.507   3.065   2.367 -1.8513  2.2316  3.2706
 3758SOL    HW212056   2.365   3.067   2.317 -0.4473 -0.1579 -1.3490
 3759SOL     OW12057   0.485   7.013   2.126 -0.1480  0.1591  0.1236
 3759SOL    HW112058   0.503   6.972   2.041  1.4872  1.3630 -0.1703
 3759SOL    HW212059   0.399   7.054   2.114  0.1102  0.4175 -1.0033
 3760SOL     OW12060   1.521   5.688   2.929 -0.7127 -0.8438  0.5626
 3760SOL    HW112061   1.617   5.686   2.931 -0.6828 -1.3656 -0.3609
 3760SOL    HW212062   1.498   5.617   2.869 -1.7662 -2.1908  2.4644
 3761SOL     OW12063   7.332   3.655   1.627  0.4182 -1.0227 -0.7308
 3761SOL    HW112064   7.328   3.689   1.538  1.5174  0.7270 -0.1716
 3761SOL    HW212065   7.306   3.729   1.682  0.6066 -1.8058  0.4573
 3762SOL     OW12066   1.211   7.738   6.360  0.0287  0.3952  0.0761
 3762SOL    HW112067   1.193   7.678   6.288 -0.3406  2.5925 -1.7799
 3762SOL    HW212068   1.126   7.779   6.378  0.6048  1.6625  0.0199
 3763SOL     OW12069   1.087   2.106   7.817  0.4951  0.5687 -0.2416
 3763SOL    HW112070   1.038   2.159   7.880  0.4595 -0.6952  0.8177
 3763SOL    HW212071   1.176   2.141   7.821  0.6010  0.2131  0.8567
 3764SOL     OW12072   6.239   3.489   6.025  0.0861 -0.3617 -0.3916
 3764SOL    HW112073   6.262   3.484   6.118 -1.1851 -1.7316 -0.1117
 3764SOL    HW212074   6.183   3.412   6.010 -0.3430  0.2419 -2.1178
 3765SOL     OW12075   4.919   2.578   7.488  0.1102 -0.3924 -0.7578
 3765SOL    HW112076   4.852   2.521   7.450 -0.5296  0.0276 -0.2883
 3765SOL    HW212077   4.932   2.545   7.576  1.8259 -1.5611 -1.4057
 3766SOL     OW12078   3.100   2.890   6.503  0.2977 -0.4478  0.1204
 3766SOL    HW112079   3.159   2.836   6.556  1.2047 -1.3854 -1.7530
 3766SOL    HW212080   3.016   2.844   6.505  0.5554 -0.9192  0.0781
 3767SOL     OW12081   7.812   7.036   4.900  0.1848 -0.1984  0.2334
 3767SOL    HW112082   7.849   7.012   4.815  3.8546  0.9418  1.3422
 3767SOL    HW212083   7.786   7.127   4.889 -0.1897 -0.3179  0.1055
 3768SOL     OW12084   4.982   3.477   8.263 -0.1735 -0.1450 -0.0341
 3768SOL    HW112085   4.993   3.561   8.218 -2.0091 -0.3267 -0.9469
 3768SOL    HW212086   4.912   3.492   8.326  0.6348 -0.5669  0.9834
 3769SOL     OW12087   8.169   4.464   6.652  0.1699  0.3354 -0.4490
 3769SOL    HW112088   8.162   4.529   6.582 -0.0473 -0.1665 -0.8935
 3769SOL    HW212089   8.097   4.403   6.637  0.4710 -0.1091 -0.1329
 3770SOL     OW12090   3.529   8.109   2.461 -0.0884  0.2554  0.4306
 3770SOL    HW112091   3.546   8.163   2.537  0.0204  0.6107  0.1557
 3770SOL    HW212092   3.466   8.043   2.491 -1.2334  1.3156  0.4357
 3771SOL     OW12093   1.213   6.307   1.731 -0.5475  0.0700 -0.0984
 3771SOL    HW112094   1.205   6.216   1.760 -2.3833 -0.4072 -1.8700
 3771SOL    HW212095   1.208   6.302   1.635  0.3345  1.9612 -0.2830
 3772SOL     OW12096   1.199   7.972   0.929 -0.4135  0.2235  0.3210
 3772SOL    HW112097   1.114   8.002   0.961 -0.0514  0.6386  0.9111
 3772SOL    HW212098   1.183   7.949   0.837 -0.9755  1.1027  0.1830
 3773SOL     OW12099   6.621   6.442   7.641 -0.4114  0.2438  0.0206
 3773SOL    HW112100   6.530   6.421   7.665  0.3194 -0.7269  2.1882
 3773SOL    HW212101   6.652   6.363   7.596  0.2205 -0.6828  1.9745
 3774SOL     OW12102   1.799   5.332   1.771 -0.4507 -0.0362 -0.2336
 3774SOL    HW112103   1.774   5.245   1.740  0.9082 -0.3876 -0.3967
 3774SOL    HW212104   1.741   5.392   1.724 -3.3643 -0.9359  1.8886
 3775SOL     OW12105   6.479   3.516   0.295 -0.2493 -0.0906  0.0657
 3775SOL    HW112106   6.573   3.529   0.305  0.1229 -1.5746 -1.0572
 3775SOL    HW212107   6.441   3.541   0.379  1.0098  1.6063  0.1607
 3776SOL     OW12108   4.433   6.909   6.507  0.0716  0.0372  0.1967
 3776SOL    HW112109   4.512   6.952   6.475 -1.5588  1.2506 -2.5107
 3776SOL    HW212110   4.411   6.845   6.439 -2.0393  0.7582  0.1388
 3777SOL     OW12111   1.159   1.082   2.990 -0.4056 -0.0655  0.5324
 3777SOL    HW112112   1.224   1.022   2.953 -1.2358  0.4705 -2.0580
 3777SOL    HW212113   1.204   1.123   3.064  2.5087  0.7622 -1.4946
 3778SOL     OW12114   4.668   3.981   6.982 -0.0837  0.1633 -0.1698
 3778SOL    HW112115   4.685   3.908   6.923 -2.0875 -0.8181  0.3802
 3778SOL    HW212116   4.629   4.048   6.926 -1.4699 -0.5557 -0.1074
 3779SOL     OW12117   3.651   2.957   2.104  0.0813 -0.3559  0.2577
 3779SOL    HW112118   3.651   3.052   2.109  0.6829 -0.4130  2.6841
 3779SOL    HW212119   3.738   2.934   2.073 -0.2222 -0.1224 -0.7903
 3780SOL     OW12120   7.201   7.638   0.497 -0.1843  0.1205 -0.3055
 3780SOL    HW112121   7.289   7.651   0.463 -0.3390 -0.3859 -0.9165
 3780SOL    HW212122   7.214   7.602   0.585  0.2159  0.8078 -0.0771
 3781SOL     OW12123   4.835   5.334   0.347  0.5773 -0.0777 -0.2416
 3781SOL    HW112124   4.810   5.266   0.410 -0.0000  0.2510 -0.1083
 3781SOL    HW212125   4.805   5.416   0.386 -0.2877  0.0823 -1.1856
 3782SOL     OW12126   7.925   3.016   5.547 -0.2239 -0.0072  0.4307
 3782SOL    HW112127   7.928   3.108   5.572 -0.4181 -0.4801  2.4244
 3782SOL    HW212128   7.839   2.986   5.574  0.1007 -0.9358  0.4901
 3783SOL     OW12129   7.740   0.551   2.145  0.4727 -0.2339  0.4250
 3783SOL    HW112130   7.654   0.511   2.137  0.2179  0.6501 -2.8503
 3783SOL    HW212131   7.800   0.477   2.158 -0.5400 -1.1227  0.1445
 3784SOL     OW12132   6.791   0.123   4.057  0.3857 -0.2460  0.1846
 3784SOL    HW112133   6.733   0.198   4.057  0.4901 -0.1611  0.6841
 3784SOL    HW212134   6.871   0.154   4.015 -0.1433 -0.5422 -1.0831
 3785SOL     OW12135   5.963   5.754   7.209  0.0042 -0.3083  0.6012
 3785SOL    HW112136   5.896   5.708   7.259 -0.9924 -0.5600 -0.8953
 3785SOL    HW212137   5.917   5.788   7.132  1.3672  0.5080  0.0976
 3786SOL     OW12138   7.704   1.804   3.970 -0.6090  0.8485  0.2665
 3786SOL    HW112139   7.623   1.754   3.968  0.4629 -1.2633  2.9714
 3786SOL    HW212140   7.766   1.751   3.920 -0.4258  1.5295 -0.2445
 3787SOL     OW12141   2.350   5.826   1.631 -0.1328  0.2688  0.1452
 3787SOL    HW112142   2.281   5.877   1.671 -2.0775 -1.4682 -0.8126
 3787SOL    HW212143   2.363   5.867   1.545 -1.1857 -0.3813 -0.3398
 3788SOL     OW12144   0.892   2.774   2.048 -0.0261 -0.4044 -0.3109
 3788SOL    HW112145   0.961   2.708   2.047  0.9794  0.5962 -1.9741
 3788SOL    HW212146   0.813   2.728   2.021  0.6678 -0.9295 -1.4745
 3789SOL     OW12147   4.998   6.465   1.601 -0.2314  0.2726 -0.0484
 3789SOL    HW112148   4.925   6.462   1.540  0.5711 -2.2519 -0.9801
 3789SOL    HW212149   5.075   6.481   1.547  0.2179  0.4949  0.6318
 3790SOL     OW12150   2.660   1.018   5.431 -0.6648 -0.3071  0.4979
 3790SOL    HW112151   2.651   1.049   5.340  1.3688 -0.7539  0.1129
 3790SOL    HW212152   2.746   1.049   5.459 -1.5039  0.3536  2.5239
 3791SOL     OW12153   6.169   0.358   2.093  0.5872  0.3036  0.6844
 3791SOL    HW112154   6.109   0.285   2.075  0.1148 -0.1068  3.5168
 3791SOL    HW212155   6.184   0.398   2.007 -3.2743  0.0876 -0.2799
 3792SOL     OW12156   4.589   0.600   6.279  0.6270  0.0077  0.3363
 3792SOL    HW112157   4.537   0.567   6.206  0.9289  0.0070  0.1173
 3792SOL    HW212158   4.538   0.672   6.315 -0.2177 -0.9206  1.0562
 3793SOL     OW12159   5.730   3.350   1.528  0.3027  0.2579  0.1411
 3793SOL    HW112160   5.682   3.312   1.601 -0.3205  0.1215 -0.3340
 3793SOL    HW212161   5.758   3.436   1.560 -2.5859  1.5172 -0.4751
 3794SOL     OW12162   5.935   0.122   7.127  0.5958 -0.0245 -0.0527
 3794SOL    HW112163   5.934   0.217   7.133  0.7627 -0.0091 -0.2412
 3794SOL    HW212164   5.941   0.092   7.218  4.6040  0.2209 -0.0426
 3795SOL     OW12165   4.854   4.592   5.607 -0.1050 -0.5280  0.0430
 3795SOL    HW112166   4.884   4.584   5.698  1.0442 -1.9265 -0.4261
 3795SOL    HW212167   4.834   4.685   5.597  0.7748 -0.1533  1.4097
 3796SOL     OW12168   0.917   2.911   4.231  0.1234  0.0919 -0.3221
 3796SOL    HW112169   1.009   2.891   4.245 -0.6155 -2.6818  1.3106
 3796SOL    HW212170   0.883   2.836   4.181 -1.4576  0.4901  0.0864
 3797SOL     OW12171   7.512   4.402   6.596  0.3111  0.0272  0.6218
 3797SOL    HW112172   7.599   4.441   6.584  0.0941  0.0315 -1.3167
 3797SOL    HW212173   7.495   4.356   6.514 -2.0840  1.1487  0.4058
 3798SOL     OW12174   2.282   0.277   3.734 -0.3166  0.0566 -0.3409
 3798SOL    HW112175   2.368   0.268   3.775 -0.6015 -0.8955  0.0720
 3798SOL    HW212176   2.259   0.369   3.747  0.1067  0.0367  0.6192
 3799SOL     OW12177   2.853   4.828   1.206 -0.1437  0.2290  0.1792
 3799SOL    HW112178   2.883   4.751   1.156 -1.6127  0.4794 -1.1731
 3799SOL    HW212179   2.827   4.891   1.139 -0.9484  1.0993  1.2702
 3800SOL     OW12180   3.741   3.038   6.674 -0.0431  0.3064  0.0625
 3800SOL    HW112181   3.831   3.005   6.679 -0.4744 -0.7112  2.9670
 3800SOL    HW212182   3.689   2.963   6.645  0.0132  0.9671 -1.8760
 3801SOL     OW12183   1.897   8.312   5.616  0.1124  0.4853  0.2820
 3801SOL    HW112184   1.813   8.338   5.578  0.4086 -0.7432 -1.3322
 3801SOL    HW212185   1.902   8.360   5.698 -2.2472  0.4651  0.5049
 3802SOL     OW12186   2.290   0.441   4.473 -0.4611  0.0408 -0.2816
 3802SOL    HW112187   2.385   0.440   4.483 -0.3329 -1.1572 -1.2620
 3802SOL    HW212188   2.262   0.525   4.510  1.1465  1.1431 -1.4266
 3803SOL     OW12189   3.343   0.942   7.167  0.1302  0.5455  0.2996
 3803SOL    HW112190   3.255   0.944   7.206  0.3799 -1.6148  1.1085
 3803SOL    HW212191   3.377   1.030   7.181 -0.8592  0.6381  2.5025
 3804SOL     OW12192   8.101   2.078   4.249  0.4521 -0.0761 -0.3020
 3804SOL    HW112193   8.064   1.994   4.224 -2.3694  1.6722 -2.6676
 3804SOL    HW212194   8.027   2.125   4.288  1.6268  1.7408 -0.1652
 3805SOL     OW12195   1.881   4.407   4.042  0.1378  0.6394 -0.0299
 3805SOL    HW112196   1.965   4.367   4.019 -0.8238 -1.4321 -0.1552
 3805SOL    HW212197   1.840   4.427   3.958 -0.9656 -1.7071 -0.1383
 3806SOL     OW12198   4.401   1.276   0.814  0.3055  0.1548  0.1625
 3806SOL    HW112199   4.436   1.193   0.849  0.6446  0.1413 -0.2023
 3806SOL    HW212200   4.322   1.292   0.866  1.5727  0.9007  1.9674
 3807SOL     OW12201   5.057   4.338   3.583 -0.3523  0.2531 -0.0801
 3807SOL    HW112202   5.047   4.243   3.589  1.1371  0.1693  2.1496
 3807SOL    HW212203   5.035   4.358   3.492 -1.1798 -2.1492 -0.4861
 3808SOL     OW12204   0.477   0.183   6.702 -0.2094 -0.3151  0.3182
 3808SOL    HW112205   0.386   0.164   6.677 -0.4489  2.3841 -1.1764
 3808SOL    HW212206   0.469   0.227   6.787 -0.3135  0.0357  0.1278
 3809SOL     OW12207   7.198   2.277   0.976  1.1219 -0.4393 -0.3141
 3809SOL    HW112208   7.167   2.192   1.008  1.0963  0.0815  1.1392
 3809SOL    HW212209   7.126   2.337   0.996  1.3271  0.0034 -0.9090
 3810SOL     OW12210   7.609   0.127   0.705 -0.1902  0.6363  0.1417
 3810SOL    HW112211   7.532   0.171   0.670 -0.8636 -0.5168  0.1031
 3810SOL    HW212212   7.645   0.079   0.631  1.0386  1.7574 -0.0302
 3811SOL     OW12213   3.562   7.422   4.694  0.6151  0.5513  0.1817
 3811SOL    HW112214   3.615   7.418   4.774  0.4121 -1.4952  0.2904
 3811SOL    HW212215   3.511   7.502   4.703  1.3089  0.8701  1.6503
 3812SOL     OW12216   3.155   5.869   5.542  0.2172 -0.4995  0.4380
 3812SOL    HW112217   3.159   5.839   5.633  0.9924 -0.7752  0.3189
 3812SOL    HW212218   3.199   5.954   5.544 -2.4270  0.9443  0.8738
 3813SOL     OW12219   5.671   6.001   5.712 -0.0547 -0.0464 -0.2149
 3813SOL    HW112220   5.729   6.074   5.690  0.5964 -0.5544 -0.2362
 3813SOL    HW212221   5.640   5.968   5.627  0.8136 -0.7013 -0.2967
 3814SOL     OW12222   3.264   7.272   1.868 -0.3862  0.3627  0.2490
 3814SOL    HW112223   3.309   7.188   1.877  0.2292  0.4969 -1.2700
 3814SOL    HW212224   3.268   7.292   1.775  0.4799  2.6180  0.6865
 3815SOL     OW12225   5.546   3.448   0.670  0.1653 -0.5092 -0.3629
 3815SOL    HW112226   5.471   3.505   0.686  0.7718 -0.1207  1.3116
 3815SOL    HW212227   5.580   3.476   0.585 -0.2721  0.8058 -0.1212
 3816SOL     OW12228   3.741   1.898   4.730  0.0321 -0.0460 -0.5178
 3816SOL    HW112229   3.783   1.894   4.816  1.1619  0.6474 -1.0197
 3816SOL    HW212230   3.651   1.924   4.749 -0.0278 -0.9228  0.5269
 3817SOL     OW12231   2.138   1.624   2.400 -0.2745 -0.3610  0.7216
 3817SOL    HW112232   2.147   1.585   2.487  1.5862  1.2252  1.2965
 3817SOL    HW212233   2.173   1.712   2.409 -2.8813  0.9792 -0.9071
 3818SOL     OW12234   0.351   1.957   5.622 -0.4383  0.3262 -0.0239
 3818SOL    HW112235   0.410   2.032   5.622  2.1263 -1.3794  3.8092
 3818SOL    HW212236   0.267   1.992   5.652  0.1820  1.9237 -0.0684
 3819SOL     OW12237   7.808   3.936   4.275 -0.7292  0.0292 -0.4347
 3819SOL    HW112238   7.786   3.922   4.183 -0.9554 -1.8243 -0.1452
 3819SOL    HW212239   7.755   3.872   4.322 -0.9102  1.2126  1.0322
 3820SOL     OW12240   0.658   0.316   2.424 -0.5840 -0.5527 -0.0882
 3820SOL    HW112241   0.626   0.240   2.377 -1.4791 -0.1357 -0.1774
 3820SOL    HW212242   0.586   0.340   2.483 -0.2099  0.0566  0.1342
 3821SOL     OW12243   3.469   3.039   7.996 -0.5704 -0.4059 -0.3413
 3821SOL    HW112244   3.437   2.974   8.058 -0.8635  1.9103  2.1535
 3821SOL    HW212245   3.562   3.017   7.984 -0.4846 -0.8813  1.0243
 3822SOL     OW12246   3.761   5.944   4.234 -0.3798  0.4363 -0.7002
 3822SOL    HW112247   3.676   5.914   4.268 -0.5712  1.2653 -0.4429
 3822SOL    HW212248   3.759   5.921   4.141 -2.1544  3.1343 -1.4326
 3823SOL     OW12249   2.944   4.622   1.070  0.2902  0.8724 -0.4091
 3823SOL    HW112250   3.011   4.674   1.025  0.8444 -0.0608 -0.6968
 3823SOL    HW212251   2.941   4.539   1.021  2.7379 -1.2763  2.6370
 3824SOL     OW12252   6.573   2.441   2.281 -0.0177 -0.6485 -0.2206
 3824SOL    HW112253   6.621   2.366   2.317  0.1075 -0.5724 -0.2282
 3824SOL    HW212254   6.482   2.426   2.307  0.3295  0.3929  1.8334
 3825SOL     OW12255   2.607   5.445   0.166 -0.0242  0.1572 -0.0403
 3825SOL    HW112256   2.640   5.380   0.227 -1.8264  1.1839  2.1651
 3825SOL    HW212257   2.519   5.416   0.144 -0.5916  1.4284  0.4255
 3826SOL     OW12258   3.884   3.240   5.800  0.6549 -0.1746 -0.2306
 3826SOL    HW112259   3.967   3.275   5.766 -0.1954  1.4170 -0.7168
 3826SOL    HW212260   3.900   3.228   5.894  1.6038 -0.4515 -0.4074
 3827SOL     OW12261   3.958   3.194   7.151 -0.1300  0.5604  0.3482
 3827SOL    HW112262   3.869   3.162   7.163 -0.1264  0.8561  1.2647
 3827SOL    HW212263   3.964   3.270   7.209  0.3925  1.1825 -0.4957
 3828SOL     OW12264   0.492   1.078   7.822 -0.3289  0.2175  1.2197
 3828SOL    HW112265   0.525   1.117   7.741  1.4095 -4.0149 -0.4189
 3828SOL    HW212266   0.553   1.105   7.890  1.0735  0.0005  0.0782
 3829SOL     OW12267   3.026   4.350   6.900  0.0644  0.3848  0.5772
 3829SOL    HW112268   3.112   4.364   6.860  0.5443 -2.2174  0.5305
 3829SOL    HW212269   3.041   4.360   6.994  0.0768  1.3572  0.4805
 3830SOL     OW12270   7.048   7.755   7.241  0.0634 -0.9304  0.0915
 3830SOL    HW112271   7.108   7.775   7.312  1.1119  3.5894 -1.6864
 3830SOL    HW212272   7.091   7.686   7.192  2.3853  0.0549  0.5892
 3831SOL     OW12273   7.440   3.944   3.896  1.0107 -0.4337  0.0016
 3831SOL    HW112274   7.418   3.920   3.806 -0.2139 -0.0334  0.1750
 3831SOL    HW212275   7.366   3.912   3.949  1.3878 -0.0692  0.7725
 3832SOL     OW12276   4.531   5.802   6.553 -0.2182  0.3015  0.6238
 3832SOL    HW112277   4.514   5.759   6.636 -1.8453  0.4826  0.4196
 3832SOL    HW212278   4.607   5.756   6.517 -1.0258 -1.4633  1.0563
 3833SOL     OW12279   6.996   0.883   1.516 -0.0342  0.4316  0.2241
 3833SOL    HW112280   6.909   0.854   1.546  0.3816 -1.6357 -0.4058
 3833SOL    HW212281   6.977   0.939   1.440 -0.9073  2.6242  1.9454
 3834SOL     OW12282   6.432   4.353   5.936  0.3436 -0.4404 -0.3055
 3834SOL    HW112283   6.347   4.377   5.900  0.8051 -1.7955 -2.4945
 3834SOL    HW212284   6.480   4.435   5.942 -0.2558  0.0146 -1.5072
 3835SOL     OW12285   6.265   2.131   3.948  0.4950  0.0393 -0.1498
 3835SOL    HW112286   6.341   2.137   4.006  0.5220  0.8414 -0.2612
 3835SOL    HW212287   6.201   2.193   3.985  0.6586  0.8487 -1.1863
 3836SOL     OW12288   4.763   4.840   7.998 -0.1380  0.1500 -0.4006
 3836SOL    HW112289   4.814   4.796   7.931 -0.2770  0.0136 -0.4175
 3836SOL    HW212290   4.826   4.858   8.068 -0.1311 -0.2931 -0.2918
 3837SOL     OW12291   5.294   4.225   2.257  0.0016 -0.0574 -0.2659
 3837SOL    HW112292   5.206   4.204   2.287 -0.2611  0.6085 -0.5355
 3837SOL    HW212293   5.297   4.321   2.258  0.1457 -0.0121 -1.8247
 3838SOL     OW12294   5.418   5.163   1.568 -0.5240  0.2480 -0.0507
 3838SOL    HW112295   5.457   5.245   1.598  1.1098  0.0682 -1.5396
 3838SOL    HW212296   5.491   5.115   1.528 -1.6139 -1.5740  0.0379
 3839SOL     OW12297   5.337   2.545   4.424  0.0176  0.0203 -0.4823
 3839SOL    HW112298   5.422   2.533   4.468  1.3183 -0.6236 -2.9446
 3839SOL    HW212299   5.289   2.606   4.479  1.3405 -1.0457  1.9842
 3840SOL     OW12300   2.005   2.645   1.027  0.4740 -0.0784  0.4839
 3840SOL    HW112301   2.045   2.560   1.045 -1.3685 -1.0891  0.0089
 3840SOL    HW212302   2.007   2.691   1.111 -0.2403 -1.3596  1.2265
 3841SOL     OW12303   5.530   3.355   1.344 -0.1517 -0.0805  0.0642
 3841SOL    HW112304   5.486   3.439   1.360  0.3856  0.3316 -0.5840
 3841SOL    HW212305   5.607   3.357   1.401 -0.0462 -0.0586 -0.0794
 3842SOL     OW12306   0.448   2.148   3.128  0.1328  0.0516  0.1410
 3842SOL    HW112307   0.481   2.168   3.216 -1.4399  1.4052  0.4695
 3842SOL    HW212308   0.460   2.054   3.118 -0.5972 -0.3069  2.2255
 3843SOL     OW12309   7.684   6.317   6.777  0.8247  0.4777  0.0686
 3843SOL    HW112310   7.728   6.320   6.862  0.6907  2.2505  0.1146
 3843SOL    HW212311   7.592   6.299   6.798  0.9855 -0.2114  0.1997
 3844SOL     OW12312   4.264   4.122   2.643 -0.4611 -0.4586 -0.0917
 3844SOL    HW112313   4.235   4.098   2.731  0.3014  1.4893  0.7288
 3844SOL    HW212314   4.244   4.045   2.590 -0.1950 -2.0078  1.9318
 3845SOL     OW12315   1.858   7.013   3.559 -0.7373  0.1716 -0.7393
 3845SOL    HW112316   1.894   6.984   3.475 -1.4926  0.0097 -1.0159
 3845SOL    HW212317   1.789   6.950   3.578  1.0270 -1.2913  1.2369
 3846SOL     OW12318   7.129   3.660   5.227 -0.1053  0.2658  0.8167
 3846SOL    HW112319   7.124   3.587   5.166 -0.1736  0.5628  0.4650
 3846SOL    HW212320   7.052   3.650   5.283  0.3631 -0.4350  1.3435
 3847SOL     OW12321   2.972   1.228   7.334 -0.5104  0.0035 -0.1029
 3847SOL    HW112322   2.961   1.294   7.266  0.2498 -0.0016 -0.2330
 3847SOL    HW212323   2.883   1.212   7.366 -0.7670  0.6537 -0.4764
 3848SOL     OW12324   6.733   7.292   2.003 -0.1609 -0.1598  0.0894
 3848SOL    HW112325   6.647   7.270   1.969  0.3416 -1.3795 -0.4776
 3848SOL    HW212326   6.764   7.364   1.949 -0.5165 -0.2111 -0.1832
 3849SOL     OW12327   1.733   3.930   4.003 -0.0868  0.1472 -0.3363
 3849SOL    HW112328   1.807   3.988   4.021  0.7778 -1.2921  0.9591
 3849SOL    HW212329   1.657   3.976   4.038  0.6164  0.4124  0.8837
 3850SOL     OW12330   7.494   2.287   6.515  0.3239  0.3372 -0.1055
 3850SOL    HW112331   7.581   2.249   6.528  1.1874  1.7684 -1.4244
 3850SOL    HW212332   7.500   2.331   6.431 -1.8140  0.1607 -0.3876
 3851SOL     OW12333   2.855   4.667   4.490  0.0562  0.3912 -0.8954
 3851SOL    HW112334   2.860   4.758   4.520 -2.3444  0.4816 -0.5851
 3851SOL    HW212335   2.818   4.673   4.402 -1.5344 -0.3138 -0.3125
 3852SOL     OW12336   7.425   0.448   1.821 -0.2223 -0.5040 -0.2670
 3852SOL    HW112337   7.475   0.405   1.751 -0.1504 -0.3629 -0.3017
 3852SOL    HW212338   7.355   0.385   1.842  1.7561 -2.1375  1.9443
 3853SOL     OW12339   4.543   6.419   7.198 -0.0911 -0.4596  0.4822
 3853SOL    HW112340   4.535   6.398   7.105 -0.2054  1.4266  0.0254
 3853SOL    HW212341   4.633   6.393   7.220 -0.5852 -2.4405  0.2995
 3854SOL     OW12342   2.273   0.347   5.022  0.1675 -0.1447  0.2405
 3854SOL    HW112343   2.276   0.314   4.932  0.7780  1.0875 -0.2200
 3854SOL    HW212344   2.347   0.306   5.066  0.8854  0.5335 -0.3092
 3855SOL     OW12345   5.233   2.284   4.419  0.0867  0.5277 -0.7230
 3855SOL    HW112346   5.210   2.277   4.327 -1.0065  1.2516 -0.5165
 3855SOL    HW212347   5.270   2.372   4.428  1.0611  0.1322 -0.6313
 3856SOL     OW12348   1.845   0.105   4.597  0.0672  0.3232 -0.4580
 3856SOL    HW112349   1.880   0.182   4.552  1.1043 -0.5450 -1.1784
 3856SOL    HW212350   1.829   0.042   4.527 -1.0323 -0.0306  0.0966
 3857SOL     OW12351   3.372   7.562   7.880  0.1032  0.2842  0.3001
 3857SOL    HW112352   3.372   7.546   7.975  1.4088 -0.5264  0.1783
 3857SOL    HW212353   3.448   7.619   7.866 -1.0490  1.8104 -0.0717
 3858SOL     OW12354   7.019   6.101   4.152 -0.2768 -0.1226  0.1168
 3858SOL    HW112355   6.958   6.163   4.191 -0.0682  1.3000 -1.6791
 3858SOL    HW212356   7.015   6.119   4.058  0.6788 -2.0537 -0.3560
 3859SOL     OW12357   6.553   2.290   5.809  0.1540  1.0629  0.0356
 3859SOL    HW112358   6.598   2.361   5.855 -0.5949  1.2161  0.5520
 3859SOL    HW212359   6.609   2.271   5.734  1.1228  1.1945  0.6939
 3860SOL     OW12360   3.197   2.217   3.189  0.3193  0.2512 -0.1358
 3860SOL    HW112361   3.107   2.243   3.209  0.5454  1.6080 -0.8278
 3860SOL    HW212362   3.252   2.284   3.229  0.9367  0.5512 -1.4226
 3861SOL     OW12363   5.445   6.871   3.330 -0.0236 -0.1113  0.5040
 3861SOL    HW112364   5.526   6.828   3.305  1.1628  1.5996  1.2047
 3861SOL    HW212365   5.459   6.900   3.421 -0.7137  1.7207  0.0813
 3862SOL     OW12366   4.356   6.756   3.272  0.3475  0.1169  0.6104
 3862SOL    HW112367   4.307   6.793   3.346 -1.3141  1.2831 -0.9811
 3862SOL    HW212368   4.305   6.680   3.245  0.4531  0.2061  0.1383
 3863SOL     OW12369   7.462   2.913   5.768 -0.0810  0.3142  0.0012
 3863SOL    HW112370   7.409   2.906   5.848 -0.3467 -1.6276 -0.2906
 3863SOL    HW212371   7.397   2.917   5.698  0.0922 -1.7814 -0.3399
 3864SOL     OW12372   0.756   7.167   5.475  0.3329  0.2522 -0.0824
 3864SOL    HW112373   0.841   7.166   5.519 -0.6033 -0.1729  1.8334
 3864SOL    HW212374   0.714   7.085   5.501 -1.4191  1.3190  0.6401
 3865SOL     OW12375   5.402   3.255   1.003 -0.2495  0.6269 -0.2423
 3865SOL    HW112376   5.432   3.255   0.912  0.0588 -0.1867 -0.1503
 3865SOL    HW212377   5.476   3.288   1.054  0.1109 -0.2885 -0.1423
 3866SOL     OW12378   4.917   0.203   0.195 -0.2173  0.2548  0.3121
 3866SOL    HW112379   4.967   0.247   0.264 -0.0299  0.2806  0.1627
 3866SOL    HW212380   4.826   0.222   0.215 -0.0938  2.5232 -0.9306
 3867SOL     OW12381   2.351   6.840   1.928  0.4611  0.0129 -0.2511
 3867SOL    HW112382   2.329   6.925   1.966  1.7902  1.5368 -2.6737
 3867SOL    HW212383   2.291   6.830   1.855  0.1448 -1.2938  0.1653
 3868SOL     OW12384   2.167   1.439   0.137 -0.2688  0.0927  0.4403
 3868SOL    HW112385   2.162   1.465   0.229 -0.0318  0.2209  0.4154
 3868SOL    HW212386   2.194   1.347   0.140 -0.5099  0.0224  0.5061
 3869SOL     OW12387   2.861   5.461   5.611 -0.2691 -0.7366  0.1441
 3869SOL    HW112388   2.851   5.451   5.706 -1.0876  0.6700  0.2407
 3869SOL    HW212389   2.774   5.445   5.575  0.5213 -3.8146 -0.7070
 3870SOL     OW12390   3.571   8.306   4.032 -0.8803  0.3176  0.6921
 3870SOL    HW112391   3.559   8.294   3.938 -1.4733 -0.7871  0.8823
 3870SOL    HW212392   3.482   8.305   4.068 -0.6103 -0.9145  1.4141
 3871SOL     OW12393   5.867   0.548   2.410 -0.1207 -0.4048 -0.1225
 3871SOL    HW112394   5.810   0.549   2.333 -0.8048 -2.5673  0.2867
 3871SOL    HW212395   5.818   0.598   2.476  0.2658  1.0696 -0.9065
 3872SOL     OW12396   4.532   1.410   1.980  0.5462  0.1676 -0.0286
 3872SOL    HW112397   4.457   1.364   2.017 -0.4171  1.9862  0.4073
 3872SOL    HW212398   4.607   1.354   2.001 -0.5426 -1.1288  0.5492
 3873SOL     OW12399   4.804   2.127   7.388  0.3347 -0.4679  0.1628
 3873SOL    HW112400   4.812   2.119   7.293  0.8813  0.8723  0.0735
 3873SOL    HW212401   4.781   2.218   7.403  2.8320  0.0634  1.4027
 3874SOL     OW12402   4.251   3.732   3.762  0.2817 -0.5661 -0.7249
 3874SOL    HW112403   4.330   3.751   3.813 -0.9933 -0.4385  1.3349
 3874SOL    HW212404   4.197   3.679   3.821 -2.6797  2.2671 -0.6221
 3875SOL     OW12405   7.284   2.467   7.025 -0.1982 -0.0912 -0.1564
 3875SOL    HW112406   7.309   2.560   7.019 -0.5022 -0.0461 -0.8198
 3875SOL    HW212407   7.323   2.427   6.947 -0.9610 -0.3087 -0.4350
 3876SOL     OW12408   2.016   1.996   1.476 -0.2814  0.0888 -0.0704
 3876SOL    HW112409   1.926   1.979   1.504  0.7181  0.0168  3.5961
 3876SOL    HW212410   2.024   2.091   1.478  0.1734  0.0356  1.3881
 3877SOL     OW12411   6.413   3.726   2.320  0.0900 -0.1207  0.3860
 3877SOL    HW112412   6.506   3.705   2.311 -0.2110 -1.1168 -0.6941
 3877SOL    HW212413   6.389   3.765   2.236 -0.9597 -2.0007 -0.2524
 3878SOL     OW12414   6.808   2.096   0.599  0.3675 -0.3726  0.0219
 3878SOL    HW112415   6.868   2.130   0.665 -0.2882  1.0419 -0.0677
 3878SOL    HW212416   6.776   2.174   0.554  1.4702 -1.3027 -2.6031
 3879SOL     OW12417   2.163   1.948   1.261  0.5052  0.2234 -0.2722
 3879SOL    HW112418   2.202   1.864   1.285 -0.2398  0.0744  0.4391
 3879SOL    HW212419   2.104   1.969   1.333 -1.2926  0.1053 -1.6490
 3880SOL     OW12420   6.048   5.610   4.586  0.1889  0.3478  0.0588
 3880SOL    HW112421   5.976   5.656   4.544  0.2305  1.5025  1.1712
 3880SOL    HW212422   6.040   5.633   4.679  0.7945 -1.1435  0.5080
 3881SOL     OW12423   6.491   0.303   3.807 -0.1223 -0.2898  0.0014
 3881SOL    HW112424   6.452   0.383   3.843  0.8156  0.1399  0.1122
 3881SOL    HW212425   6.532   0.332   3.725 -1.1984 -1.0120 -0.8268
 3882SOL     OW12426   7.758   3.260   6.133  0.2909 -0.3493 -0.0974
 3882SOL    HW112427   7.708   3.183   6.161 -0.7365  0.3413  0.0354
 3882SOL    HW212428   7.725   3.331   6.187  0.2464  0.4566 -1.1371
 3883SOL     OW12429   4.647   0.482   0.628  0.2001  0.3128  0.4592
 3883SOL    HW112430   4.589   0.517   0.559  0.1140  0.2450  0.4965
 3883SOL    HW212431   4.700   0.557   0.655 -1.9354  1.2157  2.5871
 3884SOL     OW12432   1.795   7.133   0.475 -0.4290 -0.0849  0.2008
 3884SOL    HW112433   1.794   7.217   0.431 -1.4831 -0.5091 -0.6314
 3884SOL    HW212434   1.741   7.146   0.553  2.4488  1.0141  2.1356
 3885SOL     OW12435   6.940   1.859   4.020 -0.0570  0.6339 -0.0241
 3885SOL    HW112436   6.885   1.857   4.098  0.0682  0.7559  0.0676
 3885SOL    HW212437   6.913   1.938   3.974  1.7334  2.0780  1.2599
 3886SOL     OW12438   1.939   5.263   4.163 -0.0855  0.2242  0.0548
 3886SOL    HW112439   1.872   5.240   4.098  1.5315  0.4141 -1.7830
 3886SOL    HW212440   1.895   5.324   4.222 -1.2092  1.3614 -1.8405
 3887SOL     OW12441   1.114   5.763   2.541  0.0980 -0.1374  0.2767
 3887SOL    HW112442   1.145   5.710   2.614  1.9734  0.5431  0.0138
 3887SOL    HW212443   1.055   5.704   2.493  2.0969 -2.0626 -0.0059
 3888SOL     OW12444   0.486   7.907   4.293  0.1446  0.2003 -0.4768
 3888SOL    HW112445   0.440   7.976   4.245 -0.2952 -0.1722 -0.5972
 3888SOL    HW212446   0.422   7.835   4.300  0.0786  0.3731  0.9743
 3889SOL     OW12447   0.021   2.713   0.771 -0.2693 -0.0563 -0.9083
 3889SOL    HW112448   0.112   2.690   0.786 -0.2668 -1.6922 -2.8975
 3889SOL    HW212449  -0.012   2.738   0.857  1.5784 -1.1814  0.2104
 3890SOL     OW12450   5.532   0.600   6.435  0.0658 -0.1304  0.4742
 3890SOL    HW112451   5.626   0.581   6.435  0.1422  0.2061  1.1876
 3890SOL    HW212452   5.506   0.593   6.527 -0.3645  0.9464  0.4444
 3891SOL     OW12453   4.131   6.694   4.007  0.1720 -0.3316 -0.1603
 3891SOL    HW112454   4.121   6.603   3.979  0.6316 -0.8633  1.2949
 3891SOL    HW212455   4.067   6.705   4.077  0.0571  0.5039 -0.3823
 3892SOL     OW12456   5.874   0.950   1.718 -0.0418  0.3027 -0.1248
 3892SOL    HW112457   5.895   0.860   1.692  0.1683  0.3769 -0.2165
 3892SOL    HW212458   5.791   0.969   1.675 -0.6824 -0.2431  0.8093
 3893SOL     OW12459   4.163   4.204   4.865 -0.3521 -0.3735  0.0531
 3893SOL    HW112460   4.097   4.265   4.898  0.7342 -0.3547  2.4234
 3893SOL    HW212461   4.224   4.259   4.816  0.9322  0.6801  2.6401
 3894SOL     OW12462   4.387   0.119   2.487 -0.4890  0.0637 -0.0676
 3894SOL    HW112463   4.443   0.192   2.465  0.8162 -0.4306  1.4453
 3894SOL    HW212464   4.397   0.058   2.414 -2.4668  1.7587 -1.9223
 3895SOL     OW12465   7.617   0.077   2.122 -0.0807  0.1608  0.5704
 3895SOL    HW112466   7.524   0.054   2.119 -0.3945  1.2617  1.0485
 3895SOL    HW212467   7.632   0.125   2.041  0.1281 -0.2285  0.3805
 3896SOL     OW12468   7.051   4.122   8.266  0.2080 -0.4275 -0.2605
 3896SOL    HW112469   7.115   4.191   8.254 -0.4959  0.6627  1.7744
 3896SOL    HW212470   7.004   4.117   8.183  2.8905 -1.3181 -1.8223
 3897SOL     OW12471   2.286   1.521   4.602  0.0641  0.1767  0.1212
 3897SOL    HW112472   2.266   1.462   4.674  0.8942  0.1955  0.3795
 3897SOL    HW212473   2.239   1.602   4.623 -1.0585 -0.3626 -0.2224
 3898SOL     OW12474   5.113   0.430   7.698  0.7772  0.0718  0.7397
 3898SOL    HW112475   5.193   0.438   7.646  0.2317  1.5179  0.0641
 3898SOL    HW212476   5.143   0.434   7.789  1.7325 -2.3498  0.6254
 3899SOL     OW12477   1.488   4.730   3.835  0.0065  0.5269  0.5638
 3899SOL    HW112478   1.570   4.768   3.868  0.8202 -2.2921  2.0949
 3899SOL    HW212479   1.433   4.722   3.913 -2.1240  2.9829 -0.5311
 3900SOL     OW12480   7.682   5.919   1.338 -0.0600 -0.4479  0.9062
 3900SOL    HW112481   7.596   5.889   1.308 -0.5755  1.0925  0.7137
 3900SOL    HW212482   7.738   5.911   1.262 -0.0092 -1.4923  1.0395
 3901SOL     OW12483   7.161   2.736   2.509  0.0135  0.8511 -0.1096
 3901SOL    HW112484   7.223   2.776   2.570 -0.7768  0.5140  0.9570
 3901SOL    HW212485   7.086   2.797   2.509 -0.0101  0.8277 -0.7221
 3902SOL     OW12486   4.062   5.953   5.141 -0.3482  0.5902  0.5209
 3902SOL    HW112487   4.108   5.959   5.058 -1.0797 -0.7296 -0.0219
 3902SOL    HW212488   3.969   5.957   5.117 -0.5639  0.3492  1.2799
 3903SOL     OW12489   4.343   0.774   2.662 -0.2147  0.0709 -0.2831
 3903SOL    HW112490   4.346   0.826   2.743 -2.6825  1.2094 -0.8407
 3903SOL    HW212491   4.434   0.748   2.647  0.5285  1.0969  2.0355
 3904SOL     OW12492   7.331   7.103   5.438  0.1281 -0.6708 -0.3512
 3904SOL    HW112493   7.281   7.138   5.364 -0.4556 -2.2726 -0.7411
 3904SOL    HW212494   7.403   7.165   5.449 -0.6079  0.4081 -1.2855
 3905SOL     OW12495   4.420   2.742   7.902  0.0628  0.0665  0.0471
 3905SOL    HW112496   4.449   2.706   7.986  1.8421 -0.7044 -0.8454
 3905SOL    HW212497   4.424   2.837   7.914  0.4404 -0.0336  0.7809
 3906SOL     OW12498   3.798   5.047   0.697 -0.4756  0.4561  0.8394
 3906SOL    HW112499   3.767   4.957   0.703 -0.0143  0.2008 -0.4556
 3906SOL    HW212500   3.723   5.100   0.727 -0.6957 -0.3393  1.7478
 3907SOL     OW12501   6.194   7.823   4.813 -0.3252 -0.3852 -0.3097
 3907SOL    HW112502   6.138   7.898   4.836  0.8264  0.0436  1.3434
 3907SOL    HW212503   6.209   7.778   4.896 -0.4354 -2.0872 -1.1709
 3908SOL     OW12504   6.196   5.921   6.774  0.6167  0.2168 -0.6491
 3908SOL    HW112505   6.244   5.840   6.792  0.4200  0.2831  0.1913
 3908SOL    HW212506   6.199   5.929   6.678  0.5153 -0.8480 -0.7535
 3909SOL     OW12507   6.638   2.903   6.944 -0.1652  0.0287 -0.3216
 3909SOL    HW112508   6.550   2.914   6.910 -0.9046 -1.2147  1.0724
 3909SOL    HW212509   6.647   2.808   6.957  1.4194  0.1191 -0.5432
 3910SOL     OW12510   1.372   0.410   2.725 -0.3559  0.3459 -0.3404
 3910SOL    HW112511   1.384   0.316   2.734 -0.8173  0.1157 -1.8871
 3910SOL    HW212512   1.358   0.441   2.814 -1.6498 -1.2664  0.0689
 3911SOL     OW12513   8.286   5.451   4.471 -0.1333  0.7088  0.0209
 3911SOL    HW112514   8.240   5.535   4.478  0.3323  0.9718 -0.0181
 3911SOL    HW212515   8.352   5.466   4.403 -0.4802  0.1054 -0.4654
 3912SOL     OW12516   6.213   0.218   0.047  0.2883 -0.2383 -0.3661
 3912SOL    HW112517   6.179   0.255  -0.034 -2.3895 -0.5780  0.5149
 3912SOL    HW212518   6.224   0.294   0.105 -3.0311 -0.3741  0.6719
 3913SOL     OW12519   8.044   1.394   2.250  0.0259  0.2036  0.0511
 3913SOL    HW112520   8.079   1.346   2.325 -0.2803  0.2165  0.2052
 3913SOL    HW212521   8.114   1.393   2.185  0.3421  0.3110  0.3908
 3914SOL     OW12522   8.015   1.808   4.171 -0.3907  0.2486 -0.6618
 3914SOL    HW112523   8.046   1.770   4.089 -0.6817  0.9783 -1.1108
 3914SOL    HW212524   8.026   1.737   4.235  1.9847  0.3874 -0.8220
 3915SOL     OW12525   2.218   4.860   7.757 -0.5134 -0.1814  0.4784
 3915SOL    HW112526   2.262   4.944   7.772  1.4431 -1.0279 -0.1938
 3915SOL    HW212527   2.234   4.840   7.665  0.0345 -1.8158  0.8936
 3916SOL     OW12528   2.924   3.167   2.307 -0.3298  0.3177 -0.0790
 3916SOL    HW112529   2.937   3.261   2.290 -0.2871  0.6740  1.7558
 3916SOL    HW212530   3.007   3.127   2.280 -0.5793  0.6890 -1.4884
 3917SOL     OW12531   0.948   5.412   1.150 -0.0940 -0.2305  0.5432
 3917SOL    HW112532   0.946   5.373   1.237 -0.0236  1.3298  1.2747
 3917SOL    HW212533   1.038   5.443   1.139 -0.6169  1.5247  0.8509
 3918SOL     OW12534   2.642   0.810   3.905  0.4599 -0.0143  0.5170
 3918SOL    HW112535   2.595   0.866   3.967 -1.6141 -1.4460  0.3576
 3918SOL    HW212536   2.706   0.868   3.864 -1.2658  2.1328  0.6696
 3919SOL     OW12537   4.674   0.811   5.236 -0.4302 -0.2571 -0.5049
 3919SOL    HW112538   4.713   0.807   5.323  0.0989  0.5886 -0.6883
 3919SOL    HW212539   4.640   0.901   5.229 -2.6454 -1.0203 -0.2717
 3920SOL     OW12540   3.217   7.996   4.683 -0.3949 -0.3543 -0.3098
 3920SOL    HW112541   3.128   7.988   4.716 -0.1475 -0.8188  0.2694
 3920SOL    HW212542   3.240   7.908   4.654 -0.5097 -0.0088 -1.4958
 3921SOL     OW12543   0.440   7.266   6.141 -0.2535 -0.4180  0.2115
 3921SOL    HW112544   0.367   7.324   6.163  0.3655 -0.0015  1.2507
 3921SOL    HW212545   0.411   7.179   6.170  0.3577  0.0416  2.4241
 3922SOL     OW12546   7.210   2.329   1.489 -0.8908  0.5475  0.0364
 3922SOL    HW112547   7.169   2.385   1.423 -1.5833  2.1842  1.7740
 3922SOL    HW212548   7.189   2.371   1.572 -1.7199 -2.4623  1.4939
 3923SOL     OW12549   6.896   5.649   5.006 -0.7224  0.2973  0.2130
 3923SOL    HW112550   6.890   5.678   4.915 -1.2196  1.3702  0.5623
 3923SOL    HW212551   6.809   5.669   5.042 -0.2710  0.6457  1.1256
 3924SOL     OW12552   5.220   5.311   7.260 -0.1784  0.4368  0.3789
 3924SOL    HW112553   5.166   5.233   7.273  0.9453 -0.3751  0.2819
 3924SOL    HW212554   5.249   5.306   7.169 -1.2072  1.7117 -0.0470
 3925SOL     OW12555   7.976   0.165   6.059 -0.3848 -0.6589 -0.4073
 3925SOL    HW112556   7.939   0.078   6.073 -1.3453 -0.3375 -0.8553
 3925SOL    HW212557   8.049   0.151   5.999 -0.5393 -1.1553 -0.4824
 3926SOL     OW12558   3.999   7.864   7.611 -0.3684  0.4173  0.4241
 3926SOL    HW112559   3.926   7.921   7.588  1.6817  2.4126 -1.7647
 3926SOL    HW212560   3.982   7.782   7.565 -1.6311  0.5247  0.6765
 3927SOL     OW12561   1.579   0.972   3.206 -0.3773 -0.0667  0.2191
 3927SOL    HW112562   1.558   0.880   3.224  1.1021 -0.7078 -1.0506
 3927SOL    HW212563   1.502   1.021   3.234 -1.2479 -1.7082  0.8041
 3928SOL     OW12564   4.833   6.296   8.016  0.2489 -0.3868 -0.4665
 3928SOL    HW112565   4.741   6.298   7.989  0.0416 -1.1755  0.1436
 3928SOL    HW212566   4.835   6.233   8.088  1.1312  0.2077  0.0460
 3929SOL     OW12567   4.811   8.285   3.642 -0.1987 -1.0589 -0.2549
 3929SOL    HW112568   4.881   8.222   3.661  0.3398 -0.5099 -0.4019
 3929SOL    HW212569   4.761   8.292   3.724  1.6558  0.7383  0.8093
 3930SOL     OW12570   5.221   0.476   4.753 -0.5148 -0.3787  0.1859
 3930SOL    HW112571   5.244   0.392   4.792 -2.7749 -1.4723 -0.6619
 3930SOL    HW212572   5.165   0.518   4.818 -0.8139 -0.3362 -0.0924
 3931SOL     OW12573   3.541   5.591   7.714 -0.6252  0.3588  0.2600
 3931SOL    HW112574   3.555   5.563   7.805  0.0612  1.0103  0.3723
 3931SOL    HW212575   3.514   5.512   7.668  0.8623 -0.4271  0.6420
 3932SOL     OW12576   3.390   5.059   3.828 -0.5809 -0.2571 -0.1646
 3932SOL    HW112577   3.402   5.152   3.847  0.1995  0.0560 -1.9492
 3932SOL    HW212578   3.311   5.035   3.876 -0.0610  0.9725  1.4084
 3933SOL     OW12579   1.436   0.602   1.386  0.1047 -0.4726  0.0723
 3933SOL    HW112580   1.358   0.626   1.436  0.4143 -1.2419  0.9539
 3933SOL    HW212581   1.404   0.540   1.320  0.0834 -1.4565  0.9822
 3934SOL     OW12582   2.985   2.975   1.705 -0.1914  0.9522 -0.4333
 3934SOL    HW112583   3.024   3.061   1.719 -1.1559  1.0768  1.9634
 3934SOL    HW212584   3.042   2.915   1.753 -0.8721  0.6051 -0.0535
 3935SOL     OW12585   6.753   7.914   2.151 -0.5186 -0.3523 -0.3707
 3935SOL    HW112586   6.739   7.831   2.195 -0.2453 -1.5520 -2.4312
 3935SOL    HW212587   6.753   7.893   2.057  1.2734  1.6621 -0.9296
 3936SOL     OW12588   4.873   5.667   4.239 -0.1104  0.4827  0.1354
 3936SOL    HW112589   4.928   5.719   4.180 -1.1734  1.0848 -0.3779
 3936SOL    HW212590   4.792   5.718   4.246 -0.5383 -0.2873  1.0003
 3937SOL     OW12591   5.510   8.276   8.176 -0.3822  0.1071  0.1065
 3937SOL    HW112592   5.471   8.216   8.112 -0.9099  0.1175  0.4156
 3937SOL    HW212593   5.437   8.307   8.228  0.0166  0.2787  0.5741
 3938SOL     OW12594   7.895   2.240   8.055 -0.2584 -0.6238  0.5675
 3938SOL    HW112595   7.860   2.253   7.966 -2.4258  0.5889  1.5217
 3938SOL    HW212596   7.990   2.247   8.044 -0.5368  1.5605 -1.3949
 3939SOL     OW12597   3.746   7.960   5.290  0.0955 -0.1370 -0.4328
 3939SOL    HW112598   3.725   7.954   5.197  2.2213 -0.1491 -0.9672
 3939SOL    HW212599   3.814   7.893   5.303  1.1823  1.1361  0.6894
 3940SOL     OW12600   6.028   1.901   5.285 -0.0899 -0.0814 -0.8384
 3940SOL    HW112601   6.001   1.956   5.358  0.3431  1.6264 -1.9167
 3940SOL    HW212602   6.112   1.864   5.312  0.5229  1.2897 -0.8298
 3941SOL     OW12603   1.588   0.500   1.735 -0.3237  0.5181  0.3369
 3941SOL    HW112604   1.594   0.518   1.641 -0.9788 -0.3918  0.1049
 3941SOL    HW212605   1.589   0.405   1.742 -0.2475  0.5731  1.2557
 3942SOL     OW12606   3.921   2.170   0.364 -0.4116  0.1621  0.9931
 3942SOL    HW112607   3.882   2.086   0.343  0.6810 -0.3117  0.7605
 3942SOL    HW212608   3.854   2.235   0.342 -0.6539 -0.5389 -0.4530
 3943SOL     OW12609   4.378   8.083   5.274  0.2944 -0.1853  0.3675
 3943SOL    HW112610   4.323   8.107   5.199 -0.8072 -2.9049  0.1853
 3943SOL    HW212611   4.337   8.126   5.349  0.5709  1.4015 -0.3607
 3944SOL     OW12612   0.118   1.381   0.281 -0.0018  0.1401  0.1024
 3944SOL    HW112613   0.113   1.409   0.190 -1.4679  1.5610  0.5550
 3944SOL    HW212614   0.039   1.419   0.322  0.9741  0.1685  2.0980
 3945SOL     OW12615   4.668   4.797   3.068  0.2345  0.0769 -0.5283
 3945SOL    HW112616   4.695   4.889   3.072 -2.2816  0.9762 -1.5698
 3945SOL    HW212617   4.606   4.787   3.141  1.3558 -1.1554  0.2845
 3946SOL     OW12618   1.206   2.007   6.817  0.4521  0.1412 -0.6079
 3946SOL    HW112619   1.197   2.102   6.819  1.3940  0.2658 -1.6815
 3946SOL    HW212620   1.116   1.974   6.822  0.1018  1.0896 -0.6107
 3947SOL     OW12621   5.494   2.200   7.442 -0.4775 -0.1312  0.3481
 3947SOL    HW112622   5.508   2.157   7.358  2.5101  0.5613  0.3908
 3947SOL    HW212623   5.516   2.133   7.507  1.4883  0.5429  0.4471
 3948SOL     OW12624   3.211   5.936   1.044  0.5565 -0.4630  0.5779
 3948SOL    HW112625   3.156   5.980   0.979 -1.2702  0.7457  2.7814
 3948SOL    HW212626   3.239   5.855   1.002 -0.6165  0.2123 -1.6387
 3949SOL     OW12627   3.986   3.781   6.771  0.3197 -0.3911 -0.4584
 3949SOL    HW112628   4.039   3.812   6.698 -1.0744  0.5925 -1.1186
 3949SOL    HW212629   3.929   3.856   6.792  0.5194 -0.7342  1.4800
 3950SOL     OW12630   4.468   7.685   5.787 -0.2452  0.4236  0.7009
 3950SOL    HW112631   4.501   7.772   5.764 -0.0005 -0.1269 -1.3038
 3950SOL    HW212632   4.384   7.701   5.829 -0.3331  1.6231  0.1242
 3951SOL     OW12633   5.731   4.182   4.609  0.1534  0.1847 -0.2029
 3951SOL    HW112634   5.688   4.118   4.552 -0.0074  0.4080 -0.3354
 3951SOL    HW212635   5.757   4.252   4.549  0.5063  0.1521 -0.0896
 3952SOL     OW12636   1.556   6.783   5.775  0.1377 -0.3383 -0.0811
 3952SOL    HW112637   1.484   6.731   5.739 -0.0369 -0.4848  0.4712
 3952SOL    HW212638   1.513   6.860   5.813  0.3911  0.2036 -0.8642
 3953SOL     OW12639   7.491   3.800   6.320 -0.5268 -0.6547 -0.1356
 3953SOL    HW112640   7.512   3.853   6.243  0.0049 -1.2302 -0.3938
 3953SOL    HW212641   7.396   3.808   6.330 -0.4351  0.4512 -0.0873
 3954SOL     OW12642   0.551   2.333   7.543  0.1509 -0.3907 -0.0637
 3954SOL    HW112643   0.534   2.286   7.625  0.9148 -0.5630  0.0057
 3954SOL    HW212644   0.465   2.349   7.506 -0.2622  0.3934  1.1662
 3955SOL     OW12645   5.470   6.532   1.179 -0.5219 -0.3935  0.0302
 3955SOL    HW112646   5.521   6.594   1.126 -1.0978  1.3271  1.3866
 3955SOL    HW212647   5.519   6.450   1.173  0.6087  0.3331 -1.3592
 3956SOL     OW12648   8.056   1.457   3.074  0.6284 -0.2575 -0.2453
 3956SOL    HW112649   8.013   1.469   2.989  0.1020  2.3255  0.2778
 3956SOL    HW212650   8.149   1.448   3.053  0.4905  0.2332 -1.1202
 3957SOL     OW12651   7.259   0.042   8.135 -0.0000  0.6695 -0.4665
 3957SOL    HW112652   7.311  -0.039   8.137  0.7381  1.1449  0.4923
 3957SOL    HW212653   7.217   0.045   8.221 -1.4967  0.3879 -1.1706
 3958SOL     OW12654   7.386   3.001   4.997  0.0934  0.0840  0.8624
 3958SOL    HW112655   7.380   3.065   5.068 -0.9814 -0.4943  1.3245
 3958SOL    HW212656   7.300   2.958   4.997  1.0617 -1.9759  1.1455
 3959SOL     OW12657   2.494   1.990   0.639  0.0550  0.0574 -0.8963
 3959SOL    HW112658   2.468   2.008   0.549  0.8044 -1.4944 -1.4451
 3959SOL    HW212659   2.412   1.968   0.683 -0.3822  1.2690 -1.0477
 3960SOL     OW12660   4.715   3.106   2.821 -0.5732  0.0740  0.1832
 3960SOL    HW112661   4.667   3.189   2.821 -1.8019 -0.5562 -2.0551
 3960SOL    HW212662   4.666   3.050   2.882 -1.1493  0.2512 -0.1156
 3961SOL     OW12663   5.511   4.840   7.816 -0.0205 -0.1884  0.1341
 3961SOL    HW112664   5.516   4.756   7.861  0.6874 -0.3746 -0.2784
 3961SOL    HW212665   5.543   4.822   7.727  1.0852  0.7233  0.3203
 3962SOL     OW12666   8.007   5.401   3.150 -0.4536 -0.1777 -0.5711
 3962SOL    HW112667   8.022   5.378   3.058 -0.2871  2.4385 -1.2999
 3962SOL    HW212668   8.090   5.384   3.193  0.1347  0.5310 -1.3945
 3963SOL     OW12669   7.115   2.824   8.201  0.6178 -0.5491 -0.5162
 3963SOL    HW112670   7.058   2.753   8.170 -1.0849 -0.5989  2.3752
 3963SOL    HW212671   7.074   2.904   8.170  1.3356 -0.7023 -1.9336
 3964SOL     OW12672   7.279   0.431   3.265 -0.1862 -0.0944 -0.1768
 3964SOL    HW112673   7.196   0.396   3.298 -0.1281  0.4128  0.5299
 3964SOL    HW212674   7.253   0.504   3.209 -0.1921  2.3970  2.7782
 3965SOL     OW12675   2.993   1.369   4.761 -0.0618  0.3814  0.4494
 3965SOL    HW112676   2.951   1.284   4.751 -1.1652  1.0084 -0.4024
 3965SOL    HW212677   2.922   1.430   4.782  0.3444  1.4898 -1.1538
 3966SOL     OW12678   2.319   1.639   5.438  0.2797  0.4067  0.7838
 3966SOL    HW112679   2.415   1.636   5.444  0.2218 -1.2211  1.3456
 3966SOL    HW212680   2.289   1.616   5.526 -0.6268 -0.0970  0.3572
 3967SOL     OW12681   1.536   2.289   2.767  0.2213 -0.5083 -0.1021
 3967SOL    HW112682   1.570   2.200   2.759 -0.7405 -0.9156  0.1930
 3967SOL    HW212683   1.446   2.278   2.797 -1.1615  0.3888 -3.4161
 3968SOL     OW12684   5.848   6.139   1.711  0.7240 -0.3877 -0.6932
 3968SOL    HW112685   5.820   6.223   1.749  0.7144 -0.7234  0.0684
 3968SOL    HW212686   5.901   6.099   1.780  0.5857 -1.0832 -0.9870
 3969SOL     OW12687   7.165   6.750   2.385 -0.1776  0.3439 -0.2418
 3969SOL    HW112688   7.178   6.768   2.292 -2.0298 -0.4232 -0.7103
 3969SOL    HW212689   7.134   6.659   2.388  1.1619 -0.1073  1.2655
 3970SOL     OW12690   1.029   3.863   1.424 -0.3800 -0.3896  0.1072
 3970SOL    HW112691   1.119   3.874   1.455 -0.7671 -0.6762  1.3724
 3970SOL    HW212692   0.981   3.935   1.464 -1.1454 -1.4943  1.2634
 3971SOL     OW12693   0.565   2.349   6.460 -0.5252 -0.5342 -0.2085
 3971SOL    HW112694   0.548   2.411   6.531  0.1783 -0.3006 -0.2389
 3971SOL    HW212695   0.628   2.287   6.496 -1.0179 -1.0802 -0.2679
 3972SOL     OW12696   4.611   7.442   5.770 -0.0057 -0.0265  0.1801
 3972SOL    HW112697   4.547   7.404   5.830  1.7688  0.2100  2.3479
 3972SOL    HW212698   4.585   7.534   5.763 -0.5252 -0.1686  0.1597
 3973SOL     OW12699   7.585   1.435   1.532  0.3457 -0.1088  0.3758
 3973SOL    HW112700   7.582   1.523   1.492 -0.9017  0.5326  1.7938
 3973SOL    HW212701   7.679   1.419   1.545  0.5782  1.6205  1.2875
 3974SOL     OW12702   1.877   0.808   5.392 -0.1615  0.1045  0.2604
 3974SOL    HW112703   1.788   0.838   5.409 -0.2354 -0.5713  1.1119
 3974SOL    HW212704   1.866   0.721   5.354  0.0870  0.7080 -1.2657
 3975SOL     OW12705   5.672   3.069   4.710  0.1654 -0.3351 -0.2576
 3975SOL    HW112706   5.752   3.062   4.658  0.5140 -0.3915  0.2756
 3975SOL    HW212707   5.683   3.003   4.779 -0.7114 -0.9193 -0.6581
 3976SOL     OW12708   5.145   4.469   4.920 -0.2913  0.3688  0.2886
 3976SOL    HW112709   5.110   4.555   4.898 -1.0289  0.2578  0.9600
 3976SOL    HW212710   5.161   4.473   5.015 -1.4204 -0.5879  0.5402
 3977SOL     OW12711   1.243   3.053   0.938 -0.3833  0.0674 -0.2156
 3977SOL    HW112712   1.154   3.086   0.956 -0.8410 -1.4410  0.4283
 3977SOL    HW212713   1.268   3.097   0.856 -1.4926  0.9435 -0.1172
 3978SOL     OW12714   4.849   8.086   5.421  0.0320 -0.0014  0.0717
 3978SOL    HW112715   4.771   8.140   5.411 -0.7869 -0.3810  3.3068
 3978SOL    HW212716   4.858   8.074   5.515  3.1144 -1.3194 -0.2747
 3979SOL     OW12717   4.525   4.682   6.038 -0.5109 -0.0044  0.4847
 3979SOL    HW112718   4.559   4.766   6.008 -0.9774  0.1300  0.3194
 3979SOL    HW212719   4.456   4.661   5.975 -0.1857 -0.6628  0.3362
 3980SOL     OW12720   3.430   7.812   7.178  0.2650 -0.4007 -0.2603
 3980SOL    HW112721   3.430   7.772   7.265  0.6516  1.3013  0.5784
 3980SOL    HW212722   3.338   7.832   7.161  0.2405 -0.3071 -0.0233
 3981SOL     OW12723   4.307   5.379   1.416 -0.1144  0.2489  0.2482
 3981SOL    HW112724   4.273   5.468   1.419  0.6541  0.5948 -0.5364
 3981SOL    HW212725   4.402   5.390   1.420  0.1235 -0.3429 -2.1279
 3982SOL     OW12726   2.924   1.244   8.027  0.9988 -1.0130  0.4696
 3982SOL    HW112727   2.908   1.212   7.939 -0.6442  2.5056 -0.6837
 3982SOL    HW212728   3.019   1.261   8.029  0.9148 -0.1957 -1.0105
 3983SOL     OW12729   5.112   4.096   6.913 -0.2783  0.4213 -0.3136
 3983SOL    HW112730   5.042   4.157   6.937 -2.4108 -0.9089 -2.6564
 3983SOL    HW212731   5.088   4.014   6.956 -0.2013 -0.0593 -1.1641
 3984SOL     OW12732   0.043   6.458   5.551  0.9459  0.0038 -0.1130
 3984SOL    HW112733   0.120   6.501   5.515  0.8916 -0.0482 -0.2925
 3984SOL    HW212734  -0.024   6.527   5.554  1.5158  0.5274  1.7466
 3985SOL     OW12735   3.558   7.715   2.072  0.6366  0.1619  0.2254
 3985SOL    HW112736   3.491   7.780   2.052 -0.4507 -0.2603  2.1888
 3985SOL    HW212737   3.619   7.760   2.130  0.5316 -0.2315  0.6450
 3986SOL     OW12738   1.190   0.947   6.843 -0.1291  0.7012 -0.6569
 3986SOL    HW112739   1.123   0.896   6.798  0.1981 -0.0122 -0.3470
 3986SOL    HW212740   1.265   0.947   6.784  0.0239  0.4469 -0.4632
 3987SOL     OW12741   3.637   3.120   6.448 -0.1012 -0.0781 -0.3429
 3987SOL    HW112742   3.604   3.043   6.402 -0.3435 -0.4544  0.4533
 3987SOL    HW212743   3.677   3.085   6.528  2.1459  0.3612 -1.1984
 3988SOL     OW12744   2.308   5.060   6.993  0.0739  0.0440 -0.1126
 3988SOL    HW112745   2.385   5.037   6.940 -0.0517 -0.2014 -0.1895
 3988SOL    HW212746   2.234   5.054   6.932  0.1888  2.1393 -0.5400
 3989SOL     OW12747   7.914   7.867   0.289 -0.4254 -0.4577 -0.3807
 3989SOL    HW112748   7.838   7.823   0.252 -0.9720  1.2384 -1.3969
 3989SOL    HW212749   7.888   7.959   0.294  0.9758 -0.0975  0.8095
 3990SOL     OW12750   6.935   7.468   4.133 -0.1589 -0.4150  0.1457
 3990SOL    HW112751   7.009   7.528   4.141  0.2748 -0.9125 -0.0913
 3990SOL    HW212752   6.891   7.474   4.218  0.3987 -0.4376  0.4450
 3991SOL     OW12753   3.664   1.096   1.015 -0.0545  0.4021 -0.1502
 3991SOL    HW112754   3.656   1.094   0.920 -0.9702  1.5549 -0.1210
 3991SOL    HW212755   3.656   1.188   1.038 -1.0418  0.0406  1.1209
 3992SOL     OW12756   1.423   0.422   3.768 -0.3297  0.5419 -0.1190
 3992SOL    HW112757   1.463   0.508   3.785 -1.0218  0.6628  1.0348
 3992SOL    HW212758   1.346   0.442   3.715 -1.3746  0.8548  1.4392
 3993SOL     OW12759   7.256   7.759   7.442  0.1886  0.4932 -0.7477
 3993SOL    HW112760   7.247   7.814   7.519 -0.7802 -1.3881  0.5557
 3993SOL    HW212761   7.351   7.751   7.429  0.3990  0.1331  0.7981
 3994SOL     OW12762   2.991   2.927   3.539 -0.3863  0.5600 -0.1455
 3994SOL    HW112763   2.999   2.877   3.620 -1.3821  0.5856 -0.0195
 3994SOL    HW212764   2.993   2.861   3.470  0.3427  0.5291 -0.1108
 3995SOL     OW12765   1.140   7.703   5.272 -0.2118  0.0694  0.3390
 3995SOL    HW112766   1.203   7.746   5.331  0.0335  0.7110 -0.3692
 3995SOL    HW212767   1.176   7.717   5.185  0.2165 -2.1624  0.0914
 3996SOL     OW12768   3.789   5.584   0.346  0.3187 -0.3365  0.4168
 3996SOL    HW112769   3.753   5.582   0.258 -0.3051 -0.3909  0.6684
 3996SOL    HW212770   3.843   5.663   0.348  0.0093 -0.1155  0.1150
 3997SOL     OW12771   1.828   0.106   2.612  0.4515  0.1953  0.3654
 3997SOL    HW112772   1.866   0.132   2.696  0.7147 -1.2970  0.7354
 3997SOL    HW212773   1.878   0.029   2.586 -1.2532 -0.8622  0.0674
 3998SOL     OW12774   7.562   3.223   0.563 -0.0029  0.1576 -0.0691
 3998SOL    HW112775   7.474   3.241   0.597  0.1393  0.2835  0.2370
 3998SOL    HW212776   7.568   3.127   0.562 -0.9295  0.0833 -2.1412
 3999SOL     OW12777   2.161   0.769   0.625 -0.0307  0.4558  0.2265
 3999SOL    HW112778   2.124   0.715   0.555 -0.6058  2.6660 -1.2574
 3999SOL    HW212779   2.116   0.738   0.705 -0.5602 -1.0104 -0.5963
 4000SOL     OW12780   7.383   6.581   7.056 -0.5655  0.4549 -0.1081
 4000SOL    HW112781   7.378   6.642   7.129 -0.2935 -0.2454  0.5056
 4000SOL    HW212782   7.352   6.498   7.091  0.9913 -0.2735 -0.3421
 4001SOL     OW12783   2.783   7.825   1.763 -0.1743  0.3092 -0.3496
 4001SOL    HW112784   2.804   7.877   1.841 -1.8496 -0.2012  0.4952
 4001SOL    HW212785   2.838   7.747   1.770  1.1142  1.1459 -0.7394
 4002SOL     OW12786   7.292   0.981   7.109  0.3715 -0.3926 -0.1105
 4002SOL    HW112787   7.303   0.896   7.066  1.6293 -0.3899  0.1637
 4002SOL    HW212788   7.330   0.968   7.196 -1.3524 -0.1544  0.7275
 4003SOL     OW12789   0.336   7.456   1.072  0.7408  0.1134  0.6166
 4003SOL    HW112790   0.345   7.364   1.097  0.7808  0.6709  2.8854
 4003SOL    HW212791   0.415   7.498   1.106 -0.2837  1.3385  1.6146
 4004SOL     OW12792   4.701   3.916   2.013 -0.0807  0.3856 -0.1790
 4004SOL    HW112793   4.657   3.866   1.944 -0.9755  0.2397  0.4718
 4004SOL    HW212794   4.738   3.992   1.968  0.3172 -0.2716 -0.9943
 4005SOL     OW12795   4.919   0.932   4.211  0.1854  0.5421  0.4868
 4005SOL    HW112796   4.826   0.914   4.222  0.0613  0.9894  0.1810
 4005SOL    HW212797   4.923   1.024   4.185  0.7324  0.6235  0.8352
 4006SOL     OW12798   6.876   2.485   4.951 -0.4902  0.8492  0.0769
 4006SOL    HW112799   6.911   2.551   4.891 -0.0390 -0.3986 -1.0936
 4006SOL    HW212800   6.797   2.453   4.909 -0.4726  0.3485  0.4057
 4007SOL     OW12801   8.025   5.781   3.896 -0.0287 -0.3920 -0.0079
 4007SOL    HW112802   7.992   5.869   3.911  1.5955  0.5965 -1.7573
 4007SOL    HW212803   8.005   5.763   3.804  0.1760 -1.6271  0.1687
 4008SOL     OW12804   7.647   2.789   4.157 -0.1747  0.2579  0.0844
 4008SOL    HW112805   7.580   2.839   4.111  1.2106  0.5174 -1.7479
 4008SOL    HW212806   7.723   2.790   4.099  0.9922 -1.1861  1.4720
 4009SOL     OW12807   4.613   0.856   3.049 -0.4425 -0.1648  0.6159
 4009SOL    HW112808   4.543   0.801   3.084 -1.0832  0.7411  0.7697
 4009SOL    HW212809   4.580   0.945   3.055  0.1300  0.1596 -0.7038
 4010SOL     OW12810   3.037   1.323   7.657 -0.0394 -0.0485 -0.0234
 4010SOL    HW112811   2.973   1.256   7.681 -1.0052  0.2381 -1.6230
 4010SOL    HW212812   2.984   1.400   7.635  0.7895  0.0652 -1.8148
 4011SOL     OW12813   3.273   8.136   3.835  0.8292 -0.5980 -0.1103
 4011SOL    HW112814   3.279   8.212   3.893 -3.3736 -1.6094  2.0390
 4011SOL    HW212815   3.312   8.064   3.886  2.7735 -0.4251 -1.2425
 4012SOL     OW12816   1.895   6.516   6.297  0.5727  0.4731  0.2872
 4012SOL    HW112817   1.887   6.579   6.225  1.7133 -0.6618 -0.9138
 4012SOL    HW212818   1.877   6.567   6.376  0.7993  2.1481 -0.6784
 4013SOL     OW12819   7.477   1.984   2.937  0.5762  0.0164  0.0820
 4013SOL    HW112820   7.567   1.959   2.956  0.9830  0.3939 -1.2521
 4013SOL    HW212821   7.460   1.949   2.850  0.0952  1.5426 -0.4767
 4014SOL     OW12822   0.519   7.455   5.934 -0.2724 -0.3480  0.0889
 4014SOL    HW112823   0.535   7.476   6.026  1.7463 -0.1737 -0.2607
 4014SOL    HW212824   0.428   7.425   5.932 -1.2826  2.2495  1.6746
 4015SOL     OW12825   1.265   1.719   2.455  0.2339 -0.1521 -0.2830
 4015SOL    HW112826   1.305   1.752   2.375 -0.5703  2.1335  0.1806
 4015SOL    HW212827   1.309   1.767   2.525  0.6464 -1.8152  0.6452
 4016SOL     OW12828   0.096   2.488   2.819 -0.1984  0.1177 -0.1130
 4016SOL    HW112829   0.170   2.482   2.759 -0.3778  2.0795 -0.6146
 4016SOL    HW212830   0.096   2.580   2.848  0.2541 -0.8472  3.4133
 4017SOL     OW12831   7.210   7.825   0.240  0.3267  0.2102 -0.3382
 4017SOL    HW112832   7.190   7.913   0.274 -0.4862 -0.0612 -0.0791
 4017SOL    HW212833   7.303   7.813   0.258  0.0887  0.3828  1.1205
 4018SOL     OW12834   5.021   1.204   7.567  0.0045  0.1342  0.8725
 4018SOL    HW112835   5.024   1.240   7.479  2.0164 -1.1676  0.3418
 4018SOL    HW212836   4.970   1.124   7.559  2.1119 -1.2271  0.3199
 4019SOL     OW12837   2.863   4.934   7.311  0.3448 -0.2676  0.3405
 4019SOL    HW112838   2.808   4.978   7.246  1.0176 -0.1152 -0.1401
 4019SOL    HW212839   2.939   4.903   7.261 -0.6116 -3.0085  0.4183
 4020SOL     OW12840   0.841   5.864   5.919 -0.2103 -0.2290  0.1128
 4020SOL    HW112841   0.891   5.805   5.863 -1.4613 -2.7320  1.4653
 4020SOL    HW212842   0.824   5.814   5.999 -0.8580  2.2056  1.6365
 4021SOL     OW12843   3.679   0.521   4.139  0.6223  0.0707 -0.1600
 4021SOL    HW112844   3.652   0.431   4.122  0.8617 -0.0810  0.2611
 4021SOL    HW212845   3.758   0.533   4.086 -0.2317  0.5107 -1.3840
 4022SOL     OW12846   7.697   3.843   3.627 -0.0425  0.4951 -0.3917
 4022SOL    HW112847   7.743   3.805   3.702 -2.1237 -1.0813  0.1709
 4022SOL    HW212848   7.761   3.903   3.588  1.2730  1.0800  2.3688
 4023SOL     OW12849   5.305   7.433   7.949 -0.3712 -0.2792 -0.0508
 4023SOL    HW112850   5.225   7.401   7.990 -0.4924  0.0354 -0.0412
 4023SOL    HW212851   5.365   7.449   8.022  0.1568 -1.7223 -0.1280
 4024SOL     OW12852   6.140   7.530   5.601  0.0766 -0.1752  0.2822
 4024SOL    HW112853   6.110   7.595   5.665  1.1890  0.4335  0.1943
 4024SOL    HW212854   6.224   7.500   5.635  0.1113 -0.7307 -0.2808
 4025SOL     OW12855   0.634   5.860   4.900 -0.6225 -0.0991  0.1140
 4025SOL    HW112856   0.595   5.815   4.976 -0.8343  0.1336  0.1469
 4025SOL    HW212857   0.564   5.862   4.835  0.2203 -2.3024 -0.9697
 4026SOL     OW12858   5.066   1.885   6.472  0.2389 -0.4408  0.3072
 4026SOL    HW112859   4.976   1.914   6.487  0.7662  0.8544  1.1248
 4026SOL    HW212860   5.098   1.861   6.559  0.5435 -1.3432 -0.0444
 4027SOL     OW12861   0.862   5.738   1.351  0.0047  0.9676 -0.5016
 4027SOL    HW112862   0.832   5.703   1.435 -0.0597  1.8150 -0.1578
 4027SOL    HW212863   0.805   5.698   1.286 -0.7485  1.2466 -0.0208
 4028SOL     OW12864   0.347   4.548   7.200 -0.8641  0.0580 -0.1784
 4028SOL    HW112865   0.261   4.513   7.220 -0.4412 -0.4480  0.8482
 4028SOL    HW212866   0.397   4.537   7.281  0.6269 -1.0840 -1.1989
 4029SOL     OW12867   5.297   0.391   5.055 -0.4526  0.0308 -0.1370
 4029SOL    HW112868   5.300   0.411   5.149 -0.0867 -1.1448  0.1183
 4029SOL    HW212869   5.243   0.312   5.049  1.7742 -1.5584 -0.5906
 4030SOL     OW12870   3.710   6.855   1.241  0.3200 -0.2265 -0.7415
 4030SOL    HW112871   3.659   6.848   1.322  0.6263 -0.4140 -0.5606
 4030SOL    HW212872   3.685   6.939   1.203  0.3992  0.0041 -0.2930
 4031SOL     OW12873   4.774   3.986   7.917  0.1035  0.2281  0.2608
 4031SOL    HW112874   4.763   3.918   7.850  0.7800 -0.3889  0.7621
 4031SOL    HW212875   4.743   4.067   7.874  0.3348 -0.1890 -0.7268
 4032SOL     OW12876   6.005   3.497   2.069 -0.0144 -0.0491  0.0216
 4032SOL    HW112877   6.066   3.465   2.135 -0.6510 -0.7691  0.2699
 4032SOL    HW212878   6.046   3.477   1.986  1.6240  2.3972  0.1234
 4033SOL     OW12879   1.034   1.648   6.205  0.1032  0.2007  0.2524
 4033SOL    HW112880   1.111   1.653   6.149 -1.0552  2.7100 -1.3165
 4033SOL    HW212881   0.964   1.688   6.153 -1.9969 -0.8871  2.0532
 4034SOL     OW12882   3.989   2.820   6.891  0.4262  0.7013  0.1499
 4034SOL    HW112883   3.954   2.786   6.973  0.4406 -1.1212 -0.5645
 4034SOL    HW212884   4.083   2.827   6.905  0.6830 -1.3592 -0.2571
 4035SOL     OW12885   4.754   7.996   2.168  0.3244  0.1684 -0.2903
 4035SOL    HW112886   4.748   7.962   2.257  3.0010  1.4085  0.4630
 4035SOL    HW212887   4.707   8.079   2.170 -1.2367 -0.6599 -0.6055
 4036SOL     OW12888   1.896   4.670   1.379  0.7346 -0.2769 -0.3629
 4036SOL    HW112889   1.973   4.632   1.336  0.5704  0.0591 -0.9483
 4036SOL    HW212890   1.879   4.610   1.452  1.8349 -0.1024  0.0635
 4037SOL     OW12891   3.144   6.966   6.546  0.3238  0.0836  0.1371
 4037SOL    HW112892   3.218   6.992   6.491 -0.6116 -0.4210 -1.4282
 4037SOL    HW212893   3.168   6.880   6.580  0.1360 -0.4659 -1.0547
 4038SOL     OW12894   6.906   7.112   4.939 -0.0854 -0.0528  0.6906
 4038SOL    HW112895   6.961   7.185   4.913 -1.1492  0.0169 -1.5329
 4038SOL    HW212896   6.940   7.087   5.026  0.7719  2.5510  1.2049
 4039SOL     OW12897   3.185   2.115   2.591 -0.1282 -0.3642  0.5037
 4039SOL    HW112898   3.253   2.176   2.621 -0.4526  0.0705  0.3582
 4039SOL    HW212899   3.124   2.110   2.665  0.0871 -0.7942  0.6536
 4040SOL     OW12900   7.757   0.162   3.392  0.3732  0.5904 -0.5573
 4040SOL    HW112901   7.841   0.171   3.437 -0.2275 -2.6714  1.5566
 4040SOL    HW212902   7.773   0.098   3.323 -0.0706  1.1007 -1.1478
 4041SOL     OW12903   3.379   8.023   1.252 -0.0072  0.7914 -0.2407
 4041SOL    HW112904   3.355   8.060   1.167 -0.2304  0.8402 -0.1562
 4041SOL    HW212905   3.394   7.930   1.234  2.5754  1.2522 -0.8735
 4042SOL     OW12906   2.871   3.760   1.591 -0.1373 -0.7462  0.5247
 4042SOL    HW112907   2.868   3.754   1.495  0.4566 -2.0272  0.5696
 4042SOL    HW212908   2.894   3.672   1.620  3.6881  0.4116  1.6417
 4043SOL     OW12909   2.069   7.045   6.187 -0.1982  0.0063 -0.0925
 4043SOL    HW112910   2.159   7.074   6.202 -0.1564 -0.9836  1.9646
 4043SOL    HW212911   2.078   6.965   6.135  0.0244  0.4581 -0.7642
 4044SOL     OW12912   0.050   1.822   1.997  0.5347  0.0383  0.0007
 4044SOL    HW112913   0.002   1.752   2.041 -0.9422  1.6491  1.0981
 4044SOL    HW212914   0.007   1.832   1.913 -1.4084  1.6868  1.1009
 4045SOL     OW12915   8.251   5.202   3.423 -0.0742 -0.5783 -0.3381
 4045SOL    HW112916   8.163   5.170   3.443 -0.1336 -1.4779 -1.9368
 4045SOL    HW212917   8.305   5.170   3.495 -0.7799 -1.3042 -0.1228
 4046SOL     OW12918   0.241   0.583   4.787 -0.1533  0.2813  0.0174
 4046SOL    HW112919   0.196   0.565   4.705 -2.0265  1.5822  0.6986
 4046SOL    HW212920   0.191   0.654   4.827  3.5984  3.2342  0.0154
 4047SOL     OW12921   2.784   7.316   4.306 -0.2126 -0.3498  0.3425
 4047SOL    HW112922   2.689   7.312   4.306 -0.2272 -0.1050 -0.2030
 4047SOL    HW212923   2.811   7.268   4.228  0.1209 -0.5589  0.5819
 4048SOL     OW12924   8.038   8.304   0.924  0.4025 -0.2650 -0.0937
 4048SOL    HW112925   8.082   8.389   0.915  2.0443 -0.9966  0.6278
 4048SOL    HW212926   7.998   8.306   1.011  0.8746 -0.4125  0.1293
 4049SOL     OW12927   8.108   7.319   2.003  0.1027  0.3751  0.3537
 4049SOL    HW112928   8.128   7.257   1.933  0.2884  0.4613  0.3304
 4049SOL    HW212929   8.017   7.300   2.026 -0.1734  0.7658 -0.3514
 4050SOL     OW12930   7.392   7.677   4.618 -0.1536  0.1667 -0.2074
 4050SOL    HW112931   7.331   7.663   4.546  0.6975 -1.4887 -0.6622
 4050SOL    HW212932   7.396   7.772   4.629 -0.4226  0.4563 -2.2436
 4051SOL     OW12933   1.126   7.550   2.940 -0.8948  0.0788 -0.3167
 4051SOL    HW112934   1.086   7.571   3.024 -0.1553 -1.3379  0.4271
 4051SOL    HW212935   1.219   7.571   2.952 -0.9377  0.8015 -1.1262
 4052SOL     OW12936   4.300   1.930   6.748 -0.1686 -0.5345 -0.0002
 4052SOL    HW112937   4.280   2.013   6.703  2.8870 -0.1342 -0.8649
 4052SOL    HW212938   4.214   1.890   6.764 -1.6490  1.7790 -1.4915
 4053SOL     OW12939   3.864   3.722   4.176 -0.4507 -0.1163  0.5112
 4053SOL    HW112940   3.902   3.711   4.089 -0.9010  0.8956  0.1775
 4053SOL    HW212941   3.929   3.773   4.225  0.1958 -1.4117  1.0637
 4054SOL     OW12942   4.679   0.856   6.711 -0.2245 -0.2460 -0.4394
 4054SOL    HW112943   4.691   0.923   6.644  0.7141 -1.0384 -1.0957
 4054SOL    HW212944   4.742   0.788   6.688 -0.9989 -1.2525  0.3393
 4055SOL     OW12945   4.030   7.411   4.218  0.6643  0.3060  0.1697
 4055SOL    HW112946   3.976   7.468   4.164  0.4592  0.4825  0.5573
 4055SOL    HW212947   4.082   7.471   4.272 -0.0700  0.1315  1.0968
 4056SOL     OW12948   7.507   3.285   4.219 -0.5940  0.7104 -0.2975
 4056SOL    HW112949   7.543   3.201   4.247  0.6597  1.0363 -0.8542
 4056SOL    HW212950   7.458   3.317   4.295  0.7798  0.5067  0.7164
 4057SOL     OW12951   6.486   5.428   3.936 -0.2200 -0.1226 -0.5593
 4057SOL    HW112952   6.515   5.467   4.019 -1.7657  2.3993 -1.0771
 4057SOL    HW212953   6.553   5.455   3.873 -1.7643  2.8464 -1.1142
 4058SOL     OW12954   0.687   2.833   4.610  1.2069  0.0172  0.0359
 4058SOL    HW112955   0.769   2.785   4.611  1.7578  0.9262 -0.3806
 4058SOL    HW212956   0.688   2.884   4.691  0.3403 -1.1094  0.7846
 4059SOL     OW12957   2.049   4.782   1.736  0.0154  0.0665 -0.3038
 4059SOL    HW112958   2.000   4.855   1.772  0.2535 -0.3848  0.9856
 4059SOL    HW212959   2.091   4.818   1.658 -3.1774  0.2076 -2.1596
 4060SOL     OW12960   4.030   7.657   3.465  0.0015  0.4097 -0.0524
 4060SOL    HW112961   4.017   7.674   3.558  2.5154 -0.8657  0.6229
 4060SOL    HW212962   4.042   7.743   3.426 -3.1560  1.1353  0.3486
 4061SOL     OW12963   0.780   8.026   0.845 -0.1203  0.1848 -0.4337
 4061SOL    HW112964   0.793   8.062   0.933 -1.4210 -0.1957 -0.0621
 4061SOL    HW212965   0.776   8.103   0.788 -1.1208  0.5516  0.1083
 4062SOL     OW12966   5.719   7.420   4.468 -0.1978  0.3799 -0.2966
 4062SOL    HW112967   5.729   7.419   4.563 -0.0042  0.2918 -0.3185
 4062SOL    HW212968   5.669   7.341   4.448 -0.7218  0.6873 -0.2137
 4063SOL     OW12969   5.682   3.737   1.133 -0.0237 -0.2235 -0.0050
 4063SOL    HW112970   5.752   3.699   1.187  0.4825  0.1466 -0.3880
 4063SOL    HW212971   5.616   3.765   1.196  1.9491  3.1587  0.8137
 4064SOL     OW12972   0.304   3.984   5.431  0.1530  0.5218  0.2852
 4064SOL    HW112973   0.393   4.007   5.401  0.0748  0.6309  0.1331
 4064SOL    HW212974   0.316   3.904   5.482  0.3864  0.7251  0.5556
 4065SOL     OW12975   1.610   4.833   0.598 -0.9478 -0.0269  0.4593
 4065SOL    HW112976   1.649   4.912   0.635 -1.2095  1.5813 -2.4558
 4065SOL    HW212977   1.608   4.771   0.672 -0.3607  2.4888  2.7583
 4066SOL     OW12978   2.905   0.268   2.357 -0.1630  0.4474 -1.0337
 4066SOL    HW112979   2.851   0.332   2.310 -0.7672  0.0851 -0.8523
 4066SOL    HW212980   2.962   0.231   2.289 -1.0845 -0.1340 -1.5092
 4067SOL     OW12981   5.495   0.938   5.394 -0.4138 -0.0283 -0.0912
 4067SOL    HW112982   5.458   0.988   5.322  0.7120  0.3067 -0.4445
 4067SOL    HW212983   5.511   1.002   5.463 -0.7578 -0.2205  0.1731
 4068SOL     OW12984   6.227   7.549   1.973  0.5333 -0.0722 -0.1290
 4068SOL    HW112985   6.243   7.640   1.997 -4.2483  0.6889  1.0916
 4068SOL    HW212986   6.240   7.500   2.055 -0.9284  0.2387  0.3247
 4069SOL     OW12987   4.054   8.062   7.310 -0.1960  0.1643 -0.1038
 4069SOL    HW112988   3.977   8.072   7.366 -0.4917  2.2114 -0.7746
 4069SOL    HW212989   4.057   8.143   7.259  1.3062 -0.6970 -1.4949
 4070SOL     OW12990   0.900   7.071   2.294  0.4703  0.0083 -0.2378
 4070SOL    HW112991   0.968   7.094   2.357  0.4841  1.6945 -0.8253
 4070SOL    HW212992   0.825   7.048   2.348  1.7047 -2.8154  0.4510
 4071SOL     OW12993   7.542   2.835   2.952 -0.0212 -0.1382  0.0681
 4071SOL    HW112994   7.501   2.763   2.904  0.1179  0.3982 -0.8898
 4071SOL    HW212995   7.469   2.882   2.992 -0.3537  0.5888 -1.3149
 4072SOL     OW12996   8.252   7.034   8.147  0.0410  0.0035  0.0831
 4072SOL    HW112997   8.238   7.046   8.053  1.2215 -0.3339 -0.1552
 4072SOL    HW212998   8.207   7.109   8.187  0.4361  0.7599 -0.8309
 4073SOL     OW12999   2.574   6.709   6.494 -0.2389  0.0335  0.1572
 4073SOL    HW113000   2.620   6.766   6.433 -2.8066  1.2333 -0.8126
 4073SOL    HW213001   2.489   6.752   6.507 -1.1730 -2.1112  1.6927
 4074SOL     OW13002   5.603   8.082   1.957 -0.4881  0.1431 -0.7087
 4074SOL    HW113003   5.536   8.053   1.895 -0.1448 -0.5982 -0.7384
 4074SOL    HW213004   5.553   8.104   2.036 -0.6994 -1.2299 -0.4401
 4075SOL     OW13005   3.799   7.152   2.674  0.3271  0.3704 -0.0499
 4075SOL    HW113006   3.808   7.244   2.649 -0.4134  0.8223  1.2099
 4075SOL    HW213007   3.708   7.131   2.653  1.0160 -0.6999 -2.1706
 4076SOL     OW13008   2.391   2.684   7.988 -0.5919  0.4944  0.1132
 4076SOL    HW113009   2.462   2.725   8.038 -1.2270  1.0905  0.5363
 4076SOL    HW213010   2.382   2.739   7.910  0.0731 -0.1586 -0.4394
 4077SOL     OW13011   3.570   0.998   2.406  0.0544  0.1589  0.0809
 4077SOL    HW113012   3.487   1.044   2.391  0.2657  0.7399  0.6281
 4077SOL    HW213013   3.602   0.977   2.318 -0.8930 -0.4959 -0.1298
 4078SOL     OW13014   0.515   0.147   4.183  0.2882  0.1040  0.3698
 4078SOL    HW113015   0.533   0.159   4.276  2.0556  0.6819  0.0042
 4078SOL    HW213016   0.551   0.225   4.141  0.0398 -0.3993 -0.8458
 4079SOL     OW13017   4.146   5.414   0.341 -0.0911 -0.4714 -0.9349
 4079SOL    HW113018   4.111   5.429   0.428  0.2249  0.2062 -0.9134
 4079SOL    HW213019   4.217   5.351   0.353 -0.5964 -1.0227 -0.8277
 4080SOL     OW13020   4.096   5.143   1.146 -0.2695  0.1749  0.5649
 4080SOL    HW113021   4.045   5.117   1.069  0.2512 -0.2243  0.3493
 4080SOL    HW213022   4.166   5.197   1.111 -0.7734  1.0606  0.9058
 4081SOL     OW13023   1.207   2.019   4.552  0.4536 -0.1927  0.9235
 4081SOL    HW113024   1.154   1.944   4.579  0.9408 -0.5453  0.9014
 4081SOL    HW213025   1.160   2.055   4.476  2.3038 -2.9645 -1.8066
 4082SOL     OW13026   3.516   5.451   3.729 -0.1384  0.0845  0.1757
 4082SOL    HW113027   3.579   5.390   3.767 -0.8630 -0.2423  0.8910
 4082SOL    HW213028   3.520   5.434   3.635  2.4334  1.6258 -0.0804
 4083SOL     OW13029   7.240   8.229   4.410  0.0021 -0.3111  0.3852
 4083SOL    HW113030   7.205   8.318   4.407  0.8896  0.2082  2.8971
 4083SOL    HW213031   7.301   8.224   4.336 -0.9164  0.7286 -0.4813
 4084SOL     OW13032   3.266   7.310   7.908  0.2908 -0.4001  0.2415
 4084SOL    HW113033   3.274   7.265   7.824 -1.6190  1.8939 -1.3176
 4084SOL    HW213034   3.317   7.390   7.897 -0.4313  0.1916  1.0482
 4085SOL     OW13035   0.118   3.243   0.294  0.2292  0.7206 -0.1837
 4085SOL    HW113036   0.149   3.324   0.335 -0.7892  0.8628  0.3498
 4085SOL    HW213037   0.153   3.173   0.349  1.1537  0.7798 -0.6743
 4086SOL     OW13038   4.998   0.340   8.308 -0.2856 -0.0234 -0.2178
 4086SOL    HW113039   4.972   0.276   8.375 -2.7092  1.0595 -0.0363
 4086SOL    HW213040   4.949   0.315   8.230  0.9723 -0.0623 -1.0226
 4087SOL     OW13041   3.802   4.274   3.841 -0.1353 -0.5270 -0.5691
 4087SOL    HW113042   3.855   4.205   3.882  0.0486 -0.5937 -0.9124
 4087SOL    HW213043   3.761   4.231   3.766 -1.2857 -0.6788  0.1133
 4088SOL     OW13044   4.767   3.837   3.421 -0.0726  0.4196 -0.1024
 4088SOL    HW113045   4.830   3.875   3.482  0.7637 -1.8339  0.5614
 4088SOL    HW213046   4.682   3.844   3.465  0.4413 -0.6583  1.1357
 4089SOL     OW13047   5.166   6.133   7.826  0.5975 -0.3829  0.4576
 4089SOL    HW113048   5.223   6.067   7.865  1.0869 -0.0626  0.3005
 4089SOL    HW213049   5.087   6.086   7.801  0.8887 -0.8812  0.4645
 4090SOL     OW13050   3.014   3.383   4.078  0.2312  0.4044 -0.1740
 4090SOL    HW113051   2.984   3.339   3.998  0.3844  1.5102 -0.8626
 4090SOL    HW213052   2.968   3.467   4.078  2.3101  1.6187 -0.5980
 4091SOL     OW13053   5.756   5.601   2.743  0.4002 -0.1879 -0.5936
 4091SOL    HW113054   5.673   5.643   2.721  0.7641  0.5529 -0.5631
 4091SOL    HW213055   5.783   5.558   2.662  0.2801  0.0729 -0.7747
 4092SOL     OW13056   8.310   0.994   4.152  0.1826  0.4060  0.3011
 4092SOL    HW113057   8.261   1.013   4.232  1.1256 -0.7528  1.1939
 4092SOL    HW213058   8.346   1.078   4.125  1.3474  0.5291  2.1243
 4093SOL     OW13059   0.180   7.360   5.584 -0.8241 -0.0704 -0.5674
 4093SOL    HW113060   0.182   7.345   5.678 -0.6314 -2.7622 -0.9358
 4093SOL    HW213061   0.106   7.420   5.571 -2.0447 -1.1136  1.1545
 4094SOL     OW13062   8.218   3.003   4.446  0.2344 -0.5998 -0.1783
 4094SOL    HW113063   8.234   2.989   4.539  1.4120  1.0914 -0.0845
 4094SOL    HW213064   8.294   2.965   4.402  0.9815  0.8922 -0.2382
 4095SOL     OW13065   7.206   3.943   0.560  0.0828  0.5912 -0.0902
 4095SOL    HW113066   7.216   3.921   0.652 -0.0219  0.0404 -0.2074
 4095SOL    HW213067   7.174   3.863   0.519 -0.3946  0.9924 -0.5134
 4096SOL     OW13068   5.701   3.328   2.080 -0.1476 -0.1871  0.0472
 4096SOL    HW113069   5.626   3.302   2.134 -1.1112 -0.9104 -1.5654
 4096SOL    HW213070   5.668   3.401   2.028  0.7991  0.5586  0.4681
 4097SOL     OW13071   3.906   3.588   7.165  0.2260 -0.3246  0.1765
 4097SOL    HW113072   3.981   3.621   7.115 -1.1543  1.2583 -0.9669
 4097SOL    HW213073   3.865   3.667   7.201 -2.0046 -0.9023 -0.9197
 4098SOL     OW13074   3.981   0.699   0.394 -0.2357 -0.5587  0.1060
 4098SOL    HW113075   3.904   0.726   0.443 -0.9258 -0.6001 -0.9302
 4098SOL    HW213076   4.039   0.775   0.397 -0.6935 -0.2078  0.1330
 4099SOL     OW13077   0.636   6.777   5.682 -0.3298  0.2239  0.6162
 4099SOL    HW113078   0.639   6.872   5.687  1.5838  0.2656 -0.3504
 4099SOL    HW213079   0.715   6.748   5.728  0.3826 -0.7487 -1.1249
 4100SOL     OW13080   6.728   2.766   3.316  0.0815 -0.0369  0.1184
 4100SOL    HW113081   6.714   2.806   3.402 -0.0588  0.8124 -0.2872
 4100SOL    HW213082   6.738   2.672   3.334 -0.4805  0.0606  1.0030
 4101SOL     OW13083   2.173   1.488   7.858  0.4070  0.4474  0.0935
 4101SOL    HW113084   2.080   1.509   7.847  0.5858  0.2719 -2.3543
 4101SOL    HW213085   2.189   1.418   7.795  1.8193 -0.8248  1.7841
 4102SOL     OW13086   7.476   0.578   6.702  0.7956 -0.2341  0.2416
 4102SOL    HW113087   7.402   0.628   6.668 -0.0653  0.2129  2.6075
 4102SOL    HW213088   7.553   0.630   6.679  0.1147  0.8521  0.3583
 4103SOL     OW13089   7.969   0.080   4.606  0.3612 -0.4274  0.4948
 4103SOL    HW113090   8.063   0.100   4.599  0.2134 -0.2249 -1.3423
 4103SOL    HW213091   7.926   0.147   4.554 -0.7341 -1.1862  0.3907
 4104SOL     OW13092   3.789   1.952   0.237  0.3689 -0.2012  0.7647
 4104SOL    HW113093   3.694   1.961   0.238  0.3640  0.0984 -0.5311
 4104SOL    HW213094   3.818   2.011   0.167  1.3730 -1.4888  0.0494
 4105SOL     OW13095   1.167   0.222   5.918  0.4808  0.2961 -0.0547
 4105SOL    HW113096   1.137   0.175   5.995 -0.6349 -0.3910 -0.8721
 4105SOL    HW213097   1.141   0.313   5.933  2.0017  0.5667  1.2067
 4106SOL     OW13098   2.433   0.472   6.656 -0.0574  0.0541 -0.1263
 4106SOL    HW113099   2.376   0.474   6.579  1.6721  2.1772 -1.4616
 4106SOL    HW213100   2.440   0.563   6.683  1.1570 -0.3957  1.1805
 4107SOL     OW13101   2.386   0.192   5.785 -0.0545 -0.0044  0.2664
 4107SOL    HW113102   2.351   0.170   5.698 -0.8219  2.0774  0.0094
 4107SOL    HW213103   2.309   0.193   5.842 -0.5111  3.9548 -0.1728
 4108SOL     OW13104   7.156   1.851   5.891 -0.1470 -0.2560  0.6630
 4108SOL    HW113105   7.169   1.757   5.882  0.6836 -0.0999  0.1322
 4108SOL    HW213106   7.235   1.890   5.853 -1.5466  0.7240 -1.3747
 4109SOL     OW13107   6.685   7.046   2.925 -0.3530 -0.2818  0.0421
 4109SOL    HW113108   6.667   6.953   2.916 -0.5053 -0.0862 -2.4909
 4109SOL    HW213109   6.598   7.087   2.925 -0.3535 -0.1601  2.4533
 4110SOL     OW13110   8.322   0.144   6.345 -0.2224 -0.1856 -0.1189
 4110SOL    HW113111   8.289   0.232   6.327 -1.5806 -0.2733  1.6148
 4110SOL    HW213112   8.417   0.152   6.341 -0.3184  1.3863  0.1054
 4111SOL     OW13113   4.492   4.793   7.076 -0.0181  0.0564 -0.0818
 4111SOL    HW113114   4.500   4.748   6.992  1.4380  0.5355 -0.2282
 4111SOL    HW213115   4.440   4.871   7.056  0.3977  0.2142 -0.5624
 4112SOL     OW13116   2.976   8.193   0.173 -0.1917 -0.0134  0.1362
 4112SOL    HW113117   3.070   8.202   0.159 -0.1331 -0.3348  0.3155
 4112SOL    HW213118   2.968   8.119   0.232 -0.5150  0.4617  0.6997
 4113SOL     OW13119   2.880   4.333   4.409 -0.2049  0.1633  0.0965
 4113SOL    HW113120   2.942   4.361   4.342 -1.1009  1.4049 -0.2590
 4113SOL    HW213121   2.818   4.406   4.416 -2.2576 -1.4574 -0.3345
 4114SOL     OW13122   7.314   3.339   4.450  0.0544  0.2875  0.0339
 4114SOL    HW113123   7.334   3.253   4.487  1.0073  0.9198  1.0562
 4114SOL    HW213124   7.238   3.323   4.393 -0.2421 -1.0900  0.7549
 4115SOL     OW13125   2.082   7.169   8.285 -0.2364 -0.1894 -0.2895
 4115SOL    HW113126   2.171   7.191   8.256 -0.5697  1.1792 -0.3422
 4115SOL    HW213127   2.090   7.080   8.321  0.9837 -0.3991 -1.0120
 4116SOL     OW13128   3.827   3.381   1.198 -0.1525 -0.1800 -0.1950
 4116SOL    HW113129   3.842   3.364   1.291  0.1604 -1.1068 -0.4065
 4116SOL    HW213130   3.800   3.473   1.195  0.2370 -0.0193  0.7647
 4117SOL     OW13131   2.098   4.240   6.104  1.0912  0.0040 -0.5675
 4117SOL    HW113132   2.148   4.239   6.022  0.0175  0.4085 -1.2525
 4117SOL    HW213133   2.047   4.159   6.102  0.7864  0.1932 -0.4703
 4118SOL     OW13134   0.852   7.268   7.513 -0.1684 -0.0425  0.4700
 4118SOL    HW113135   0.761   7.253   7.489  0.2065 -0.6324 -0.6856
 4118SOL    HW213136   0.899   7.272   7.429  0.7667  1.0082  1.0025
 4119SOL     OW13137   7.629   0.574   0.290  0.1592  0.0244  0.0954
 4119SOL    HW113138   7.617   0.633   0.216 -0.9774 -0.0679  0.1980
 4119SOL    HW213139   7.541   0.551   0.318  0.5719 -1.5121  0.2311
 4120SOL     OW13140   6.894   0.123   0.739  0.1091  0.6836 -0.2927
 4120SOL    HW113141   6.847   0.137   0.657 -0.0794 -1.9700 -0.7154
 4120SOL    HW213142   6.836   0.157   0.807 -0.4641  1.3889 -1.1256
 4121SOL     OW13143   0.543   5.215   1.239  0.6557  0.7360  0.1729
 4121SOL    HW113144   0.484   5.169   1.298  0.4005  0.0819 -0.5805
 4121SOL    HW213145   0.551   5.303   1.277 -0.5798  0.7553  0.4278
 4122SOL     OW13146   6.826   6.607   4.811  0.3894  0.3034 -0.1532
 4122SOL    HW113147   6.910   6.572   4.781  0.3011 -0.6167  0.6177
 4122SOL    HW213148   6.842   6.631   4.903 -0.6224 -1.5279  0.5503
 4123SOL     OW13149   7.007   1.452   7.677 -0.5087  0.1674 -0.2451
 4123SOL    HW113150   6.948   1.478   7.747 -0.6449  0.0239 -0.3041
 4123SOL    HW213151   7.085   1.418   7.722  0.0785  1.5626 -0.1717
 4124SOL     OW13152   1.884   1.071   2.849 -0.1845 -0.1414  0.1973
 4124SOL    HW113153   1.932   1.143   2.890  0.4413  0.3109 -1.2306
 4124SOL    HW213154   1.934   0.993   2.871  0.1464  0.0945  0.2913
 4125SOL     OW13155   3.439   1.244   2.596 -0.2654 -0.1621 -0.4839
 4125SOL    HW113156   3.393   1.188   2.658  0.4542  1.1078  1.2879
 4125SOL    HW213157   3.397   1.226   2.512 -1.6942 -1.4991  0.4485
 4126SOL     OW13158   0.685   6.713   0.376 -0.4919  0.2242 -0.1101
 4126SOL    HW113159   0.685   6.650   0.447 -0.9795  0.3448  0.0029
 4126SOL    HW213160   0.642   6.668   0.303 -0.3904  0.2503 -0.1862
 4127SOL     OW13161   3.578   1.323   4.312  0.5442  0.4422  0.3418
 4127SOL    HW113162   3.616   1.323   4.400  1.5687  3.4066  0.0068
 4127SOL    HW213163   3.633   1.263   4.262  0.5448 -0.5249  1.4445
 4128SOL     OW13164   3.244   4.496   4.895  0.2153 -0.1675 -0.3408
 4128SOL    HW113165   3.292   4.416   4.917  1.1673  0.1915 -1.0413
 4128SOL    HW213166   3.279   4.562   4.954 -0.6244 -0.2710  0.2876
 4129SOL     OW13167   4.414   6.077   1.326  0.3576 -0.1567 -0.2943
 4129SOL    HW113168   4.509   6.090   1.324  0.4732 -0.9947 -0.4417
 4129SOL    HW213169   4.385   6.127   1.402  0.9259  0.0490 -0.2090
 4130SOL     OW13170   4.847   0.997   8.022  0.9295  0.4048 -0.3317
 4130SOL    HW113171   4.933   0.990   8.063  0.7185 -1.4867 -0.0963
 4130SOL    HW213172   4.786   0.972   8.090  0.4489 -1.1446 -1.2659
 4131SOL     OW13173   2.892   5.992   3.842 -0.1652 -0.4538 -0.0455
 4131SOL    HW113174   2.820   5.944   3.801 -0.7315  0.2435  0.1226
 4131SOL    HW213175   2.940   6.032   3.769  0.3382 -1.2916 -0.1908
 4132SOL     OW13176   5.531   6.241   2.348 -0.3248 -0.2167  0.0291
 4132SOL    HW113177   5.613   6.290   2.341  0.1326 -1.0604 -0.6341
 4132SOL    HW213178   5.551   6.169   2.408 -0.4100 -0.7546 -0.5768
 4133SOL     OW13179   3.890   4.269   0.746 -0.8437 -0.1304  0.2571
 4133SOL    HW113180   3.915   4.190   0.698 -0.3402 -0.0613  0.3997
 4133SOL    HW213181   3.962   4.283   0.808 -1.2249  0.0957  0.6474
 4134SOL     OW13182   7.197   8.150   3.480 -0.0272 -0.4991  0.6968
 4134SOL    HW113183   7.161   8.236   3.502 -0.6344 -0.5713  0.0141
 4134SOL    HW213184   7.120   8.096   3.460  0.4182 -0.8871 -0.0048
 4135SOL     OW13185   6.563   2.543   0.473  0.1104  0.1261 -0.2305
 4135SOL    HW113186   6.515   2.555   0.555 -0.3456  1.5235 -0.6805
 4135SOL    HW213187   6.608   2.626   0.458 -1.1338  0.5245 -2.2123
 4136SOL     OW13188   6.111   7.477   7.064 -0.4447  0.1767 -0.1805
 4136SOL    HW113189   6.154   7.413   7.121 -0.0636  1.0040  0.4677
 4136SOL    HW213190   6.183   7.528   7.026 -0.7594  0.3796 -0.5141
 4137SOL     OW13191   3.237   8.211   1.879  0.1283  0.2894 -0.0151
 4137SOL    HW113192   3.261   8.141   1.940 -0.0924  0.1785 -0.0583
 4137SOL    HW213193   3.312   8.216   1.819  0.4098  0.4927  0.3426
 4138SOL     OW13194   6.885   7.046   4.670  0.4020  0.0389 -0.6861
 4138SOL    HW113195   6.883   7.040   4.765  0.1292  3.8884 -0.2756
 4138SOL    HW213196   6.978   7.045   4.647  0.4694 -0.7912 -0.4097
 4139SOL     OW13197   6.755   3.744   7.618  0.0513 -0.4128 -0.1644
 4139SOL    HW113198   6.725   3.717   7.531 -0.3281  2.2546 -0.9553
 4139SOL    HW213199   6.819   3.813   7.601 -1.0694  1.1794  1.6666
 4140SOL     OW13200   3.997   5.362   1.395  0.1998 -0.3229 -0.0608
 4140SOL    HW113201   3.998   5.419   1.472 -1.2784  2.0815 -1.6711
 4140SOL    HW213202   3.953   5.282   1.424 -3.2448  1.7319  0.9532
 4141SOL     OW13203   6.250   6.973   4.273 -0.1362 -0.1113 -0.1021
 4141SOL    HW113204   6.327   7.022   4.245  0.2972 -0.2272  0.8559
 4141SOL    HW213205   6.177   7.035   4.263  0.5598  1.2075  2.2045
 4142SOL     OW13206   3.758   5.263   3.757  0.4016 -0.3866  0.4467
 4142SOL    HW113207   3.820   5.314   3.704  0.0951  0.5147  0.9382
 4142SOL    HW213208   3.769   5.297   3.846 -0.5500 -0.4568  0.6008
 4143SOL     OW13209   7.276   6.233   4.319 -0.5221 -0.1973 -0.0177
 4143SOL    HW113210   7.361   6.261   4.284 -0.2697  0.4289  1.0677
 4143SOL    HW213211   7.294   6.148   4.359  0.2238  1.0484  2.4780
 4144SOL     OW13212   7.073   0.765   4.214  0.2008  0.2354 -0.1287
 4144SOL    HW113213   7.028   0.735   4.292  1.3748 -1.6665 -0.1239
 4144SOL    HW213214   7.137   0.829   4.246  0.7999 -0.6641  0.5199
 4145SOL     OW13215   0.962   0.853   6.628  0.8756 -0.0235 -0.1902
 4145SOL    HW113216   1.005   0.769   6.640  2.6098  0.9578  0.9308
 4145SOL    HW213217   0.958   0.865   6.533  0.4140 -1.4340 -0.3624
 4146SOL     OW13218   1.564   4.152   4.774  0.1445 -0.6731  0.2698
 4146SOL    HW113219   1.548   4.229   4.828  0.6871 -2.1472  2.6661
 4146SOL    HW213220   1.648   4.169   4.731  0.4739 -0.1184  1.1324
 4147SOL     OW13221   7.172   3.152   2.651 -0.1504  0.3357 -0.4924
 4147SOL    HW113222   7.145   3.227   2.704  1.4663  1.5229 -1.2779
 4147SOL    HW213223   7.197   3.085   2.714 -0.5057  0.8687  0.2239
 4148SOL     OW13224   2.781   7.384   1.825 -0.3353  0.3764  0.1453
 4148SOL    HW113225   2.772   7.292   1.800 -1.4047  0.6985 -0.7153
 4148SOL    HW213226   2.763   7.433   1.745 -0.3550  1.3570  0.7289
 4149SOL     OW13227   3.467   4.420   6.465  0.6344 -0.4599 -0.0710
 4149SOL    HW113228   3.518   4.358   6.518  0.0222 -0.4526  0.5504
 4149SOL    HW213229   3.385   4.374   6.448  0.2949  0.0638  0.1397
 4150SOL     OW13230   8.192   1.573   1.212  0.6947 -0.1961 -0.6612
 4150SOL    HW113231   8.108   1.594   1.252  1.1054  2.0621 -0.8585
 4150SOL    HW213232   8.176   1.577   1.117  0.8899 -0.3371 -0.7020
 4151SOL     OW13233   0.822   5.591   7.105 -0.0074  1.3766  0.4608
 4151SOL    HW113234   0.859   5.533   7.172 -0.2053  0.3387 -0.2904
 4151SOL    HW213235   0.893   5.603   7.042 -0.4061  0.7454 -0.1279
 4152SOL     OW13236   1.986   1.809   6.740 -0.0746  0.2943  0.1703
 4152SOL    HW113237   1.962   1.755   6.665  2.5294 -0.4276 -0.2398
 4152SOL    HW213238   1.955   1.760   6.816 -1.2295  0.2040 -0.3357
 4153SOL     OW13239   7.880   1.433   6.623 -0.1102  0.1078  0.2375
 4153SOL    HW113240   7.795   1.437   6.579 -0.3500  0.9125  0.7723
 4153SOL    HW213241   7.901   1.339   6.624 -0.4631 -0.0008 -0.8869
 4154SOL     OW13242   5.677   3.611   6.291  0.2370 -0.1757 -0.1575
 4154SOL    HW113243   5.729   3.627   6.370  0.8369 -1.1687 -0.3274
 4154SOL    HW213244   5.709   3.527   6.259  0.9166  0.7762 -2.1671
 4155SOL     OW13245   2.376   1.907   3.018 -0.0295  0.2378  0.2402
 4155SOL    HW113246   2.287   1.928   3.049  0.4278  0.4247  1.4940
 4155SOL    HW213247   2.430   1.911   3.097  0.9427 -0.8057 -0.3499
 4156SOL     OW13248   6.389   5.616   5.827 -0.2842 -0.0222 -0.6947
 4156SOL    HW113249   6.356   5.677   5.761 -1.8732  0.0247  0.1058
 4156SOL    HW213250   6.392   5.668   5.908 -0.7263 -0.7361 -0.2097
 4157SOL     OW13251   5.877   5.347   7.682 -0.5185  0.6319  0.7321
 4157SOL    HW113252   5.797   5.350   7.630 -0.2098 -2.2378 -0.0638
 4157SOL    HW213253   5.889   5.437   7.713 -3.7521  1.2625  0.4838
 4158SOL     OW13254   0.920   1.429   0.531  0.0550 -0.0363  0.0974
 4158SOL    HW113255   0.867   1.419   0.611 -0.2190  1.0232  0.0525
 4158SOL    HW213256   1.005   1.393   0.555 -0.0081  0.3120  0.8895
 4159SOL     OW13257   6.956   3.352   8.199 -0.3103 -0.1392  0.2615
 4159SOL    HW113258   6.932   3.341   8.291  0.7125 -0.2192  0.5250
 4159SOL    HW213259   6.894   3.296   8.152 -0.3565 -0.6984  0.9600
 4160SOL     OW13260   5.481   4.679   4.914  0.6338  0.0186 -0.4988
 4160SOL    HW113261   5.549   4.719   4.968 -0.5989  0.2123  1.0038
 4160SOL    HW213262   5.451   4.749   4.857 -1.4131  1.3802  2.0169
 4161SOL     OW13263   7.647   1.317   7.108 -0.1513  0.1016 -0.6666
 4161SOL    HW113264   7.655   1.361   7.023  0.8579  2.2422  0.4858
 4161SOL    HW213265   7.552   1.310   7.122 -0.3252  0.2274 -1.6809
 4162SOL     OW13266   8.011   7.535   7.154 -0.5235  0.1654  0.1712
 4162SOL    HW113267   8.105   7.516   7.157 -0.7045 -1.1417 -1.2119
 4162SOL    HW213268   7.998   7.579   7.070 -1.1864  0.1208  0.2438
 4163SOL     OW13269   4.097   0.400   6.005  0.2768 -0.3022 -0.2168
 4163SOL    HW113270   4.175   0.451   6.026 -0.3830  0.1808  1.1535
 4163SOL    HW213271   4.128   0.309   6.003  1.0878 -0.0274 -0.8307
 4164SOL     OW13272   4.758   0.202   7.089 -0.6591  0.3889  0.2493
 4164SOL    HW113273   4.796   0.205   7.177 -1.7336 -0.9500  0.7923
 4164SOL    HW213274   4.789   0.119   7.052 -0.9265  0.5285 -0.3028
 4165SOL     OW13275   1.655   0.624   3.501 -0.3687  0.7454 -0.0834
 4165SOL    HW113276   1.630   0.622   3.594 -1.9013  1.3757 -0.4566
 4165SOL    HW213277   1.649   0.532   3.473 -0.3922  0.6202  0.3217
 4166SOL     OW13278   0.095   2.617   3.429 -0.3066  0.5064 -0.3184
 4166SOL    HW113279   0.064   2.658   3.348 -0.1938  1.9103  0.3184
 4166SOL    HW213280   0.170   2.564   3.402 -0.4301  0.7410 -1.1710
 4167SOL     OW13281   3.019   5.412   6.656 -0.3094 -0.3358 -0.2919
 4167SOL    HW113282   2.999   5.328   6.613 -0.5543 -0.4356  0.0136
 4167SOL    HW213283   2.953   5.472   6.622 -0.0154 -0.2177 -0.6577
 4168SOL     OW13284   6.080   2.536   7.778  0.1809  0.8720  0.2084
 4168SOL    HW113285   6.074   2.591   7.701 -3.5963  0.0870 -0.2576
 4168SOL    HW213286   6.021   2.577   7.842 -1.9842 -1.8369  0.1890
 4169SOL     OW13287   4.180   6.280   4.936 -0.2465 -0.4204 -0.7611
 4169SOL    HW113288   4.098   6.301   4.892 -0.3620 -0.4783 -0.5762
 4169SOL    HW213289   4.187   6.346   5.005  0.3478  0.1815 -1.3872
 4170SOL     OW13290   6.184   6.604   2.769 -0.1198  0.1047  0.6924
 4170SOL    HW113291   6.157   6.514   2.747 -2.7433  0.9614  0.0598
 4170SOL    HW213292   6.154   6.616   2.860  1.4510 -0.0694  1.2541
 4171SOL     OW13293   4.883   7.938   0.740  0.6226 -0.5895  0.2722
 4171SOL    HW113294   4.823   7.977   0.803 -0.5110 -0.3675 -0.8865
 4171SOL    HW213295   4.906   7.853   0.777  2.2043  0.6165  2.2902
 4172SOL     OW13296   3.353   4.153   8.118  0.4469 -0.6042  0.8858
 4172SOL    HW113297   3.312   4.221   8.172  0.4928 -0.5729  0.8815
 4172SOL    HW213298   3.386   4.089   8.180  1.0412 -0.2657  0.9219
 4173SOL     OW13299   4.694   5.858   5.051 -0.4322  0.2152 -0.3240
 4173SOL    HW113300   4.609   5.877   5.090  0.3705  2.6244  0.4586
 4173SOL    HW213301   4.699   5.917   4.975  0.5452  0.1375 -0.3394
 4174SOL     OW13302   1.957   6.297   4.822 -0.0587 -0.2697 -0.2807
 4174SOL    HW113303   1.884   6.240   4.842 -0.6763 -0.1693 -2.0307
 4174SOL    HW213304   1.917   6.383   4.809  0.1276 -0.4539 -2.4678
 4175SOL     OW13305   2.689   1.342   3.818  0.0936 -0.1907  0.0252
 4175SOL    HW113306   2.703   1.338   3.913  0.1546  2.7078  0.2297
 4175SOL    HW213307   2.638   1.422   3.805 -0.5065 -0.8790 -2.3531
 4176SOL     OW13308   1.653   7.728   7.569 -0.2123 -0.3175  0.2132
 4176SOL    HW113309   1.596   7.689   7.636  0.7825 -0.4845  1.0030
 4176SOL    HW213310   1.736   7.680   7.579 -0.2880 -0.9227 -1.7280
 4177SOL     OW13311   7.678   3.283   3.384  0.3623 -0.5498 -0.4023
 4177SOL    HW113312   7.680   3.335   3.464  1.4475 -1.4866  0.2143
 4177SOL    HW213313   7.585   3.269   3.366  0.1071 -0.9455  1.1206
 4178SOL     OW13314   0.737   3.672   1.145 -0.0110  0.5828 -0.1949
 4178SOL    HW113315   0.766   3.655   1.235 -2.5470 -0.8134  0.4726
 4178SOL    HW213316   0.688   3.754   1.151 -2.3723 -0.7729  0.3563
 4179SOL     OW13317   5.947   1.907   1.049 -0.1417  0.4804 -0.1761
 4179SOL    HW113318   5.861   1.921   1.009  0.5792  0.0933 -1.9423
 4179SOL    HW213319   5.982   1.996   1.062 -0.3904  0.6118 -0.3931
 4180SOL     OW13320   0.675   3.504   1.610 -0.3027 -0.8903 -0.1302
 4180SOL    HW113321   0.611   3.550   1.664 -0.0734 -0.5226 -0.1651
 4180SOL    HW213322   0.636   3.418   1.594  0.4435 -1.7254  2.1912
 4181SOL     OW13323   0.706   6.533   2.666 -0.0139 -0.2308 -0.1546
 4181SOL    HW113324   0.692   6.620   2.703 -0.7242 -0.3195 -0.1962
 4181SOL    HW213325   0.762   6.488   2.729 -0.6675 -0.1576  0.4891
 4182SOL     OW13326   2.059   2.736   4.343 -0.0905 -0.1828  0.6214
 4182SOL    HW113327   2.057   2.651   4.298 -1.3771 -0.1934  0.6629
 4182SOL    HW213328   2.088   2.797   4.275 -1.4294 -0.2987 -0.0936
 4183SOL     OW13329   6.928   1.450   8.196  0.4640  0.1403  0.0288
 4183SOL    HW113330   6.970   1.473   8.279  0.4633 -0.7609  0.2907
 4183SOL    HW213331   6.997   1.460   8.131  0.7423 -0.1024  0.2815
 4184SOL     OW13332   8.270   3.965   4.715  0.3204 -0.3011  0.0455
 4184SOL    HW113333   8.244   3.936   4.627  2.8360  0.7087 -1.1447
 4184SOL    HW213334   8.261   3.887   4.769  2.3164 -2.1402 -2.0017
 4185SOL     OW13335   4.124   5.281   0.720 -0.0003 -0.2850  0.0383
 4185SOL    HW113336   4.212   5.313   0.704 -0.0241 -0.2229  0.0294
 4185SOL    HW213337   4.070   5.326   0.655 -0.0273 -0.3759 -0.0023
 4186SOL     OW13338   3.507   0.800   0.862 -0.0093  0.2709  0.3544
 4186SOL    HW113339   3.460   0.866   0.811  1.8439  1.1711 -0.2784
 4186SOL    HW213340   3.483   0.819   0.953  1.4812  2.7737  0.3315
 4187SOL     OW13341   2.976   0.160   6.101  0.1701 -0.2944  0.0636
 4187SOL    HW113342   2.976   0.233   6.038 -0.8250  2.1569  2.6744
 4187SOL    HW213343   2.884   0.150   6.125  0.0916 -3.3631 -1.0734
 4188SOL     OW13344   1.847   7.282   3.518  0.1161  0.0025 -0.1033
 4188SOL    HW113345   1.839   7.195   3.559  1.1839  0.9969  2.4179
 4188SOL    HW213346   1.898   7.266   3.439  1.3426 -1.5440  0.9121
 4189SOL     OW13347   7.119   1.880   2.390  0.2463 -0.4223  0.0433
 4189SOL    HW113348   7.081   1.792   2.400 -0.0733 -0.3173 -0.2300
 4189SOL    HW213349   7.065   1.936   2.445  0.0874 -0.2935 -0.2452
 4190SOL     OW13350   6.918   2.616   0.262  0.1300  0.1950  0.8970
 4190SOL    HW113351   6.864   2.564   0.202  2.1662 -0.5339 -0.4445
 4190SOL    HW213352   6.925   2.701   0.220  1.2327 -0.1948  0.2299
 4191SOL     OW13353   3.736   2.424   3.804  0.7140 -0.1742 -0.5829
 4191SOL    HW113354   3.804   2.420   3.871  0.8817 -1.6864 -0.8009
 4191SOL    HW213355   3.772   2.478   3.735  0.2284  2.0989  0.8496
 4192SOL     OW13356   4.372   2.394   4.199  0.6725  0.0649 -0.4416
 4192SOL    HW113357   4.306   2.437   4.145  1.1657  1.0264 -0.2889
 4192SOL    HW213358   4.385   2.309   4.157  0.9855  0.7620 -1.8106
 4193SOL     OW13359   5.056   5.054   5.729  1.0150 -0.1927 -0.3793
 4193SOL    HW113360   4.970   5.089   5.705  0.6227 -1.2510 -0.5920
 4193SOL    HW213361   5.097   5.124   5.779 -0.1405  0.1830  0.0937
 4194SOL     OW13362   3.782   6.267   3.010  0.0307 -0.2559  0.1078
 4194SOL    HW113363   3.850   6.331   2.990  1.1963 -1.5080 -0.0886
 4194SOL    HW213364   3.738   6.252   2.927  2.0362 -2.2284 -0.7074
 4195SOL     OW13365   1.559   3.660   2.773 -0.0678  0.3859  0.0099
 4195SOL    HW113366   1.650   3.658   2.745  0.1135  1.0578  0.5173
 4195SOL    HW213367   1.548   3.582   2.827 -0.0047 -0.1010 -0.6685
 4196SOL     OW13368   5.776   5.468   2.488 -0.2929  0.0039 -0.5361
 4196SOL    HW113369   5.721   5.397   2.456  0.8228 -1.0156 -0.2641
 4196SOL    HW213370   5.770   5.536   2.421 -1.3318 -0.3653 -0.8232
 4197SOL     OW13371   0.187   2.610   5.557 -0.0669 -0.0156  0.3899
 4197SOL    HW113372   0.237   2.691   5.541  0.9265 -0.2965  1.8545
 4197SOL    HW213373   0.211   2.585   5.646  0.6048 -2.5871 -0.4347
 4198SOL     OW13374   3.836   1.650   2.861 -0.0637 -0.5199  0.1007
 4198SOL    HW113375   3.887   1.710   2.916 -0.8295  0.4653 -0.2203
 4198SOL    HW213376   3.788   1.595   2.924  0.1520 -0.3593  0.4093
 4199SOL     OW13377   6.853   3.157   4.484 -0.6468  0.7782 -0.5819
 4199SOL    HW113378   6.833   3.107   4.563  0.3331  2.6484  0.9432
 4199SOL    HW213379   6.943   3.186   4.496 -0.1498  0.3932 -2.8399
 4200SOL     OW13380   4.169   4.259   6.366  0.6340  0.4977  1.2044
 4200SOL    HW113381   4.140   4.310   6.290  0.0949  0.1510  1.1673
 4200SOL    HW213382   4.201   4.324   6.428  0.1278  0.8709  1.0844
 4201SOL     OW13383   8.317   3.918   6.592 -0.1201  0.0028 -0.2360
 4201SOL    HW113384   8.256   3.862   6.639 -0.7135  1.0433  0.2850
 4201SOL    HW213385   8.262   3.974   6.538  0.3048  1.3508  0.6747
 4202SOL     OW13386   0.407   0.383   4.918 -0.2052  1.0645  0.4974
 4202SOL    HW113387   0.493   0.425   4.915 -0.3705  1.3193 -1.4458
 4202SOL    HW213388   0.355   0.430   4.853 -0.8871 -1.0839 -0.6052
 4203SOL     OW13389   1.053   5.008   8.169  0.3531  0.5079 -0.3191
 4203SOL    HW113390   1.033   4.915   8.176 -0.8910  0.8014  0.2426
 4203SOL    HW213391   1.079   5.034   8.257  0.5978  0.7152 -0.4503
 4204SOL     OW13392   6.338   4.291   4.743 -0.1011 -0.4461 -0.2880
 4204SOL    HW113393   6.341   4.387   4.749 -0.0556 -0.5062  0.7584
 4204SOL    HW213394   6.425   4.266   4.712  1.2192 -0.3634  2.9943
 4205SOL     OW13395   6.039   1.455   4.750 -0.5191  1.0194 -0.4058
 4205SOL    HW113396   6.036   1.403   4.830 -0.0538  2.3444  0.5047
 4205SOL    HW213397   6.107   1.520   4.766 -1.6912  2.4794 -1.1235
 4206SOL     OW13398   5.726   2.808   1.581  0.5887 -0.0244 -0.1229
 4206SOL    HW113399   5.690   2.719   1.585  2.6152 -0.9205 -0.7661
 4206SOL    HW213400   5.717   2.841   1.670  0.5885 -1.2050  0.3340
 4207SOL     OW13401   4.995   2.051   5.216  0.3722 -0.5595 -0.5200
 4207SOL    HW113402   5.039   1.980   5.169 -1.3721 -0.8461 -1.8461
 4207SOL    HW213403   4.938   2.007   5.278  1.5812 -0.1987  0.9112
 4208SOL     OW13404   4.543   2.529   1.293  0.7642 -0.1951  0.9627
 4208SOL    HW113405   4.623   2.489   1.328  1.4908 -0.1772 -0.5822
 4208SOL    HW213406   4.575   2.606   1.245 -0.2235 -0.0167  0.5838
 4209SOL     OW13407   1.179   5.058   7.136 -0.1346 -0.1680 -0.1545
 4209SOL    HW113408   1.214   5.134   7.183  1.0958 -1.0787  0.4463
 4209SOL    HW213409   1.194   5.078   7.044 -2.4898  1.6003 -0.2435
 4210SOL     OW13410   1.378   3.513   5.826 -0.0419 -0.1445 -0.0917
 4210SOL    HW113411   1.299   3.461   5.845 -0.6773  0.6284 -0.5612
 4210SOL    HW213412   1.384   3.514   5.731  0.2404  0.2495 -0.0717
 4211SOL     OW13413   1.977   5.529   3.881 -0.5085 -0.9165  0.2298
 4211SOL    HW113414   2.051   5.514   3.940 -0.4011  1.0000  0.6641
 4211SOL    HW213415   1.904   5.551   3.939 -1.2562 -2.0744 -0.2322
 4212SOL     OW13416   7.260   2.203   2.786  0.7195  0.1102  0.7844
 4212SOL    HW113417   7.348   2.179   2.815  0.7203 -0.3181  0.4357
 4212SOL    HW213418   7.256   2.173   2.695  0.0732 -0.2258  0.9221
 4213SOL     OW13419   7.537   7.293   4.487  0.4834  0.0300 -0.3368
 4213SOL    HW113420   7.591   7.276   4.564  0.3971 -0.6732 -0.4281
 4213SOL    HW213421   7.449   7.305   4.522  0.8225  2.1258 -0.0860
 4214SOL     OW13422   5.861   4.676   4.951 -0.2706 -0.3020 -0.4456
 4214SOL    HW113423   5.907   4.730   4.887 -1.6117 -0.3860 -1.5351
 4214SOL    HW213424   5.826   4.603   4.899  0.7073 -1.7404  0.8250
 4215SOL     OW13425   3.275   3.092   6.448  0.6228 -0.3422 -0.0115
 4215SOL    HW113426   3.316   3.067   6.365  1.4361 -0.4935  0.4303
 4215SOL    HW213427   3.207   3.026   6.461 -0.5044  0.5105 -1.2672
 4216SOL     OW13428   1.704   5.546   6.290 -0.0152  0.2028 -0.4287
 4216SOL    HW113429   1.693   5.452   6.304  1.2513 -0.2073 -1.9643
 4216SOL    HW213430   1.727   5.580   6.376  1.0038 -1.1379 -0.1415
 4217SOL     OW13431   7.843   5.352   0.684  0.0243 -0.2767  0.0679
 4217SOL    HW113432   7.881   5.276   0.640 -0.5644 -0.4053 -0.2249
 4217SOL    HW213433   7.829   5.323   0.775  0.2084 -0.3686  0.0681
 4218SOL     OW13434   3.445   4.587   0.334 -0.5945 -0.3208  0.2947
 4218SOL    HW113435   3.532   4.609   0.366  0.1741 -1.0793 -1.1319
 4218SOL    HW213436   3.423   4.659   0.275 -0.2661 -0.8354 -0.4794
 4219SOL     OW13437   0.390   5.064   4.793 -0.5164  0.6019  0.8075
 4219SOL    HW113438   0.335   5.127   4.840  0.2043  1.5356  0.4243
 4219SOL    HW213439   0.349   5.056   4.707  0.0264  1.4257  0.4634
 4220SOL     OW13440   4.414   5.670   0.754 -0.6311 -0.0252 -0.1135
 4220SOL    HW113441   4.319   5.665   0.749 -0.5460 -2.4141 -0.5643
 4220SOL    HW213442   4.433   5.657   0.847 -0.7293 -0.0171 -0.0920
 4221SOL     OW13443   2.243   0.123   1.591 -0.5874  0.6377 -0.0462
 4221SOL    HW113444   2.314   0.098   1.531  1.5543  1.1276  2.1156
 4221SOL    HW213445   2.181   0.170   1.536  0.2834 -0.6266 -2.2299
 4222SOL     OW13446   2.781   8.122   7.256 -0.1857 -0.1877 -0.2452
 4222SOL    HW113447   2.734   8.039   7.251 -0.5625  0.0332 -0.4718
 4222SOL    HW213448   2.722   8.185   7.214  0.1644  0.1624 -0.2175
 4223SOL     OW13449   0.084   2.511   4.904 -0.1409  0.0052 -0.1440
 4223SOL    HW113450   0.000   2.471   4.881  0.5360 -0.7863 -1.3680
 4223SOL    HW213451   0.081   2.598   4.865 -0.3109 -0.1095 -0.3872
 4224SOL     OW13452   8.194   4.690   3.929 -0.2163 -0.6777  0.5132
 4224SOL    HW113453   8.282   4.718   3.953 -0.4008  0.9584 -0.5704
 4224SOL    HW213454   8.207   4.620   3.866  0.3419  0.2557 -0.4299
 4225SOL     OW13455   1.525   1.014   4.241 -0.3237 -0.1462  0.2226
 4225SOL    HW113456   1.573   1.074   4.299  0.5379 -0.6010 -0.0059
 4225SOL    HW213457   1.594   0.963   4.198 -0.9806 -0.1335 -0.8508
 4226SOL     OW13458   4.575   0.199   0.720  0.5711  0.4366  0.8934
 4226SOL    HW113459   4.485   0.231   0.709  0.4621 -0.6158 -2.5308
 4226SOL    HW213460   4.630   0.269   0.683  0.7722 -0.7201 -1.0981
 4227SOL     OW13461   4.509   6.368   1.322 -0.1213  0.3158 -0.1105
 4227SOL    HW113462   4.418   6.349   1.346 -0.4220  1.2540 -0.4446
 4227SOL    HW213463   4.507   6.374   1.226  0.6002 -1.1079 -0.2380
 4228SOL     OW13464   1.492   6.330   1.667 -0.2646 -0.0972  0.1220
 4228SOL    HW113465   1.407   6.352   1.704  0.3527  0.0403  1.5103
 4228SOL    HW213466   1.554   6.385   1.714  0.7969 -1.5296  0.4643
 4229SOL     OW13467   5.108   0.346   1.592  0.0382  0.6894  0.0777
 4229SOL    HW113468   5.172   0.275   1.599 -2.5688 -2.0046 -1.0885
 4229SOL    HW213469   5.081   0.365   1.682  0.5686 -0.0254  0.3906
 4230SOL     OW13470   1.417   0.920   1.503  0.1121  0.1035  0.0054
 4230SOL    HW113471   1.386   0.834   1.530  1.5022 -0.4088  0.0738
 4230SOL    HW213472   1.354   0.981   1.540 -2.4553 -0.9754 -2.2737
 4231SOL     OW13473   7.574   2.252   5.622 -0.4353 -0.3441  0.0713
 4231SOL    HW113474   7.608   2.179   5.674  0.4291 -0.6248 -0.8641
 4231SOL    HW213475   7.612   2.240   5.535 -1.8625  0.1095 -0.6519
 4232SOL     OW13476   0.425   6.330   2.387  0.5460 -0.0222  0.3491
 4232SOL    HW113477   0.386   6.410   2.424  0.8508 -0.4425  1.6222
 4232SOL    HW213478   0.363   6.303   2.319 -0.2143  0.6032  0.7713
 4233SOL     OW13479   2.774   0.962   7.562  0.1040 -0.9012 -0.2350
 4233SOL    HW113480   2.717   1.015   7.506 -0.2342 -1.1938 -0.1732
 4233SOL    HW213481   2.715   0.924   7.627  0.4602 -0.7443  0.1817
 4234SOL     OW13482   6.149   7.146   0.723  0.0300 -0.5538 -0.4412
 4234SOL    HW113483   6.137   7.150   0.818  0.8729  1.3895 -0.3535
 4234SOL    HW213484   6.108   7.064   0.697  0.2177 -1.3952  1.6618
 4235SOL     OW13485   8.306   6.437   4.009  0.0174 -0.0649  0.2149
 4235SOL    HW113486   8.291   6.527   4.038  0.9822  0.3766 -0.6070
 4235SOL    HW213487   8.354   6.446   3.927  2.1419 -1.3338  1.2484
 4236SOL     OW13488   1.361   2.089   2.120 -1.0127 -0.0502  0.4395
 4236SOL    HW113489   1.385   2.065   2.030  0.2965  0.2486  0.6979
 4236SOL    HW213490   1.266   2.102   2.116 -0.9320  0.2982 -0.9829
 4237SOL     OW13491   0.401   2.153   4.954 -0.5169 -0.2725 -0.7556
 4237SOL    HW113492   0.349   2.228   4.924 -0.7864 -0.3629 -0.5285
 4237SOL    HW213493   0.402   2.093   4.880  1.3996  0.8026 -1.6794
 4238SOL     OW13494   3.591   4.147   6.282  0.4440 -0.0619 -0.1115
 4238SOL    HW113495   3.613   4.200   6.205 -0.6050  0.0681 -0.3337
 4238SOL    HW213496   3.537   4.076   6.247  1.0637 -0.7565  0.3252
 4239SOL     OW13497   4.431   0.724   6.794 -0.0445 -0.3523 -0.0005
 4239SOL    HW113498   4.508   0.765   6.755 -1.3594  1.5274 -0.7605
 4239SOL    HW213499   4.465   0.678   6.871  1.8369  0.3154 -0.3788
 4240SOL     OW13500   2.180   3.407   6.874  0.3379 -0.5735  0.0049
 4240SOL    HW113501   2.164   3.500   6.887  2.3186 -0.4083  2.0026
 4240SOL    HW213502   2.110   3.363   6.921 -0.4391 -0.1064 -0.6979
 4241SOL     OW13503   5.925   2.503   4.871  0.2031 -0.5306 -0.2523
 4241SOL    HW113504   5.943   2.579   4.927  2.0753  0.2967 -1.8550
 4241SOL    HW213505   5.915   2.430   4.932  3.0108  0.1503  1.1896
 4242SOL     OW13506   4.645   3.838   7.202  0.2287 -0.4092 -0.0262
 4242SOL    HW113507   4.606   3.760   7.163  2.1258 -1.0871 -0.6767
 4242SOL    HW213508   4.658   3.898   7.129  0.8100 -0.3745  0.0998
 4243SOL     OW13509   1.192   4.518   2.888 -0.3396  0.0217  0.0021
 4243SOL    HW113510   1.175   4.606   2.921 -0.0826 -0.2501  0.8731
 4243SOL    HW213511   1.258   4.530   2.820 -0.1180  0.4662  0.2940
 4244SOL     OW13512   2.562   6.675   4.534 -0.3206  0.5854  0.2206
 4244SOL    HW113513   2.507   6.622   4.475  0.7806 -0.8642  0.4427
 4244SOL    HW213514   2.564   6.761   4.493 -0.5245 -0.0769 -1.2719
 4245SOL     OW13515   5.252   6.766   1.004  0.5302  0.7459  0.3294
 4245SOL    HW113516   5.243   6.855   1.038 -1.0967  0.5550  0.4725
 4245SOL    HW213517   5.164   6.729   1.011  0.4888  0.1012 -2.4545
 4246SOL     OW13518   5.689   2.306   0.135 -0.0585  0.7268 -0.8299
 4246SOL    HW113519   5.749   2.299   0.061  1.0425  3.3098 -0.3202
 4246SOL    HW213520   5.740   2.277   0.211 -0.0160  1.3090 -0.6303
 4247SOL     OW13521   3.394   0.546   8.272  0.3123 -0.5307 -0.2510
 4247SOL    HW113522   3.476   0.579   8.235  1.2638  0.3644  2.4032
 4247SOL    HW213523   3.422   0.496   8.349 -1.6034 -1.0141  0.1772
 4248SOL     OW13524   0.004   1.875   6.860  0.5058 -0.2204  0.2074
 4248SOL    HW113525   0.017   1.788   6.822  0.3331 -0.7443  1.3091
 4248SOL    HW213526  -0.090   1.879   6.878  0.3519  0.5674 -0.6768
 4249SOL     OW13527   4.449   2.701   6.581 -0.2294 -0.8161 -0.0261
 4249SOL    HW113528   4.364   2.743   6.568  0.2948 -0.2455 -2.1054
 4249SOL    HW213529   4.499   2.763   6.634 -0.3058  0.0368 -0.9212
 4250SOL     OW13530   1.828   1.933   3.479  0.4069  0.3582 -0.0746
 4250SOL    HW113531   1.777   1.856   3.454 -1.8568  1.1863  1.6937
 4250SOL    HW213532   1.855   1.916   3.569  1.0856  1.0267 -0.1458
 4251SOL     OW13533   2.936   0.107   1.098 -0.3598 -0.2216  0.2464
 4251SOL    HW113534   2.950   0.135   1.008 -1.9789  0.5913  0.2134
 4251SOL    HW213535   3.022   0.116   1.139  0.7784 -2.0890 -1.5620
 4252SOL     OW13536   4.254   0.440   6.718  0.3372 -0.3572  0.2132
 4252SOL    HW113537   4.221   0.528   6.701 -0.7322 -0.9178 -0.8416
 4252SOL    HW213538   4.323   0.428   6.652  0.8924 -0.1071  0.7421
 4253SOL     OW13539   0.379   7.720   3.120 -0.0674 -0.4749  0.5764
 4253SOL    HW113540   0.425   7.677   3.192 -0.0525 -0.4877  0.5592
 4253SOL    HW213541   0.420   7.805   3.113  1.3651 -1.2462 -0.8074
 4254SOL     OW13542   5.899   0.804   4.462 -0.1746  0.5942 -0.0839
 4254SOL    HW113543   5.880   0.722   4.507  0.0416 -0.0366 -1.1142
 4254SOL    HW213544   5.816   0.850   4.461 -0.6965 -0.3341 -0.9254
 4255SOL     OW13545   4.759   4.831   0.053 -0.3729 -0.3244 -0.2284
 4255SOL    HW113546   4.832   4.773   0.032 -0.2646 -0.2598 -0.0285
 4255SOL    HW213547   4.785   4.916   0.018  0.3786  0.0953  1.2915
 4256SOL     OW13548   1.058   5.324   5.960  0.8013 -0.0853 -0.6480
 4256SOL    HW113549   0.980   5.369   5.928  0.3659  0.1680  0.7036
 4256SOL    HW213550   1.030   5.234   5.974  1.1870 -0.3717 -1.6342
 4257SOL     OW13551   3.691   6.179   6.473 -0.1559  0.4279  0.3723
 4257SOL    HW113552   3.675   6.193   6.566  0.4683 -1.9351  0.9012
 4257SOL    HW213553   3.782   6.150   6.468 -0.2884  0.1565 -0.9111
 4258SOL     OW13554   6.023   5.992   6.506 -0.0915 -0.2169  0.2208
 4258SOL    HW113555   6.047   6.084   6.492  0.2045 -0.1266  1.2126
 4258SOL    HW213556   6.065   5.946   6.434 -0.8302  0.5044 -0.6909
 4259SOL     OW13557   5.522   6.084   7.277 -0.3088  0.1826 -0.0557
 4259SOL    HW113558   5.450   6.056   7.334 -1.0245  0.6727 -0.6900
 4259SOL    HW213559   5.478   6.131   7.205  0.7016  1.0130 -0.1439
 4260SOL     OW13560   2.829   2.970   7.742  0.2063 -0.1044  0.7750
 4260SOL    HW113561   2.848   2.953   7.650  1.3010  0.1779  0.9378
 4260SOL    HW213562   2.876   2.901   7.789  0.9058  0.6435  1.1925
 4261SOL     OW13563   1.479   3.779   3.424 -0.1887 -0.1547  0.0538
 4261SOL    HW113564   1.420   3.853   3.407  0.3501 -0.2528 -2.7923
 4261SOL    HW213565   1.421   3.709   3.455 -1.2738  0.4028 -0.6381
 4262SOL     OW13566   5.668   6.869   1.762  0.1168 -0.1861  0.1012
 4262SOL    HW113567   5.595   6.923   1.794 -1.0710 -0.9474 -1.1782
 4262SOL    HW213568   5.696   6.913   1.682  1.6762  0.5699  1.0190
 4263SOL     OW13569   3.317   7.461   1.075  0.1657 -0.3886 -0.2727
 4263SOL    HW113570   3.362   7.378   1.087  0.2889 -0.3310 -0.3435
 4263SOL    HW213571   3.255   7.465   1.148  2.7817  1.2420  2.0624
 4264SOL     OW13572   0.860   7.985   4.402  0.4254  0.6159  0.5073
 4264SOL    HW113573   0.784   7.998   4.459  0.2428  0.3628  0.3290
 4264SOL    HW213574   0.933   8.025   4.449  0.4874 -0.5078  1.4146
 4265SOL     OW13575   1.899   2.194   6.190  0.0677  0.1286  0.2836
 4265SOL    HW113576   1.963   2.140   6.144 -0.4676  0.8415 -1.4243
 4265SOL    HW213577   1.821   2.139   6.196 -0.3571  0.5055 -1.1252
 4266SOL     OW13578   0.285   3.176   6.090 -0.3864 -0.1980  0.0106
 4266SOL    HW113579   0.318   3.264   6.105 -1.4136 -0.1092  2.2728
 4266SOL    HW213580   0.261   3.174   5.998  1.7596  1.1037 -0.6398
 4267SOL     OW13581   2.989   1.205   6.561 -0.3382 -0.0598  0.1130
 4267SOL    HW113582   3.064   1.164   6.516 -1.2343  0.2765 -1.7985
 4267SOL    HW213583   2.953   1.265   6.496 -1.0922  1.2714  1.6981
 4268SOL     OW13584   3.897   5.185   2.528 -0.3142  0.1872  0.8441
 4268SOL    HW113585   3.920   5.094   2.507  0.3807  0.9137 -1.8746
 4268SOL    HW213586   3.804   5.191   2.509  0.1364  0.6145 -1.5939
 4269SOL     OW13587   7.078   3.084   7.383 -0.8802  0.2843 -0.1004
 4269SOL    HW113588   7.097   3.083   7.476 -2.2333  1.1313  0.2085
 4269SOL    HW213589   7.163   3.065   7.341 -0.3360 -0.4877  1.2810
 4270SOL     OW13590   2.820   4.145   1.364 -0.0305  0.1594  0.0580
 4270SOL    HW113591   2.914   4.154   1.378  0.1241 -1.7573  0.5002
 4270SOL    HW213592   2.811   4.128   1.271  0.1070 -0.1366  0.0982
 4271SOL     OW13593   0.718   7.703   0.255 -0.5765 -0.1422 -0.3514
 4271SOL    HW113594   0.627   7.732   0.246 -0.5682  0.0272  0.1338
 4271SOL    HW213595   0.712   7.619   0.300 -0.4291  0.3301  0.5559
 4272SOL     OW13596   4.680   5.819   2.011  0.9110  0.7383  0.1093
 4272SOL    HW113597   4.615   5.834   1.942  0.1247  0.7880  0.8449
 4272SOL    HW213598   4.702   5.907   2.042 -1.7181  0.6601  2.6059
 4273SOL     OW13599   7.992   0.002   7.989 -0.2221 -0.4094 -0.0411
 4273SOL    HW113600   7.943   0.013   8.071 -0.7861  1.4138 -0.5887
 4273SOL    HW213601   8.043   0.082   7.980 -0.3016 -0.4993 -1.5505
 4274SOL     OW13602   8.058   5.238   1.008 -0.1245 -0.2390 -0.2088
 4274SOL    HW113603   8.131   5.192   0.965  0.7766 -0.9785  1.9983
 4274SOL    HW213604   8.089   5.255   1.096 -1.5814  2.0618 -0.0758
 4275SOL     OW13605   5.961   2.729   7.309 -0.2936 -0.6922  0.2117
 4275SOL    HW113606   6.036   2.678   7.340  0.4874  0.8562  0.9844
 4275SOL    HW213607   5.892   2.712   7.374  0.0784 -0.4694  0.6654
 4276SOL     OW13608   1.771   5.129   2.836 -0.6109 -0.1997 -0.5029
 4276SOL    HW113609   1.794   5.086   2.918 -0.7097  0.6606 -0.0067
 4276SOL    HW213610   1.730   5.061   2.784  0.0798 -0.9370 -0.1155
 4277SOL     OW13611   4.423   6.671   8.166  0.1100 -0.3226  0.6590
 4277SOL    HW113612   4.351   6.625   8.122 -0.0942 -0.0494  0.7036
 4277SOL    HW213613   4.500   6.654   8.111 -0.2920  0.6460 -0.2339
 4278SOL     OW13614   7.235   0.760   4.530  0.1872 -0.0051  0.1680
 4278SOL    HW113615   7.181   0.758   4.609 -1.1221 -0.5861 -0.7046
 4278SOL    HW213616   7.190   0.702   4.469  1.6172 -0.2161 -0.7309
 4279SOL     OW13617   5.453   5.609   0.240  0.2139  0.6554 -0.8721
 4279SOL    HW113618   5.392   5.613   0.166 -1.8257 -1.3701  0.5381
 4279SOL    HW213619   5.414   5.544   0.299  1.6685  2.2129  2.0275
 4280SOL     OW13620   3.342   6.741   5.799 -0.4829  0.2063  0.0067
 4280SOL    HW113621   3.404   6.689   5.748 -0.8002  0.4554 -0.6494
 4280SOL    HW213622   3.396   6.785   5.865 -0.2417 -1.0959  0.7076
 4281SOL     OW13623   2.644   4.097   0.430  0.0444 -0.2671  0.1432
 4281SOL    HW113624   2.551   4.110   0.412 -0.8043 -3.4927  1.4880
 4281SOL    HW213625   2.675   4.181   0.463 -2.4471  0.7972 -0.0800
 4282SOL     OW13626   5.017   7.345   0.682  0.1122 -0.2274 -0.3097
 4282SOL    HW113627   4.993   7.301   0.601  0.8568 -0.8648 -0.1963
 4282SOL    HW213628   5.108   7.321   0.697  0.4731  1.1855 -0.1130
 4283SOL     OW13629   6.658   3.550   2.002 -0.2785  0.1276 -0.4917
 4283SOL    HW113630   6.616   3.492   2.065  0.0396 -1.7327 -1.9294
 4283SOL    HW213631   6.608   3.539   1.921  1.5719 -0.4362 -1.6269
 4284SOL     OW13632   1.460   5.095   1.857  0.0672  0.4475  0.1177
 4284SOL    HW113633   1.373   5.059   1.841  0.5382 -1.2066  1.0315
 4284SOL    HW213634   1.462   5.176   1.807 -1.4002 -0.3203 -1.2789
 4285SOL     OW13635   5.973   6.988   5.285  0.6295  0.1038  0.4734
 4285SOL    HW113636   5.924   6.907   5.299  0.2468  0.6421  2.5232
 4285SOL    HW213637   6.060   6.960   5.258  0.0933 -0.9395 -0.2274
 4286SOL     OW13638   6.702   3.464   6.044 -0.3847 -0.7227  0.2363
 4286SOL    HW113639   6.713   3.374   6.013  0.2745 -0.0210 -1.7400
 4286SOL    HW213640   6.783   3.483   6.091  0.8520 -0.2499 -1.9284
 4287SOL     OW13641   3.586   0.143   0.884  0.5900 -0.4527 -0.0694
 4287SOL    HW113642   3.636   0.062   0.901  0.2107 -0.9147 -1.0615
 4287SOL    HW213643   3.508   0.135   0.939  0.6173 -0.7092 -0.0644
 4288SOL     OW13644   4.435   8.316   6.949 -0.1323 -0.4468 -0.1461
 4288SOL    HW113645   4.448   8.222   6.946 -1.2567 -0.5995 -1.0731
 4288SOL    HW213646   4.508   8.352   6.897 -0.1456 -0.8661 -0.4590
 4289SOL     OW13647   1.381   4.010   0.092 -0.2413 -0.3066 -0.8879
 4289SOL    HW113648   1.392   3.926   0.137 -0.0522 -0.0736 -0.4993
 4289SOL    HW213649   1.471   4.037   0.073 -0.2908 -0.0446 -0.7430
 4290SOL     OW13650   2.357   6.211   1.553  0.0216  0.0638 -0.1763
 4290SOL    HW113651   2.344   6.304   1.535  1.0420  0.3569  0.5446
 4290SOL    HW213652   2.435   6.208   1.608  0.4060 -1.2714 -0.7687
 4291SOL     OW13653   1.469   7.285   6.092  0.5069 -0.4821 -0.2271
 4291SOL    HW113654   1.500   7.375   6.086  1.7783 -0.7861  1.0113
 4291SOL    HW213655   1.376   7.289   6.070  0.2929  1.2983  0.8343
 4292SOL     OW13656   7.371   6.541   2.939  0.5723  0.2940  0.6742
 4292SOL    HW113657   7.460   6.509   2.926  0.4164  0.6348 -1.5725
 4292SOL    HW213658   7.343   6.501   3.022  3.2855  1.3560  2.2454
 4293SOL     OW13659   5.626   4.244   4.855 -0.3685 -0.6952  0.0108
 4293SOL    HW113660   5.532   4.240   4.840 -0.8106  0.6417  2.0681
 4293SOL    HW213661   5.664   4.200   4.779 -2.4826  1.4619 -2.4908
 4294SOL     OW13662   3.364   1.925   1.704 -0.7738  0.2907 -0.2598
 4294SOL    HW113663   3.338   1.852   1.759 -0.1214  0.6237  0.5070
 4294SOL    HW213664   3.295   1.991   1.717 -0.1455  0.7454  0.9273
 4295SOL     OW13665   0.270   5.820   7.033  0.0851  0.5238  0.5184
 4295SOL    HW113666   0.310   5.821   6.946 -2.1576  0.2158 -0.5759
 4295SOL    HW213667   0.273   5.911   7.062 -0.7011  0.9530 -0.6621
 4296SOL     OW13668   5.811   1.600   0.631 -0.1871  0.3375  0.1501
 4296SOL    HW113669   5.903   1.577   0.641 -0.2827  0.7769  2.6395
 4296SOL    HW213670   5.763   1.521   0.656 -0.5087  0.1897 -0.8904
 4297SOL     OW13671   0.521   7.364   0.250  0.4549 -0.0787  0.4234
 4297SOL    HW113672   0.537   7.270   0.246 -0.2079 -0.1647 -0.3821
 4297SOL    HW213673   0.538   7.387   0.341  1.8055 -0.7535  0.3687
 4298SOL     OW13674   5.493   4.396   7.162 -0.4082  0.2473 -0.0871
 4298SOL    HW113675   5.562   4.331   7.173 -0.1093  0.8315  1.8111
 4298SOL    HW213676   5.497   4.420   7.069  0.2610 -1.5402 -0.5618
 4299SOL     OW13677   4.970   2.867   5.227 -0.6272  0.1743 -0.1497
 4299SOL    HW113678   5.048   2.819   5.198 -1.4268 -0.7712 -0.8145
 4299SOL    HW213679   4.934   2.903   5.146 -1.3226 -0.0929  0.0330
 4300SOL     OW13680   7.078   6.890   3.135  0.1388  0.3411  0.2890
 4300SOL    HW113681   7.109   6.910   3.047  2.6031 -1.6028  0.6203
 4300SOL    HW213682   6.991   6.852   3.122  0.5964 -0.2105 -1.3520
 4301SOL     OW13683   3.665   3.105   3.135  0.0581  0.2068  0.3310
 4301SOL    HW113684   3.608   3.099   3.211 -0.7868  0.9095 -0.2316
 4301SOL    HW213685   3.651   3.024   3.087  0.5122 -0.1897  0.8512
 4302SOL     OW13686   6.736   7.045   3.206  0.3807 -0.2178 -0.5628
 4302SOL    HW113687   6.769   7.120   3.255  1.1105 -0.5850 -0.4823
 4302SOL    HW213688   6.733   7.074   3.115 -1.9187  0.8026 -0.2260
 4303SOL     OW13689   1.989   5.729   3.703 -0.1280 -0.0087  0.0173
 4303SOL    HW113690   1.987   5.648   3.754 -1.5643 -0.6428 -0.9801
 4303SOL    HW213691   1.900   5.762   3.707  0.3703  1.3905  0.1545
 4304SOL     OW13692   5.259   7.111   3.747 -0.1442  0.3325 -0.4478
 4304SOL    HW113693   5.269   7.116   3.652 -0.0775  0.9324 -0.4173
 4304SOL    HW213694   5.312   7.036   3.773 -2.0868 -1.3546 -1.1324
 4305SOL     OW13695   3.474   1.697   3.544 -0.0021  0.3561 -0.5779
 4305SOL    HW113696   3.382   1.716   3.561 -0.1809 -1.6745  1.1982
 4305SOL    HW213697   3.523   1.758   3.599 -0.2858  1.1393 -1.1870
 4306SOL     OW13698   2.675   5.502   2.060  0.3968 -0.1537  0.3327
 4306SOL    HW113699   2.659   5.529   2.150  0.1863 -0.2565  0.3259
 4306SOL    HW213700   2.767   5.476   2.059 -0.0707 -1.9801  0.9818
 4307SOL     OW13701   2.296   2.631   3.480  0.0513  0.3863 -0.1877
 4307SOL    HW113702   2.338   2.717   3.488  0.0200  0.3849  0.0079
 4307SOL    HW213703   2.252   2.634   3.395 -1.3425  1.1899  0.5245
 4308SOL     OW13704   4.197   4.603   7.885  0.0619  0.8401  0.4015
 4308SOL    HW113705   4.230   4.639   7.967 -3.2922  3.2455  0.8926
 4308SOL    HW213706   4.102   4.599   7.897 -0.4435 -0.0064 -2.9196
 4309SOL     OW13707   6.962   3.800   0.160  0.1167 -0.4135  0.0181
 4309SOL    HW113708   6.890   3.738   0.153 -0.0190 -0.1964 -0.4941
 4309SOL    HW213709   7.020   3.778   0.087  1.5145 -1.7821  1.4437
 4310SOL     OW13710   3.269   4.344   7.667 -0.8048  0.2666  0.4250
 4310SOL    HW113711   3.254   4.289   7.744  1.8602 -0.6194  0.3964
 4310SOL    HW213712   3.282   4.432   7.703  3.5590 -0.6034  1.5130
 4311SOL     OW13713   4.007   1.335   0.591 -0.4917  0.3592  0.0149
 4311SOL    HW113714   4.053   1.371   0.515 -1.0120 -0.3157 -0.6428
 4311SOL    HW213715   3.917   1.322   0.560 -1.0922  1.5088  1.2241
 4312SOL     OW13716   1.738   2.755   6.359  0.4777  0.0274  0.7889
 4312SOL    HW113717   1.794   2.776   6.433 -0.8303 -1.5591  2.3191
 4312SOL    HW213718   1.701   2.669   6.380  1.8131 -1.6489 -2.7564
 4313SOL     OW13719   1.797   0.201   0.108  0.6252 -0.7142 -0.1269
 4313SOL    HW113720   1.880   0.210   0.155  1.1264 -2.3899 -0.6389
 4313SOL    HW213721   1.763   0.116   0.134  0.3909 -1.2112 -1.9282
 4314SOL     OW13722   5.545   4.160   0.232 -0.4542  0.5076  0.4825
 4314SOL    HW113723   5.587   4.111   0.161 -2.2109 -0.1298 -0.1842
 4314SOL    HW213724   5.524   4.094   0.298 -3.5854  0.0670 -0.7784
 4315SOL     OW13725   7.751   0.469   7.190 -0.4626 -0.3535  0.2057
 4315SOL    HW113726   7.842   0.497   7.176 -0.0731 -1.2882  0.7463
 4315SOL    HW213727   7.748   0.381   7.154 -0.4899 -1.2622  2.3091
 4316SOL     OW13728   6.995   2.324   4.403  0.1358  0.0910  0.0307
 4316SOL    HW113729   6.963   2.281   4.324 -1.7183  1.6249 -0.1173
 4316SOL    HW213730   6.974   2.263   4.473 -2.0700  0.4810 -0.2147
 4317SOL     OW13731   2.088   6.742   3.982 -0.4053 -0.4426 -0.8320
 4317SOL    HW113732   2.168   6.793   3.991  0.8423 -2.2308 -1.1227
 4317SOL    HW213733   2.078   6.698   4.067 -2.2401  1.2800 -0.0948
 4318SOL     OW13734   4.746   4.318   6.465 -0.1604  0.1529 -0.4092
 4318SOL    HW113735   4.754   4.229   6.499 -0.2876 -0.5860 -2.1905
 4318SOL    HW213736   4.688   4.362   6.527 -2.2027 -1.7740 -0.8111
 4319SOL     OW13737   5.668   0.482   7.012  0.1873 -0.3079 -0.1032
 4319SOL    HW113738   5.576   0.463   6.992 -0.0905 -0.6817  1.4191
 4319SOL    HW213739   5.715   0.460   6.931 -0.8527 -1.7503 -0.3520
 4320SOL     OW13740   0.423   2.970   5.178 -0.3897  0.0481 -0.0443
 4320SOL    HW113741   0.455   2.921   5.103  0.9903 -0.1115  0.6163
 4320SOL    HW213742   0.451   3.060   5.161 -2.0943  0.4947 -0.7962
 4321SOL     OW13743   7.948   7.547   0.152 -0.4610 -0.2370  0.8692
 4321SOL    HW113744   8.019   7.599   0.191 -0.0601 -0.4476  0.4250
 4321SOL    HW213745   7.958   7.559   0.058 -1.8550  0.8326  0.8165
 4322SOL     OW13746   3.604   1.816   2.780 -0.5426 -0.5654  0.2688
 4322SOL    HW113747   3.568   1.728   2.789  0.4629 -1.0546 -0.2882
 4322SOL    HW213748   3.690   1.811   2.820  0.1631 -0.2760 -1.1400
 4323SOL     OW13749   3.386   0.497   5.476  0.0260 -1.0145  0.5965
 4323SOL    HW113750   3.417   0.583   5.445 -1.2428 -0.0255  1.9185
 4323SOL    HW213751   3.446   0.474   5.547 -0.2510 -0.7120  0.9320
 4324SOL     OW13752   2.672   2.415   3.933 -0.3510 -0.1277 -0.1078
 4324SOL    HW113753   2.612   2.393   3.862  2.2825 -0.3189 -2.4187
 4324SOL    HW213754   2.674   2.511   3.933 -0.9878 -0.1048  0.3268
 4325SOL     OW13755   7.855   0.263   0.010  0.7803 -0.0039 -0.4943
 4325SOL    HW113756   7.811   0.337   0.050  0.2970 -0.4480 -0.1964
 4325SOL    HW213757   7.869   0.290  -0.081 -0.7932 -0.1394 -0.8014
 4326SOL     OW13758   1.350   6.544   5.156  0.0396 -0.0018  0.9752
 4326SOL    HW113759   1.336   6.471   5.095  0.6464 -0.4105  1.3188
 4326SOL    HW213760   1.440   6.532   5.186  1.1657  2.4319 -1.0504
 4327SOL     OW13761   2.115   7.796   1.622 -0.0814 -0.4387  1.3062
 4327SOL    HW113762   2.195   7.844   1.643 -0.0307  0.2309 -0.2694
 4327SOL    HW213763   2.141   7.732   1.557 -1.0040  0.5761 -0.1192
 4328SOL     OW13764   4.416   5.281   6.546  0.0762 -0.4767  0.1752
 4328SOL    HW113765   4.380   5.205   6.500 -2.9155 -0.3189  1.9757
 4328SOL    HW213766   4.360   5.354   6.518 -0.1819  0.0972  2.0444
 4329SOL     OW13767   6.198   2.907   3.432  0.2010  0.0199  0.1501
 4329SOL    HW113768   6.199   2.908   3.528 -0.7759 -1.0754  0.1856
 4329SOL    HW213769   6.130   2.969   3.408 -0.5037 -0.7131  0.2133
 4330SOL     OW13770   1.312   2.609   5.285 -0.3080 -0.8286  0.1698
 4330SOL    HW113771   1.381   2.652   5.234 -0.2543 -1.1876 -0.0655
 4330SOL    HW213772   1.232   2.621   5.232 -0.9682  1.7356  1.5721
 4331SOL     OW13773   4.397   3.003   5.894  0.2284  0.2076 -0.2073
 4331SOL    HW113774   4.432   2.956   5.971 -1.7166  1.0044  1.2394
 4331SOL    HW213775   4.386   2.934   5.828  0.4873 -0.7875  0.7423
 4332SOL     OW13776   4.056   7.662   3.949 -0.2465  0.1892 -0.4609
 4332SOL    HW113777   4.137   7.698   3.984 -0.4283  1.1189 -0.9684
 4332SOL    HW213778   4.081   7.577   3.913 -0.0706 -0.8839  1.9875
 4333SOL     OW13779   6.358   6.663   5.284 -0.3019 -0.9577 -0.1843
 4333SOL    HW113780   6.370   6.758   5.287 -1.6123 -0.7298 -1.1523
 4333SOL    HW213781   6.437   6.630   5.240 -0.8729 -0.0528 -1.9948
 4334SOL     OW13782   5.953   5.262   8.191 -0.3940 -0.3083  0.0227
 4334SOL    HW113783   5.981   5.228   8.276 -2.5519 -1.3020  0.4198
 4334SOL    HW213784   6.018   5.228   8.129  0.8657 -0.0811  1.1739
 4335SOL     OW13785   4.917   4.544   4.238 -0.2974  0.3928 -0.1342
 4335SOL    HW113786   4.971   4.534   4.316  1.5633 -1.2981 -1.5507
 4335SOL    HW213787   4.854   4.472   4.243 -1.2928  1.2695  0.5765
 4336SOL     OW13788   3.433   0.486   3.710 -0.2992  0.4945 -0.3755
 4336SOL    HW113789   3.466   0.519   3.627 -0.8902  0.9017 -0.4534
 4336SOL    HW213790   3.477   0.401   3.721  0.8618  1.0715 -0.4007
 4337SOL     OW13791   6.085   7.086   7.681 -0.7657  0.2079 -0.0391
 4337SOL    HW113792   6.090   7.140   7.602 -0.6962  0.8283  0.3882
 4337SOL    HW213793   6.120   7.001   7.653 -1.6206  0.1243 -0.9259
 4338SOL     OW13794   3.473   6.048   8.179 -0.3094 -0.2783 -0.1406
 4338SOL    HW113795   3.565   6.033   8.199 -0.3126 -0.7815 -0.4840
 4338SOL    HW213796   3.428   6.038   8.263 -0.1643 -1.0291 -0.1469
 4339SOL     OW13797   6.953   3.238   5.682  0.2072  0.6832  0.2979
 4339SOL    HW113798   6.929   3.223   5.774 -0.4998 -2.0288 -0.2390
 4339SOL    HW213799   7.016   3.168   5.662 -0.8816  0.1987 -1.7030
 4340SOL     OW13800   0.349   8.213   6.371  0.4087 -0.2993  0.4088
 4340SOL    HW113801   0.401   8.211   6.291  0.5682 -2.5464  0.4995
 4340SOL    HW213802   0.393   8.152   6.430 -0.2616  0.5759  1.8699
 4341SOL     OW13803   3.643   1.481   7.455 -0.5951  0.1437  0.6461
 4341SOL    HW113804   3.551   1.455   7.451 -0.0212 -1.9885  0.4001
 4341SOL    HW213805   3.671   1.456   7.543  0.8165 -3.3996 -0.6244
 4342SOL     OW13806   3.995   0.957   6.561  0.1395  0.3708  0.1939
 4342SOL    HW113807   4.047   0.954   6.481  0.1823  0.4561  0.2185
 4342SOL    HW213808   4.038   1.023   6.615 -1.1377  1.8995 -0.5829
 4343SOL     OW13809   1.684   7.485   3.581 -0.4918 -0.1639 -0.7225
 4343SOL    HW113810   1.685   7.472   3.676 -0.5978  0.8037 -0.5743
 4343SOL    HW213811   1.742   7.417   3.547 -1.2322 -1.1494 -0.0584
 4344SOL     OW13812   8.071   2.599   2.038 -0.5551  0.2360 -0.2143
 4344SOL    HW113813   8.055   2.514   1.997  1.4061 -0.2717 -0.0353
 4344SOL    HW213814   8.145   2.635   1.989  1.4619 -0.1016  2.3443
 4345SOL     OW13815   3.478   7.685   4.710 -0.2555  0.3013 -0.1838
 4345SOL    HW113816   3.530   7.762   4.687 -0.1623  0.7357  1.3489
 4345SOL    HW213817   3.387   7.710   4.691 -0.2928  1.0475  0.9234
 4346SOL     OW13818   1.278   5.732   3.784 -0.1443 -0.1972 -0.5572
 4346SOL    HW113819   1.200   5.751   3.836 -0.6753 -1.1632 -0.9835
 4346SOL    HW213820   1.282   5.802   3.719 -1.3854 -0.8261 -1.3406
 4347SOL     OW13821   4.756   0.577   4.761  0.1256 -0.3776 -0.1932
 4347SOL    HW113822   4.840   0.561   4.718  0.7293  0.9579  0.4050
 4347SOL    HW213823   4.767   0.540   4.849 -0.2891 -1.1036 -0.4415
 4348SOL     OW13824   2.278   7.784   1.241 -0.6767  0.6390 -0.3734
 4348SOL    HW113825   2.286   7.873   1.205  0.7471 -0.1962 -2.2748
 4348SOL    HW213826   2.184   7.771   1.249 -0.9445  2.0581 -0.7946
 4349SOL     OW13827   8.194   5.541   7.277  0.4684 -0.1049 -0.0971
 4349SOL    HW113828   8.238   5.527   7.361 -0.7507  1.8420  0.9399
 4349SOL    HW213829   8.237   5.619   7.241 -1.1934  1.0625  0.3407
 4350SOL     OW13830   1.622   0.945   5.747 -0.0840 -0.3249 -0.5751
 4350SOL    HW113831   1.600   0.866   5.796 -2.7679  0.3655 -0.5246
 4350SOL    HW213832   1.677   0.995   5.807  1.2042 -1.8548 -0.4034
 4351SOL     OW13833   7.266   2.728   1.581  0.3931  0.0222  0.0924
 4351SOL    HW113834   7.295   2.697   1.495  0.8407  0.1709  0.1907
 4351SOL    HW213835   7.277   2.822   1.578 -2.0737  0.3752 -0.6322
 4352SOL     OW13836   1.044   2.311   1.134  0.0405 -0.3451 -0.0207
 4352SOL    HW113837   1.087   2.256   1.199  1.8261  1.1138  0.1426
 4352SOL    HW213838   1.027   2.393   1.180  2.6924  1.2730 -1.6181
 4353SOL     OW13839   3.825   3.807   0.804  0.3666  0.0801 -0.1827
 4353SOL    HW113840   3.803   3.862   0.728 -1.2453  1.1274  0.9688
 4353SOL    HW213841   3.894   3.856   0.849 -0.5568  0.8377  0.4467
 4354SOL     OW13842   1.028   1.247   4.415 -0.5843 -0.2810 -0.4008
 4354SOL    HW113843   1.019   1.342   4.428 -0.0162 -0.4583  1.5097
 4354SOL    HW213844   1.122   1.232   4.406 -0.7421 -0.5649 -1.9142
 4355SOL     OW13845   2.828   3.894   0.742  0.2686  0.0652 -0.3287
 4355SOL    HW113846   2.770   3.833   0.787  0.2321  0.2479 -0.1300
 4355SOL    HW213847   2.906   3.842   0.722 -0.2312 -0.3736 -1.2145
 4356SOL     OW13848   4.016   4.468   2.206  0.1753 -0.0723  0.5884
 4356SOL    HW113849   3.978   4.396   2.155 -0.5936 -0.0594  1.1165
 4356SOL    HW213850   4.095   4.493   2.159 -0.5265 -0.0478 -0.6058
 4357SOL     OW13851   8.312   7.425   0.785  0.6853 -0.2157 -0.1708
 4357SOL    HW113852   8.250   7.431   0.858 -1.2541 -1.3137 -1.6285
 4357SOL    HW213853   8.316   7.514   0.750 -2.1254 -0.5164 -1.5586
 4358SOL     OW13854   5.254   7.277   1.456 -0.4911  0.2523 -0.0889
 4358SOL    HW113855   5.249   7.368   1.486 -0.7428 -0.1396  1.1098
 4358SOL    HW213856   5.167   7.259   1.420 -0.0206  0.8948 -1.6218
 4359SOL     OW13857   1.965   3.244   3.247 -0.3701  0.1795  0.1300
 4359SOL    HW113858   1.966   3.217   3.338 -0.8340  0.2155  0.1471
 4359SOL    HW213859   1.922   3.172   3.201  0.1426  0.0220 -0.1057
 4360SOL     OW13860   5.683   5.242   6.565  0.0544 -0.4893  0.1090
 4360SOL    HW113861   5.750   5.206   6.508 -0.1188 -1.0301  0.2392
 4360SOL    HW213862   5.731   5.288   6.634  0.3559 -1.8899  0.8861
 4361SOL     OW13863   2.535   0.323   4.192 -0.9116 -0.0833  0.2483
 4361SOL    HW113864   2.447   0.297   4.162 -1.4511  0.1174  1.5777
 4361SOL    HW213865   2.539   0.417   4.173 -0.1324 -0.4769 -1.7652
 4362SOL     OW13866   6.826   4.309   7.372 -0.5914  0.3887 -0.3454
 4362SOL    HW113867   6.871   4.392   7.388 -0.9403  0.0374  3.2594
 4362SOL    HW213868   6.880   4.243   7.415 -1.9735 -0.7635 -0.2933
 4363SOL     OW13869   5.315   7.344   2.565 -0.2207  0.0467 -0.1377
 4363SOL    HW113870   5.308   7.413   2.630  0.1620 -0.0775  0.0430
 4363SOL    HW213871   5.258   7.274   2.598  0.3890 -0.2327  0.3569
 4364SOL     OW13872   0.072   1.303   5.599 -0.5933  0.2782  0.4191
 4364SOL    HW113873   0.016   1.278   5.673  0.9140  1.2278  1.9451
 4364SOL    HW213874   0.161   1.290   5.631  0.1494  2.6722 -0.4921
 4365SOL     OW13875   2.633   0.717   5.937  0.7104 -0.4369 -0.2432
 4365SOL    HW113876   2.649   0.757   6.022  1.1524 -1.2174  0.0438
 4365SOL    HW213877   2.656   0.786   5.874 -1.6660  0.9252  0.2408
 4366SOL     OW13878   5.711   2.283   7.698 -0.0384 -0.2342 -0.1932
 4366SOL    HW113879   5.747   2.283   7.787 -1.1549  1.9524  0.3415
 4366SOL    HW213880   5.661   2.202   7.692  0.6901 -0.7836  0.9078
 4367SOL     OW13881   2.389   0.057   6.626 -0.0770 -0.5405  0.0884
 4367SOL    HW113882   2.299   0.049   6.595  0.2699  0.9474 -1.4285
 4367SOL    HW213883   2.382   0.105   6.708 -0.6577 -0.2140 -0.1470
 4368SOL     OW13884   2.313   2.867   7.787 -0.0463 -0.4873  0.0839
 4368SOL    HW113885   2.342   2.957   7.798 -2.2157  0.6210 -2.1995
 4368SOL    HW213886   2.364   2.834   7.713 -0.3999 -0.5419 -0.1426
 4369SOL     OW13887   2.028   8.096   2.340  0.6515  0.5532 -0.2721
 4369SOL    HW113888   2.004   8.188   2.350 -1.0978 -0.0478  1.6566
 4369SOL    HW213889   2.069   8.073   2.424  1.3275 -0.3711 -0.8398
 4370SOL     OW13890   3.727   7.704   7.253  0.0293  0.1407  0.4284
 4370SOL    HW113891   3.782   7.735   7.181  0.1949 -3.7278 -1.3700
 4370SOL    HW213892   3.639   7.736   7.231  0.2439 -0.2106 -1.0418
 4371SOL     OW13893   2.088   0.969   2.247  0.1654 -0.7785 -0.2508
 4371SOL    HW113894   1.995   0.972   2.226  0.3325 -1.9048 -1.2810
 4371SOL    HW213895   2.129   0.935   2.168  1.2515 -1.8331  0.7311
 4372SOL     OW13896   3.630   3.406   0.721 -0.2859  0.2086  0.3191
 4372SOL    HW113897   3.638   3.352   0.799 -2.3779 -1.0410 -0.2552
 4372SOL    HW213898   3.708   3.462   0.723  1.5037 -2.1396  1.4363
 4373SOL     OW13899   4.481   6.711   7.472 -0.7753  0.5233 -0.2571
 4373SOL    HW113900   4.576   6.718   7.461 -0.9142  0.2105 -1.9716
 4373SOL    HW213901   4.467   6.715   7.566  1.0328 -0.4349  0.0957
 4374SOL     OW13902   7.290   2.607   7.664  0.5815  0.3872  0.4428
 4374SOL    HW113903   7.282   2.523   7.618 -2.1759  0.9937 -0.3581
 4374SOL    HW213904   7.342   2.586   7.742  1.1047 -1.7538 -0.4008
 4375SOL     OW13905   7.794   5.406   8.128  0.1376  0.0787 -0.6155
 4375SOL    HW113906   7.855   5.358   8.183 -1.9127  0.3535  2.1227
 4375SOL    HW213907   7.770   5.483   8.179 -2.8304 -0.2632 -1.2948
 4376SOL     OW13908   7.241   2.859   0.108  0.9173 -0.0044 -0.0741
 4376SOL    HW113909   7.324   2.814   0.090  0.4188 -0.9707 -0.0591
 4376SOL    HW213910   7.192   2.851   0.026  0.2667 -0.7437  0.3744
 4377SOL     OW13911   0.102   5.185   5.903  0.0370  0.7384 -0.5199
 4377SOL    HW113912   0.103   5.233   5.821  0.4281  0.8089 -0.4747
 4377SOL    HW213913   0.010   5.182   5.928  0.0624  2.1075 -0.1481
 4378SOL     OW13914   3.247   3.403   2.649 -0.5408  0.2583  0.4945
 4378SOL    HW113915   3.201   3.323   2.623 -0.2843 -0.4491  2.0706
 4378SOL    HW213916   3.295   3.430   2.571 -0.0229 -1.5546  0.1400
 4379SOL     OW13917   3.042   5.621   5.456  0.4531  0.1017  0.2032
 4379SOL    HW113918   3.085   5.693   5.501 -2.2205  1.1660  1.2395
 4379SOL    HW213919   3.006   5.567   5.527  1.7321 -1.8747 -0.5704
 4380SOL     OW13920   2.230   2.119   1.060  0.4027  0.1461  0.2287
 4380SOL    HW113921   2.317   2.152   1.084  0.8589 -0.2878 -0.7701
 4380SOL    HW213922   2.206   2.060   1.131 -0.0465  1.8797  1.6127
 4381SOL     OW13923   4.084   2.580   7.262 -0.1122 -0.0719  0.0161
 4381SOL    HW113924   4.044   2.606   7.345 -2.7794 -0.4389 -1.0354
 4381SOL    HW213925   4.122   2.494   7.280  0.7918  0.5591  1.2387
 4382SOL     OW13926   6.747   2.561   5.482  0.1103 -0.4073  0.7194
 4382SOL    HW113927   6.805   2.495   5.520 -1.3577 -0.9342  2.1734
 4382SOL    HW213928   6.718   2.613   5.557  0.0687  0.9726 -0.2083
 4383SOL     OW13929   4.394   5.001   5.267 -0.0148 -0.3975  0.1321
 4383SOL    HW113930   4.448   5.053   5.207  1.9216 -1.2965  1.0112
 4383SOL    HW213931   4.353   5.066   5.324  0.2267  0.3237 -0.4932
 4384SOL     OW13932   5.079   4.456   7.880 -0.0657  0.0422  0.7078
 4384SOL    HW113933   5.040   4.400   7.813  2.0490  1.1115 -1.6069
 4384SOL    HW213934   5.159   4.411   7.906  0.5566  0.9457  0.4023
 4385SOL     OW13935   3.519   2.952   5.887  0.6557  0.4928  0.2018
 4385SOL    HW113936   3.520   2.869   5.839 -0.4166  0.6896 -0.2014
 4385SOL    HW213937   3.582   3.008   5.841 -0.6691  0.8269 -1.2991
 4386SOL     OW13938   5.400   5.079   2.691  0.2190 -0.7858  0.3989
 4386SOL    HW113939   5.377   5.151   2.750 -0.7114 -0.0023 -0.8627
 4386SOL    HW213940   5.329   5.077   2.627  0.9839 -1.8815 -0.4508
 4387SOL     OW13941   1.778   7.122   0.755 -0.1787 -0.0617  0.0823
 4387SOL    HW113942   1.805   7.191   0.815  1.2533 -0.6255  0.1453
 4387SOL    HW213943   1.683   7.117   0.764 -0.2042  1.2561  0.7551
 4388SOL     OW13944   4.902   6.212   3.238  0.2295  0.1513  0.3134
 4388SOL    HW113945   4.855   6.262   3.172  2.3754 -0.3987 -1.7462
 4388SOL    HW213946   4.973   6.269   3.266  0.7514 -0.5144  0.3686
 4389SOL     OW13947   4.712   3.729   7.753  0.3391 -0.0377  0.5331
 4389SOL    HW113948   4.668   3.721   7.668 -0.3131  1.1084  0.7470
 4389SOL    HW213949   4.789   3.673   7.745  0.2133 -0.0557 -0.7738
 4390SOL     OW13950   5.379   7.439   5.855 -0.2193 -0.2262  0.0556
 4390SOL    HW113951   5.381   7.402   5.943  0.0035 -2.3292 -0.7588
 4390SOL    HW213952   5.364   7.363   5.798 -1.9790  1.2676 -1.6115
 4391SOL     OW13953   5.561   2.628   0.145 -0.0011 -0.2711  0.4444
 4391SOL    HW113954   5.635   2.567   0.143  0.6837  0.5517  0.0033
 4391SOL    HW213955   5.600   2.713   0.124 -0.9672  0.2880  0.8731
 4392SOL     OW13956   2.731   4.896   0.090 -0.0805 -0.7305 -0.1739
 4392SOL    HW113957   2.772   4.828   0.143  0.8318 -0.7008 -0.8279
 4392SOL    HW213958   2.700   4.851   0.012  0.8376 -0.3445 -0.7720
 4393SOL     OW13959   1.668   8.047   0.809  0.0093  0.1648  0.0514
 4393SOL    HW113960   1.736   8.003   0.757  0.2067  1.9326 -1.2744
 4393SOL    HW213961   1.586   8.023   0.766  0.1167  1.0158 -0.6688
 4394SOL     OW13962   3.329   4.729   6.300 -0.4720 -0.1651  0.1842
 4394SOL    HW113963   3.255   4.677   6.332  1.0217 -2.0067  0.8242
 4394SOL    HW213964   3.387   4.666   6.259 -0.1753  1.5267 -2.2224
 4395SOL     OW13965   7.033   1.988   7.777  0.4400  0.1446 -0.6916
 4395SOL    HW113966   7.049   1.900   7.742  1.6316  0.3739 -0.7922
 4395SOL    HW213967   6.987   2.034   7.708  1.0356  0.0018 -1.1915
 4396SOL     OW13968   2.273   3.837   6.694  0.2958 -0.7074  0.3196
 4396SOL    HW113969   2.295   3.892   6.769 -1.6317  0.6978 -0.0769
 4396SOL    HW213970   2.212   3.772   6.729  0.7847 -1.1814  0.3103
 4397SOL     OW13971   7.406   5.513   7.889  0.3412  0.4791  0.2806
 4397SOL    HW113972   7.470   5.443   7.896  1.0146  1.0655  0.0771
 4397SOL    HW213973   7.451   5.590   7.924  0.2208  1.1921 -1.0952
 4398SOL     OW13974   4.476   7.880   0.901 -0.2177 -0.2044  0.0992
 4398SOL    HW113975   4.421   7.908   0.828 -0.7207 -1.0031  0.1575
 4398SOL    HW213976   4.480   7.784   0.893 -1.3998 -0.4435  1.8787
 4399SOL     OW13977   1.960   8.041   7.789  0.8189  0.0822  0.1061
 4399SOL    HW113978   1.993   8.111   7.845 -1.4130  0.1033  1.5278
 4399SOL    HW213979   1.872   8.069   7.765  0.4137 -1.5675 -0.5079
 4400SOL     OW13980   2.290   6.509   3.346 -0.4553  0.0917  0.0319
 4400SOL    HW113981   2.235   6.566   3.293 -1.6091 -1.5228 -0.5837
 4400SOL    HW213982   2.259   6.421   3.327  2.7257 -0.9840 -0.8196
 4401SOL     OW13983   6.089   7.829   2.599  0.0834  0.0088 -0.5934
 4401SOL    HW113984   6.155   7.773   2.640  2.0415  1.4796 -1.5353
 4401SOL    HW213985   6.080   7.793   2.511 -0.8881 -0.5658 -0.2717
 4402SOL     OW13986   0.045   3.592   0.970 -0.0660 -0.2630 -0.4739
 4402SOL    HW113987  -0.035   3.574   1.021  1.1456 -0.1280  1.6008
 4402SOL    HW213988   0.037   3.537   0.892 -0.4198 -3.3302  1.5570
 4403SOL     OW13989   7.209   3.654   6.550 -0.3807 -0.3776 -0.4141
 4403SOL    HW113990   7.164   3.697   6.623  0.3705  1.6639 -1.0743
 4403SOL    HW213991   7.172   3.696   6.472  0.6001 -0.7176 -1.0801
 4404SOL     OW13992   6.631   3.071   3.485  0.2514 -0.0377  0.0386
 4404SOL    HW113993   6.725   3.074   3.504  0.0514 -0.1034  1.1206
 4404SOL    HW213994   6.593   3.140   3.541 -0.5793 -1.3729  1.1725
 4405SOL     OW13995   2.695   2.820   0.611  0.2706  0.1853  0.4457
 4405SOL    HW113996   2.670   2.786   0.697 -0.0485 -1.1376 -0.1514
 4405SOL    HW213997   2.791   2.819   0.612  0.2675  0.1038  0.7536
 4406SOL     OW13998   4.628   4.302   3.653 -0.2815  0.5456 -0.3812
 4406SOL    HW113999   4.629   4.226   3.595  0.1594 -0.7272  1.2135
 4406SOL    HW214000   4.584   4.370   3.603  1.6094  0.0834 -2.8644
 4407SOL     OW14001   6.781   5.269   0.662  0.1082 -0.1707 -0.8986
 4407SOL    HW114002   6.746   5.186   0.693  2.4214 -1.3586 -1.2797
 4407SOL    HW214003   6.856   5.287   0.719  1.4129  0.1259 -2.6292
 4408SOL     OW14004   0.348   4.184   7.389 -0.0179  0.1708 -0.0246
 4408SOL    HW114005   0.277   4.199   7.327 -0.2511 -0.6445  0.0275
 4408SOL    HW214006   0.307   4.191   7.475  0.1665  0.6518  0.0231
 4409SOL     OW14007   6.270   3.377   3.539 -0.3443  0.3182 -0.1599
 4409SOL    HW114008   6.335   3.441   3.567  1.2391 -0.6183 -1.5300
 4409SOL    HW214009   6.211   3.427   3.482 -1.1386  1.2583  1.3863
 4410SOL     OW14010   5.415   6.074   8.166 -0.2004 -0.5462  0.1218
 4410SOL    HW114011   5.427   5.999   8.108  0.5041  0.3122 -0.8796
 4410SOL    HW214012   5.381   6.037   8.247 -0.3396 -1.8808 -0.5297
 4411SOL     OW14013   5.843   6.421   7.337  0.6596 -0.1285  0.8767
 4411SOL    HW114014   5.925   6.466   7.316  1.0505 -1.1818  0.0612
 4411SOL    HW214015   5.798   6.413   7.253 -0.7712  1.3142  1.4500
 4412SOL     OW14016   0.786   1.099   4.498 -0.2243  0.2860  0.1248
 4412SOL    HW114017   0.847   1.171   4.483  0.8830 -0.3552  1.2376
 4412SOL    HW214018   0.784   1.089   4.594  0.1545 -1.5319 -0.0069
 4413SOL     OW14019   8.217   6.729   4.500 -0.2030  0.3328  0.2486
 4413SOL    HW114020   8.295   6.677   4.481  0.3916  1.6865 -1.2715
 4413SOL    HW214021   8.165   6.675   4.560  0.8739 -1.5038 -0.4211
 4414SOL     OW14022   4.670   0.950   8.209  0.0940  0.6001  0.0310
 4414SOL    HW114023   4.604   0.962   8.277 -1.4501 -1.2099 -1.0334
 4414SOL    HW214024   4.723   0.876   8.239 -2.0849 -1.8476 -1.6156
 4415SOL     OW14025   0.134   0.745   1.435 -0.1707  0.3594  0.6603
 4415SOL    HW114026   0.162   0.787   1.354  1.1900 -0.3366  0.7412
 4415SOL    HW214027   0.097   0.817   1.487 -0.4984  0.9175 -0.3166
 4416SOL     OW14028   4.853   6.256   4.291 -0.3486 -0.4684 -0.1773
 4416SOL    HW114029   4.773   6.306   4.272  0.4722  1.5175  1.2324
 4416SOL    HW214030   4.916   6.285   4.226  0.8860  2.4105  2.0814
 4417SOL     OW14031   6.922   5.938   3.034 -0.1923 -0.5802  0.4972
 4417SOL    HW114032   6.978   5.865   3.006  1.7320  0.4445  1.4626
 4417SOL    HW214033   6.977   6.015   3.022 -1.4875  0.5067  1.3634
 4418SOL     OW14034   3.740   4.755   5.442 -0.0053 -0.1149  0.0172
 4418SOL    HW114035   3.820   4.735   5.490 -0.3262 -1.2018  0.1156
 4418SOL    HW214036   3.675   4.694   5.477 -1.2808  1.7058  0.9650
 4419SOL     OW14037   5.227   6.242   7.548  0.1397 -0.3674  0.1540
 4419SOL    HW114038   5.184   6.195   7.619 -0.8999 -0.8376 -0.7562
 4419SOL    HW214039   5.266   6.174   7.494 -0.2870 -0.1212 -0.4789
 4420SOL     OW14040   3.992   1.912   0.549  0.5522  0.0265 -0.2142
 4420SOL    HW114041   4.053   1.839   0.561 -1.1155 -1.5986 -1.1488
 4420SOL    HW214042   4.049   1.987   0.531  2.4227 -0.5619  2.4801
 4421SOL     OW14043   2.383   0.272   2.827 -0.1147  0.3716 -0.8600
 4421SOL    HW114044   2.360   0.251   2.917 -0.9122  3.0936 -0.3178
 4421SOL    HW214045   2.464   0.323   2.834  1.5724 -1.9740 -2.0280
 4422SOL     OW14046   6.949   7.391   2.194 -0.6900 -0.2726 -0.2722
 4422SOL    HW114047   7.018   7.334   2.163  0.7168  0.9388  0.5018
 4422SOL    HW214048   6.884   7.391   2.124  2.1443  2.0320 -3.2278
 4423SOL     OW14049   0.957   3.081   3.614  0.4685  0.4199 -0.0312
 4423SOL    HW114050   0.984   3.029   3.690  2.6969  0.9179 -0.4096
 4423SOL    HW214051   1.038   3.122   3.583 -0.7082  1.7074 -1.5655
 4424SOL     OW14052   0.458   5.016   6.731 -0.1967  0.1885 -0.0181
 4424SOL    HW114053   0.369   5.050   6.740 -0.4022 -0.6069  1.2180
 4424SOL    HW214054   0.486   4.998   6.820  0.8625 -0.4538 -0.4559
 4425SOL     OW14055   7.037   4.603   5.672 -0.5530  0.1076 -0.7356
 4425SOL    HW114056   7.073   4.549   5.601  0.0531  0.0875 -0.4185
 4425SOL    HW214057   7.096   4.589   5.745 -1.7806 -0.7559  0.1442
 4426SOL     OW14058   7.670   4.079   3.982  0.1132  0.3973 -0.4463
 4426SOL    HW114059   7.593   4.043   3.939 -0.2016  0.7934 -0.2232
 4426SOL    HW214060   7.719   4.003   4.012 -0.3700  0.1470 -0.2824
 4427SOL     OW14061   1.508   2.996   6.399  0.5706  0.5362 -0.0407
 4427SOL    HW114062   1.556   3.078   6.388 -0.4527  1.1843  0.1953
 4427SOL    HW214063   1.418   3.023   6.418  0.2756 -0.6395  0.3265
 4428SOL     OW14064   5.554   3.863   4.831  0.4012 -0.6662  0.4794
 4428SOL    HW114065   5.639   3.844   4.792  0.5956  0.4683  0.3205
 4428SOL    HW214066   5.575   3.897   4.918  0.2524  1.5398 -0.2900
 4429SOL     OW14067   3.818   1.742   4.518 -0.2650  0.6650  0.4363
 4429SOL    HW114068   3.794   1.795   4.442 -3.1785 -1.0594  0.0327
 4429SOL    HW214069   3.796   1.798   4.593  0.6590  1.5678  0.0703
 4430SOL     OW14070   0.935   3.373   4.831 -0.0767 -0.0507 -0.8853
 4430SOL    HW114071   0.926   3.345   4.740  1.1491  0.9367 -1.3478
 4430SOL    HW214072   0.917   3.295   4.882 -2.1620 -0.3142 -1.8989
 4431SOL     OW14073   0.839   3.430   0.805 -0.0403 -0.6656  0.8793
 4431SOL    HW114074   0.782   3.445   0.880  0.3708  0.6700  0.9370
 4431SOL    HW214075   0.926   3.416   0.842  0.0742 -0.4919  0.6799
 4432SOL     OW14076   0.866   0.848   7.850  0.1598 -0.4224  0.2361
 4432SOL    HW114077   0.856   0.760   7.887  0.4330  0.0082  1.3758
 4432SOL    HW214078   0.958   0.854   7.825  0.3754 -0.1336  1.0643
 4433SOL     OW14079   2.034   0.387   5.902  0.4075 -0.2228  0.1610
 4433SOL    HW114080   2.032   0.473   5.944 -1.9193  0.2752 -0.8101
 4433SOL    HW214081   2.075   0.402   5.817  1.2833 -0.3887  0.5412
 4434SOL     OW14082   1.106   4.499   0.405 -0.3413  0.4686  0.4217
 4434SOL    HW114083   1.015   4.505   0.374 -0.0394  0.5839 -0.4848
 4434SOL    HW214084   1.098   4.475   0.497 -1.2844 -0.6404  0.0829
 4435SOL     OW14085   3.359   7.648   2.302 -0.2746 -0.3852  0.3914
 4435SOL    HW114086   3.302   7.724   2.315 -0.0733 -0.0661 -0.5093
 4435SOL    HW214087   3.417   7.673   2.230  1.3623 -0.5078  1.5897
 4436SOL     OW14088   1.739   5.983   5.905 -0.7271  0.9393 -0.0270
 4436SOL    HW114089   1.771   5.896   5.931 -1.0769  1.3476  1.9230
 4436SOL    HW214090   1.714   5.973   5.814  1.0273 -0.5079 -0.4148
 4437SOL     OW14091   1.755   5.552   3.362  0.0282  0.7432 -0.0205
 4437SOL    HW114092   1.789   5.497   3.433 -0.1219 -0.3792 -0.7840
 4437SOL    HW214093   1.666   5.576   3.391 -0.0618  0.2312  0.1393
 4438SOL     OW14094   6.255   6.660   6.100 -0.1343  0.6759 -0.2111
 4438SOL    HW114095   6.283   6.739   6.146 -0.5435  1.3325 -1.0618
 4438SOL    HW214096   6.298   6.666   6.014 -0.7588  0.3493 -0.5502
 4439SOL     OW14097   6.389   2.690   7.058 -0.4694 -0.2973 -0.0535
 4439SOL    HW114098   6.363   2.608   7.099 -0.7170 -0.8048 -1.1818
 4439SOL    HW214099   6.428   2.664   6.975 -0.1569  0.7032 -0.2316
 4440SOL     OW14100   5.513   7.522   0.561  0.0427 -0.3510  1.1848
 4440SOL    HW114101   5.460   7.601   0.566 -1.7986 -1.3250 -0.8330
 4440SOL    HW214102   5.600   7.548   0.591  0.1996  3.0966 -1.6124
 4441SOL     OW14103   8.083   5.487   0.068 -0.9483 -0.4297  0.2164
 4441SOL    HW114104   8.051   5.548   0.134 -0.1264  0.0401  0.1961
 4441SOL    HW214105   8.172   5.464   0.097 -0.9405 -0.9587 -0.2185
 4442SOL     OW14106   0.073   1.849   3.285  0.0583  0.0893  0.1675
 4442SOL    HW114107   0.024   1.908   3.342 -1.1416  0.3513 -1.0645
 4442SOL    HW214108   0.106   1.781   3.343 -2.2860 -0.4165  1.0509
 4443SOL     OW14109   1.708   6.421   4.453 -0.3138 -0.0744  0.1417
 4443SOL    HW114110   1.653   6.401   4.528 -0.7872  0.4300 -0.0704
 4443SOL    HW214111   1.650   6.412   4.377 -0.0681  0.3204 -0.0951
 4444SOL     OW14112   3.432   2.997   1.938  0.3411 -0.1436 -0.8083
 4444SOL    HW114113   3.481   3.026   1.861  0.8311 -1.5069 -1.0237
 4444SOL    HW214114   3.497   2.950   1.991  0.9122  3.3075  2.0283
 4445SOL     OW14115   1.015   5.352   6.317  0.2643 -0.6129  0.3158
 4445SOL    HW114116   1.035   5.373   6.409  0.1158  0.7161  0.0622
 4445SOL    HW214117   1.101   5.339   6.277  0.3571 -0.4885  0.4741
 4446SOL     OW14118   0.318   0.517   4.156  0.3507  0.1573 -0.0978
 4446SOL    HW114119   0.371   0.487   4.230 -1.1613 -0.9250  0.5984
 4446SOL    HW214120   0.272   0.595   4.189 -0.3183 -0.3215  0.1329
 4447SOL     OW14121   1.931   2.410   2.131 -0.1209  0.1653  0.7506
 4447SOL    HW114122   1.975   2.416   2.046  0.3359 -0.7367  0.9091
 4447SOL    HW214123   1.893   2.497   2.145  0.7778  0.6658  0.1504
 4448SOL     OW14124   2.682   4.372   1.392 -0.0243  0.0885 -0.7642
 4448SOL    HW114125   2.690   4.420   1.310  0.4333 -0.3771 -0.9945
 4448SOL    HW214126   2.741   4.297   1.382  0.2632  0.1898  0.1013
 4449SOL     OW14127   5.435   0.972   4.866 -0.2235  0.5649  0.5932
 4449SOL    HW114128   5.461   0.964   4.774  0.9975 -0.5873  1.0088
 4449SOL    HW214129   5.351   0.926   4.871 -1.5138  2.6747 -0.3832
 4450SOL     OW14130   1.661   3.926   0.815 -0.2546  0.2007  0.3638
 4450SOL    HW114131   1.640   3.882   0.897  0.4393 -2.5733 -0.8422
 4450SOL    HW214132   1.577   3.931   0.768 -1.3081  4.4660  2.2375
 4451SOL     OW14133   4.398   6.694   3.900  0.4033  0.1634  0.0375
 4451SOL    HW114134   4.308   6.693   3.933  0.3768  2.2197  0.1550
 4451SOL    HW214135   4.446   6.750   3.961  1.7318 -0.7598 -0.1271
 4452SOL     OW14136   0.178   6.200   2.069  0.2144 -0.0998 -0.0890
 4452SOL    HW114137   0.109   6.151   2.114 -0.2305  0.4516 -0.1540
 4452SOL    HW214138   0.257   6.184   2.121  0.1880 -1.2649 -0.3857
 4453SOL     OW14139   7.138   8.092   4.915  0.0764  0.8753  0.4254
 4453SOL    HW114140   7.151   8.124   4.826 -1.6273  0.2013 -0.0844
 4453SOL    HW214141   7.156   7.998   4.910 -0.7008  0.7128  0.6431
 4454SOL     OW14142   7.844   2.494   6.096  0.2333  0.2318  0.0056
 4454SOL    HW114143   7.763   2.531   6.062  0.1784 -0.4471 -0.6183
 4454SOL    HW214144   7.883   2.449   6.021  0.9507  0.1504  0.4223
 4455SOL     OW14145   3.581   4.881   3.188 -0.7334 -0.3421  0.3643
 4455SOL    HW114146   3.603   4.963   3.144  2.4837  0.0938  2.4419
 4455SOL    HW214147   3.622   4.813   3.134  1.4704  0.0182  1.4621
 4456SOL     OW14148   4.314   2.708   6.864  0.9833  0.0801  0.1321
 4456SOL    HW114149   4.326   2.802   6.854 -0.0301  0.4869  2.1589
 4456SOL    HW214150   4.381   2.682   6.928  0.1141 -0.2003  0.9552
 4457SOL     OW14151   0.187   2.931   3.805 -0.2605 -0.7791 -0.0747
 4457SOL    HW114152   0.213   2.966   3.720 -0.2380  0.8111  0.5584
 4457SOL    HW214153   0.106   2.883   3.787 -0.5509 -0.0054 -0.9225
 4458SOL     OW14154   2.730   1.605   7.250 -0.2227  0.0727  0.2311
 4458SOL    HW114155   2.757   1.669   7.183  2.0686  1.4470  2.2900
 4458SOL    HW214156   2.810   1.558   7.271 -0.9854 -0.5905  1.7408
 4459SOL     OW14157   1.955   6.348   5.311  0.7290 -0.1919 -0.2065
 4459SOL    HW114158   1.981   6.272   5.260  0.4561 -0.5143  0.1256
 4459SOL    HW214159   1.926   6.312   5.395  0.7743  0.2924  0.0229
 4460SOL     OW14160   0.869   7.552   4.027  0.0567  0.8474  0.0385
 4460SOL    HW114161   0.847   7.619   3.962  0.8330  0.2529 -0.8676
 4460SOL    HW214162   0.811   7.570   4.100 -0.3284  1.9988 -0.5213
 4461SOL     OW14163   4.595   6.224   7.609  0.3799 -0.7229  0.3778
 4461SOL    HW114164   4.644   6.287   7.556 -0.3429  0.2599  0.8328
 4461SOL    HW214165   4.595   6.262   7.697 -1.3646 -0.5640  0.3510
 4462SOL     OW14166   7.250   0.400   4.541 -0.0693  0.1179 -0.3643
 4462SOL    HW114167   7.215   0.462   4.604 -0.8091  0.5948 -1.2106
 4462SOL    HW214168   7.224   0.314   4.575  3.4277 -0.0486  2.3449
 4463SOL     OW14169   7.349   5.890   5.287 -0.3241 -0.8036  0.3049
 4463SOL    HW114170   7.308   5.887   5.200 -0.8210  0.3922  0.4875
 4463SOL    HW214171   7.415   5.820   5.284 -0.3023 -0.7557 -1.0458
 4464SOL     OW14172   3.046   5.550   0.133  0.2184  0.0085 -0.5597
 4464SOL    HW114173   2.999   5.513   0.058  0.6967 -1.7993 -0.0324
 4464SOL    HW214174   2.987   5.616   0.168 -0.7568 -0.3266 -1.5181
 4465SOL     OW14175   2.175   6.915   3.705  0.0169  0.3896 -0.1742
 4465SOL    HW114176   2.141   6.835   3.747 -0.1636  0.1965 -0.6857
 4465SOL    HW214177   2.167   6.898   3.611  0.1872  0.9244 -0.2865
 4466SOL     OW14178   7.351   3.542   0.068 -0.8115 -0.0731 -0.4010
 4466SOL    HW114179   7.410   3.608   0.105  1.2086 -2.0070 -0.0237
 4466SOL    HW214180   7.406   3.490   0.010 -2.8169 -0.2200 -2.3376
 4467SOL     OW14181   7.713   4.755   4.981 -0.2295  0.0068  0.5821
 4467SOL    HW114182   7.624   4.764   5.016 -1.0751 -0.0587 -1.4205
 4467SOL    HW214183   7.743   4.845   4.969 -1.4447  0.1525 -2.0022
 4468SOL     OW14184   7.562   3.308   2.110  0.4418 -0.4877 -0.2773
 4468SOL    HW114185   7.599   3.313   2.198 -0.6536 -2.0174  0.3169
 4468SOL    HW214186   7.469   3.328   2.122  0.1400 -1.4261 -0.9585
 4469SOL     OW14187   4.994   5.599   7.437  0.3874 -0.3447 -0.2543
 4469SOL    HW114188   4.995   5.549   7.356 -0.1483 -0.4081 -0.2272
 4469SOL    HW214189   5.083   5.633   7.446  0.5725 -0.7280 -0.6225
 4470SOL     OW14190   7.773   2.403   4.841  0.8586 -0.4003  0.4390
 4470SOL    HW114191   7.850   2.375   4.892  1.0449 -0.6150  0.0415
 4470SOL    HW214192   7.701   2.401   4.904  0.9618 -1.2925  0.5356
 4471SOL     OW14193   2.802   3.438   5.898  0.7467 -0.2216 -0.6196
 4471SOL    HW114194   2.784   3.346   5.917  0.8868 -0.1493 -0.1123
 4471SOL    HW214195   2.856   3.467   5.972  1.7282 -0.0591 -1.3759
 4472SOL     OW14196   5.803   0.599   6.475  0.2273  0.0458 -0.0312
 4472SOL    HW114197   5.875   0.644   6.433 -0.8483  1.2383 -0.6590
 4472SOL    HW214198   5.757   0.667   6.524 -0.4073 -0.7092  0.4484
 4473SOL     OW14199   5.602   5.320   3.804  0.7109  0.1471 -0.0719
 4473SOL    HW114200   5.541   5.380   3.845 -1.9027 -1.3541 -1.4862
 4473SOL    HW214201   5.665   5.377   3.760 -1.2629  1.8912 -0.8319
 4474SOL     OW14202   0.211   4.811   7.586 -0.2153  0.4248 -0.6123
 4474SOL    HW114203   0.239   4.878   7.648 -2.2517  0.3659  0.4611
 4474SOL    HW214204   0.241   4.843   7.500  1.6309  1.0863  0.2360
 4475SOL     OW14205   7.673   2.706   1.220  0.0084 -0.1741 -0.5390
 4475SOL    HW114206   7.762   2.672   1.208 -0.5666 -2.0048  0.0154
 4475SOL    HW214207   7.630   2.690   1.136 -0.1528 -0.4613 -0.4021
 4476SOL     OW14208   5.428   1.096   2.055  0.0624 -0.0203  0.0031
 4476SOL    HW114209   5.441   1.100   1.960 -1.2250  0.0775 -0.1930
 4476SOL    HW214210   5.455   1.182   2.087  1.4969 -0.4028 -0.1206
 4477SOL     OW14211   5.412   5.037   2.374  0.5262 -0.1725 -0.5743
 4477SOL    HW114212   5.324   5.074   2.364  0.5422  0.1407  0.3491
 4477SOL    HW214213   5.469   5.113   2.384  0.8425 -0.3896 -0.7290
 4478SOL     OW14214   7.036   1.145   0.116 -0.8516 -0.1083 -0.1202
 4478SOL    HW114215   7.101   1.096   0.066 -1.5981 -0.7373 -0.4933
 4478SOL    HW214216   7.070   1.144   0.206 -0.1001  0.0086 -0.3932
 4479SOL     OW14217   3.839   7.521   0.187 -0.1973 -0.3568 -0.5436
 4479SOL    HW114218   3.796   7.443   0.152 -0.1844  0.5181 -2.6458
 4479SOL    HW214219   3.777   7.592   0.170  0.8029  0.4593 -0.8921
 4480SOL     OW14220   7.785   4.112   1.400 -0.5074 -0.1314  0.2057
 4480SOL    HW114221   7.734   4.130   1.479 -0.8057  0.2746 -0.0763
 4480SOL    HW214222   7.766   4.186   1.342  1.0271  0.4408  0.3970
 4481SOL     OW14223   2.218   4.534   7.330  0.3144 -0.1552  0.8789
 4481SOL    HW114224   2.292   4.589   7.305  1.1117 -1.7342 -0.5157
 4481SOL    HW214225   2.245   4.446   7.304 -2.3874 -0.6819 -0.4715
 4482SOL     OW14226   0.049   7.009   3.167  0.5559 -0.2966 -0.3725
 4482SOL    HW114227  -0.046   7.007   3.181  0.4548  0.3403 -0.9399
 4482SOL    HW214228   0.069   6.926   3.123  0.0976  0.0480 -1.2451
 4483SOL     OW14229   4.372   1.695   0.969 -0.4357  0.3899  0.0651
 4483SOL    HW114230   4.301   1.631   0.954 -0.9460  1.1852 -1.0472
 4483SOL    HW214231   4.327   1.775   0.994  0.0690  0.9018 -0.6441
 4484SOL     OW14232   6.000   1.032   0.419 -0.5450 -0.1127  0.3478
 4484SOL    HW114233   5.922   1.018   0.473  0.0559  1.5874  1.7088
 4484SOL    HW214234   6.073   1.000   0.473 -0.1619 -0.7242 -0.5005
 4485SOL     OW14235   3.623   5.576   4.006 -0.6554 -0.3866  0.3362
 4485SOL    HW114236   3.602   5.645   4.068  0.6122  0.5939 -0.2692
 4485SOL    HW214237   3.538   5.538   3.982 -1.2496 -0.0270  1.7760
 4486SOL     OW14238   6.545   8.271   4.061 -0.2032 -0.7511 -0.0251
 4486SOL    HW114239   6.492   8.347   4.035 -0.6791 -0.4037  1.8408
 4486SOL    HW214240   6.625   8.310   4.097 -1.1673 -0.9894  2.5611
 4487SOL     OW14241   2.273   6.725   3.518 -0.1604 -0.3486 -0.1247
 4487SOL    HW114242   2.253   6.650   3.462  2.7141 -0.3239 -1.3095
 4487SOL    HW214243   2.318   6.688   3.594 -0.1214  0.0305  0.0422
 4488SOL     OW14244   3.630   3.827   7.785  0.1046  0.1010  0.3812
 4488SOL    HW114245   3.620   3.864   7.873  1.6492  1.1070  0.1724
 4488SOL    HW214246   3.563   3.871   7.733  1.8173  2.6779  0.1640
 4489SOL     OW14247   4.183   5.784   3.058  0.7660 -0.4367 -0.4722
 4489SOL    HW114248   4.278   5.787   3.065  0.7300  3.5727  0.7174
 4489SOL    HW214249   4.155   5.737   3.136  1.7812  1.2767  1.0088
 4490SOL     OW14250   1.418   7.545   2.956  0.0358 -0.3196 -0.0293
 4490SOL    HW114251   1.489   7.556   3.019 -0.1138  0.3831  0.0189
 4490SOL    HW214252   1.440   7.603   2.884  0.5631 -1.6163 -0.9635
 4491SOL     OW14253   0.352   5.482   5.948  0.4099  0.3615 -0.5328
 4491SOL    HW114254   0.414   5.409   5.945 -0.1123 -0.0783 -0.6732
 4491SOL    HW214255   0.408   5.560   5.953  0.9820 -0.0048 -1.0534
 4492SOL     OW14256   5.889   0.378   7.156 -0.3769 -0.2747 -0.0100
 4492SOL    HW114257   5.798   0.392   7.132 -0.0339  1.5465 -0.4414
 4492SOL    HW214258   5.897   0.415   7.244 -0.6088 -2.8418  1.1668
 4493SOL     OW14259   1.750   2.283   1.428 -0.6740  0.6915  0.0795
 4493SOL    HW114260   1.742   2.189   1.445  0.5056  0.5917  0.2004
 4493SOL    HW214261   1.765   2.322   1.514  1.0780  0.6942 -0.1850
 4494SOL     OW14262   1.652   0.825   6.819 -0.1168  0.0042  0.2327
 4494SOL    HW114263   1.637   0.817   6.913  1.4534 -0.4370  0.4822
 4494SOL    HW214264   1.598   0.756   6.780 -0.9393  0.3225  0.7790
 4495SOL     OW14265   4.182   1.432   3.820  0.3444 -0.0374  0.1526
 4495SOL    HW114266   4.141   1.509   3.781  1.6105  0.0799 -0.9866
 4495SOL    HW214267   4.229   1.466   3.896 -1.6120 -0.1777  1.5053
 4496SOL     OW14268   5.172   5.292   1.845 -0.1152 -0.1097 -0.8303
 4496SOL    HW114269   5.128   5.367   1.884  1.9267  0.2309  1.0194
 4496SOL    HW214270   5.229   5.329   1.778 -0.3783 -0.2314 -1.1283
 4497SOL     OW14271   0.049   1.840   4.956 -0.5149  0.1658 -0.5172
 4497SOL    HW114272   0.063   1.807   4.868  1.4043 -2.1799  0.5751
 4497SOL    HW214273   0.121   1.902   4.971  0.5702 -1.2094  0.1617
 4498SOL     OW14274   4.345   3.496   6.000 -0.1858  0.4301  0.4164
 4498SOL    HW114275   4.420   3.544   5.964 -2.1939  3.4915 -0.1426
 4498SOL    HW214276   4.339   3.526   6.091 -1.7289  1.7336 -0.0643
 4499SOL     OW14277   0.111   6.650   2.367 -0.0450  0.3336 -0.2944
 4499SOL    HW114278   0.185   6.639   2.308  0.2294 -0.7494  0.2363
 4499SOL    HW214279   0.092   6.562   2.399 -1.2729  0.6603 -0.0691
 4500SOL     OW14280   3.893   2.363   1.005 -0.3873  0.0020  0.5248
 4500SOL    HW114281   3.941   2.348   1.086 -0.7077  1.1046  0.9358
 4500SOL    HW214282   3.818   2.417   1.031  0.2893  1.6349 -0.7124
 4501SOL     OW14283   5.072   6.897   7.364 -0.3665  0.2026  0.7084
 4501SOL    HW114284   5.160   6.874   7.393 -0.1557 -1.5603 -1.0914
 4501SOL    HW214285   5.014   6.846   7.420 -0.0082 -2.2377 -0.9770
 4502SOL     OW14286   2.002   4.747   7.500 -0.0381 -0.1122  0.0017
 4502SOL    HW114287   2.070   4.686   7.528  0.0746 -0.6618 -1.3523
 4502SOL    HW214288   1.990   4.727   7.407 -1.0642  0.9284 -0.1087
 4503SOL     OW14289   1.674   8.138   8.167  0.2927  0.0076  0.5924
 4503SOL    HW114290   1.720   8.091   8.236  0.0648 -0.6806  0.2907
 4503SOL    HW214291   1.666   8.227   8.199  0.0762 -0.3317  1.5088
 4504SOL     OW14292   8.215   4.647   0.367 -0.1648 -0.0140 -0.0074
 4504SOL    HW114293   8.205   4.585   0.294 -0.5330  0.5839 -0.4747
 4504SOL    HW214294   8.292   4.700   0.343  0.1961 -0.3351  0.4273
 4505SOL     OW14295   3.655   6.613   7.682  0.1112  0.1568 -0.1215
 4505SOL    HW114296   3.562   6.616   7.660  0.4492  0.0381 -1.6749
 4505SOL    HW214297   3.661   6.552   7.756 -1.0311  0.1561 -0.0228
 4506SOL     OW14298   3.973   0.782   1.170  0.4558 -0.5274  0.3067
 4506SOL    HW114299   3.965   0.858   1.228  0.6138  0.7853 -1.3448
 4506SOL    HW214300   3.924   0.805   1.092  0.7090 -2.0485 -0.3369
 4507SOL     OW14301   7.709   3.453   5.630 -0.9353  0.3136 -0.1111
 4507SOL    HW114302   7.770   3.384   5.657 -1.4626  0.7341  2.4314
 4507SOL    HW214303   7.763   3.518   5.587  0.3979  0.4554  1.6774
 4508SOL     OW14304   5.500   0.593   6.141 -0.0329 -0.1098 -0.0026
 4508SOL    HW114305   5.567   0.662   6.133  0.5823 -0.7926 -0.9111
 4508SOL    HW214306   5.485   0.586   6.235  0.8841  0.3430  0.1956
 4509SOL     OW14307   2.030   3.139   8.240  0.0786 -0.0979  0.0083
 4509SOL    HW114308   1.966   3.110   8.305 -0.8291  0.0131 -0.8244
 4509SOL    HW214309   1.985   3.130   8.156 -0.8662  4.8843 -0.3256
 4510SOL     OW14310   0.431   3.888   3.202 -0.2594  0.2850 -0.5599
 4510SOL    HW114311   0.428   3.804   3.248 -0.3560  1.2799  1.3335
 4510SOL    HW214312   0.524   3.903   3.186 -0.3215 -0.7430 -2.0474
 4511SOL     OW14313   5.954   0.219   1.297 -0.3822  0.4718 -0.1101
 4511SOL    HW114314   5.953   0.211   1.393  1.4682  0.3268 -0.0748
 4511SOL    HW214315   6.019   0.286   1.279  0.7177 -0.8713 -1.3440
 4512SOL     OW14316   5.788   5.831   5.895  0.4322  0.1887 -0.4724
 4512SOL    HW114317   5.801   5.747   5.851  2.9324  0.9462 -1.3538
 4512SOL    HW214318   5.736   5.883   5.834 -1.1692 -0.6751  0.0989
 4513SOL     OW14319   0.341   2.497   3.361  0.1453  0.4213 -0.0869
 4513SOL    HW114320   0.332   2.496   3.266 -2.4803  0.2394  0.0895
 4513SOL    HW214321   0.365   2.408   3.384 -0.5120  0.1205 -0.5278
 4514SOL     OW14322   3.526   0.910   1.183  0.1834  0.0538  0.5708
 4514SOL    HW114323   3.569   0.986   1.143  0.2316 -0.9683 -1.4385
 4514SOL    HW214324   3.598   0.853   1.210  0.1462 -0.6422 -0.7422
 4515SOL     OW14325   5.803   1.328   6.278 -0.3336 -0.6288 -0.3564
 4515SOL    HW114326   5.770   1.347   6.366  1.1078 -1.3737  0.3850
 4515SOL    HW214327   5.818   1.233   6.279 -0.8776 -0.7471 -1.6310
 4516SOL     OW14328   4.972   1.854   3.271 -0.2256 -0.3292 -0.0626
 4516SOL    HW114329   4.877   1.869   3.274 -0.0530  0.6235  0.9484
 4516SOL    HW214330   5.006   1.897   3.349  1.3428  1.4576 -1.6416
 4517SOL     OW14331   6.707   2.491   5.233 -0.0441  0.6014 -0.1962
 4517SOL    HW114332   6.628   2.439   5.252  0.2226 -0.0572 -0.8181
 4517SOL    HW214333   6.732   2.528   5.317 -0.8006  0.5071  0.0840
 4518SOL     OW14334   6.263   0.996   4.329  0.5504  0.2187  0.3314
 4518SOL    HW114335   6.298   1.040   4.251  0.2260  1.7060  0.9813
 4518SOL    HW214336   6.246   1.068   4.391 -2.6197 -0.4843  0.4453
 4519SOL     OW14337   0.020   8.269   2.269  0.1952  0.1891 -0.6530
 4519SOL    HW114338  -0.050   8.254   2.333  0.3753 -1.9504 -0.8778
 4519SOL    HW214339  -0.025   8.301   2.191 -0.6871 -1.7985 -1.0228
 4520SOL     OW14340   4.120   3.162   3.528 -0.1540 -0.0627  0.2717
 4520SOL    HW114341   4.133   3.067   3.534 -0.8321 -0.1659  0.1888
 4520SOL    HW214342   4.055   3.173   3.459  0.3186  0.5005 -0.0880
 4521SOL     OW14343   6.736   2.826   8.188 -0.0159 -0.0290 -0.1607
 4521SOL    HW114344   6.677   2.764   8.230  0.0704 -0.0897 -0.1266
 4521SOL    HW214345   6.748   2.896   8.252  1.2830 -0.8350  0.5425
 4522SOL     OW14346   3.319   6.073   5.534 -0.6907  0.3567 -0.3292
 4522SOL    HW114347   3.414   6.065   5.521 -0.5609  0.5759  0.4505
 4522SOL    HW214348   3.290   6.128   5.461 -0.2367  0.2133 -0.6264
 4523SOL     OW14349   1.854   5.638   7.259  0.1594  0.2231  0.0864
 4523SOL    HW114350   1.781   5.683   7.302 -1.6592 -1.9755 -0.4587
 4523SOL    HW214351   1.844   5.659   7.166  0.1129 -0.1834 -0.0056
 4524SOL     OW14352   4.603   6.578   2.665  0.1765  0.7230  0.3448
 4524SOL    HW114353   4.591   6.565   2.759  0.2145 -0.1090  0.2393
 4524SOL    HW214354   4.638   6.495   2.633  0.7337  1.1935 -0.3082
 4525SOL     OW14355   2.498   7.190   1.356 -0.1406  0.0449 -0.2293
 4525SOL    HW114356   2.488   7.117   1.293 -0.0633 -0.6986  0.6007
 4525SOL    HW214357   2.547   7.256   1.308  0.6664 -0.8606 -0.6943
 4526SOL     OW14358   7.408   1.707   1.241  0.1840  0.4630  0.0813
 4526SOL    HW114359   7.382   1.730   1.152 -0.0657  0.0593  0.0447
 4526SOL    HW214360   7.363   1.770   1.297 -1.2362 -0.4904  0.0455
 4527SOL     OW14361   0.740   7.756   2.428  0.3527 -0.0798 -0.1109
 4527SOL    HW114362   0.671   7.752   2.495  1.1712 -0.2276  0.7573
 4527SOL    HW214363   0.718   7.686   2.367  0.2660 -0.7935  0.7135
 4528SOL     OW14364   4.796   6.001   4.356 -0.8759 -0.0270 -0.9458
 4528SOL    HW114365   4.783   6.096   4.348 -1.1833  0.1020  0.7392
 4528SOL    HW214366   4.734   5.974   4.424  0.2679 -1.1877 -0.3267
 4529SOL     OW14367   2.397   0.079   5.504  0.6077 -0.1830  0.1701
 4529SOL    HW114368   2.307   0.072   5.471  0.6099 -0.4432  0.2161
 4529SOL    HW214369   2.431   0.159   5.464  0.3559 -0.0832  0.1494
 4530SOL     OW14370   6.614   2.044   3.706  0.7011  0.1559  0.1250
 4530SOL    HW114371   6.525   2.011   3.692  0.9953 -1.2896  1.4208
 4530SOL    HW214372   6.606   2.138   3.693 -1.0180  0.0547  0.1624
 4531SOL     OW14373   4.729   6.434   7.528  0.0834 -0.0278  0.2911
 4531SOL    HW114374   4.823   6.415   7.531 -0.2251 -1.8629 -0.1053
 4531SOL    HW214375   4.718   6.491   7.453  0.7192 -1.1064 -0.6604
 4532SOL     OW14376   7.428   8.016   3.558  0.1371  0.4009  0.2582
 4532SOL    HW114377   7.508   8.069   3.562  0.3208  0.1233  0.3500
 4532SOL    HW214378   7.370   8.063   3.499  0.8130  0.0231 -0.7380
 4533SOL     OW14379   0.232   8.299   2.079 -0.2026  0.4123 -0.7669
 4533SOL    HW114380   0.182   8.259   2.008  0.5599  1.8899 -2.1928
 4533SOL    HW214381   0.172   8.299   2.153 -0.7110 -2.0194 -1.0836
 4534SOL     OW14382   0.684   2.072   7.728  0.1940 -0.0243 -0.4152
 4534SOL    HW114383   0.704   1.994   7.676 -1.3801 -0.6800 -0.0774
 4534SOL    HW214384   0.608   2.047   7.781  2.1223  0.3146  2.8120
 4535SOL     OW14385   2.806   0.225   3.682  0.5032  0.3853 -0.1938
 4535SOL    HW114386   2.861   0.303   3.695  1.3913  0.1887 -2.2828
 4535SOL    HW214387   2.833   0.191   3.596 -1.8884 -0.5721 -0.6501
 4536SOL     OW14388   7.399   1.695   0.930 -0.1204  0.3783 -0.0388
 4536SOL    HW114389   7.491   1.687   0.906  0.2410  1.7280  0.7658
 4536SOL    HW214390   7.380   1.789   0.920 -1.0755  0.3100  0.9182
 4537SOL     OW14391   7.154   3.951   3.065  0.5697 -0.1545  0.1969
 4537SOL    HW114392   7.165   4.031   3.117  0.0488  0.1004 -0.0840
 4537SOL    HW214393   7.105   3.978   2.988 -0.9247 -1.0120  0.8011
 4538SOL     OW14394   0.773   4.517   7.092  0.0866 -0.7095 -0.2418
 4538SOL    HW114395   0.749   4.425   7.081 -2.5604 -0.0590 -0.6873
 4538SOL    HW214396   0.851   4.528   7.038  0.0205 -2.5299 -0.7661
 4539SOL     OW14397   1.298   5.069   3.212  0.2875 -0.2288  0.2283
 4539SOL    HW114398   1.333   5.136   3.153  0.2156  0.7347  1.2258
 4539SOL    HW214399   1.375   5.030   3.254  0.2954  1.6790  2.1976
 4540SOL     OW14400   5.752   7.323   2.097 -0.1038 -0.1184 -0.3784
 4540SOL    HW114401   5.820   7.370   2.048  1.5233 -2.4756 -0.5819
 4540SOL    HW214402   5.773   7.339   2.189 -0.3876  0.6356 -0.4444
 4541SOL     OW14403   1.839   3.187   1.571  0.1976 -0.3087 -0.1256
 4541SOL    HW114404   1.796   3.250   1.628  3.6462  1.1557  1.1114
 4541SOL    HW214405   1.811   3.213   1.483  0.7031  2.3698  0.4133
 4542SOL     OW14406   4.306   4.364   3.192 -0.0294 -0.1495  0.3254
 4542SOL    HW114407   4.325   4.274   3.220  1.6934 -0.0631 -0.4611
 4542SOL    HW214408   4.307   4.359   3.096  1.6167  0.9785  0.2495
 4543SOL     OW14409   0.858   2.905   0.566  0.0945  0.0919  0.4964
 4543SOL    HW114410   0.774   2.876   0.529 -0.4073 -1.4724  2.6929
 4543SOL    HW214411   0.924   2.866   0.509 -0.6330  0.7142 -0.8195
 4544SOL     OW14412   4.312   2.163   6.565 -0.0200 -0.0429 -0.6538
 4544SOL    HW114413   4.364   2.115   6.500  0.7067 -0.0662 -0.0591
 4544SOL    HW214414   4.296   2.249   6.524 -0.2485 -0.3325 -1.1875
 4545SOL     OW14415   0.805   5.203   5.394  0.0517 -0.3407  0.0109
 4545SOL    HW114416   0.855   5.155   5.328 -2.1860 -2.4540 -0.2741
 4545SOL    HW214417   0.731   5.240   5.346 -0.1932  0.3720  0.9067
 4546SOL     OW14418   1.819   2.536   4.598  0.5959 -0.2801 -0.0443
 4546SOL    HW114419   1.908   2.532   4.563  0.3858  0.8347 -0.7612
 4546SOL    HW214420   1.796   2.629   4.594 -0.8754 -0.6396 -0.5735
 4547SOL     OW14421   4.599   3.576   4.926 -0.2081 -0.1215 -0.0766
 4547SOL    HW114422   4.636   3.490   4.947 -1.5119 -0.4574  0.9716
 4547SOL    HW214423   4.652   3.607   4.852  2.0359 -0.6213  1.2216
 4548SOL     OW14424   1.011   7.567   3.649 -0.2222 -0.1131  0.0234
 4548SOL    HW114425   1.069   7.605   3.715  1.3275 -1.5705 -0.4347
 4548SOL    HW214426   1.010   7.632   3.578 -0.2422  0.5254  0.5926
 4549SOL     OW14427   0.604   1.395   5.331 -0.0281  0.6353  0.1706
 4549SOL    HW114428   0.602   1.319   5.390  2.4316  0.3184 -0.0550
 4549SOL    HW214429   0.658   1.367   5.257 -0.4996  2.0614 -0.7623
 4550SOL     OW14430   0.480   1.811   1.756  0.1357  0.5537 -0.1769
 4550SOL    HW114431   0.466   1.842   1.846 -1.1150 -0.6792  0.0835
 4550SOL    HW214432   0.576   1.805   1.748  0.2530 -1.0424  1.7090
 4551SOL     OW14433   1.857   2.191   8.125 -0.5152 -0.3316 -0.0838
 4551SOL    HW114434   1.863   2.220   8.034  1.5377 -0.6258 -0.1035
 4551SOL    HW214435   1.924   2.243   8.170 -0.5596 -1.1579  0.9630
 4552SOL     OW14436   4.924   6.130   7.667 -0.1897  0.0975  0.1575
 4552SOL    HW114437   4.867   6.185   7.614 -2.0878 -3.2744 -1.6679
 4552SOL    HW214438   4.920   6.044   7.625  0.6777 -2.0721  4.0290
 4553SOL     OW14439   5.022   3.905   5.793  0.3069  0.1199  0.1612
 4553SOL    HW114440   4.928   3.925   5.796  0.0970 -0.6609 -0.8086
 4553SOL    HW214441   5.026   3.810   5.779  1.2593  0.0020  1.0933
 4554SOL     OW14442   2.513   1.836   8.158 -0.0824 -0.1817 -0.7769
 4554SOL    HW114443   2.562   1.830   8.240  1.7203  1.7565 -1.6270
 4554SOL    HW214444   2.455   1.759   8.160  0.1115 -0.3802  2.1170
 4555SOL     OW14445   8.092   1.495   7.305  0.5446 -0.0337  0.9665
 4555SOL    HW114446   8.165   1.555   7.289  0.2723  0.5062  1.6893
 4555SOL    HW214447   8.045   1.534   7.379 -0.7744 -0.1061  0.1955
 4556SOL     OW14448   6.164   3.152   4.726  0.3844  0.5834 -0.5732
 4556SOL    HW114449   6.177   3.093   4.652  0.0219 -0.5434  0.2424
 4556SOL    HW214450   6.071   3.147   4.745  0.4069  1.1823 -0.2921
 4557SOL     OW14451   2.469   1.295   3.250 -0.0132  0.4365  0.2058
 4557SOL    HW114452   2.506   1.335   3.172  0.2012  1.7274  0.9338
 4557SOL    HW214453   2.513   1.210   3.257  0.9141  0.8567 -0.3574
 4558SOL     OW14454   3.849   6.289   8.242  0.0761 -0.4262 -0.3992
 4558SOL    HW114455   3.848   6.333   8.327  0.1753  1.8187 -1.5007
 4558SOL    HW214456   3.792   6.343   8.186 -0.0537 -1.8861 -1.7614
 4559SOL     OW14457   1.535   4.880   2.279  0.0080 -0.1312 -0.4462
 4559SOL    HW114458   1.523   4.970   2.310  2.5318  0.4361 -0.9359
 4559SOL    HW214459   1.457   4.863   2.227 -0.5332  1.7826 -0.3478
 4560SOL     OW14460   4.922   0.420   6.559 -0.1086  0.1777  0.1155
 4560SOL    HW114461   4.965   0.334   6.553  0.6666  0.6048 -0.7014
 4560SOL    HW214462   4.833   0.400   6.587  0.6273 -0.7316  2.0277
 4561SOL     OW14463   7.725   3.695   6.955  0.3765 -0.1539  0.0412
 4561SOL    HW114464   7.767   3.619   6.996 -0.4577  0.2800  1.7854
 4561SOL    HW214465   7.717   3.759   7.025  1.3465  1.7184 -1.4429
 4562SOL     OW14466   2.872   1.712   6.515 -0.5415 -0.8463 -0.5072
 4562SOL    HW114467   2.842   1.668   6.594 -1.4266 -0.2839 -0.5052
 4562SOL    HW214468   2.931   1.781   6.547  2.0029 -2.8477 -0.6018
 4563SOL     OW14469   6.804   1.113   5.504 -0.1376 -0.3236  0.3936
 4563SOL    HW114470   6.730   1.158   5.463  0.5589 -0.1658 -0.7276
 4563SOL    HW214471   6.793   1.021   5.480  0.3156 -0.2190 -0.2570
 4564SOL     OW14472   7.982   4.667   0.896  0.1107 -0.3051  0.0961
 4564SOL    HW114473   8.031   4.688   0.816  1.3023 -1.2826  0.5381
 4564SOL    HW214474   8.024   4.588   0.930 -0.2484  0.1856  1.7887
 4565SOL     OW14475   3.289   1.376   6.224 -0.4641 -0.1376 -0.1706
 4565SOL    HW114476   3.199   1.407   6.216  0.0853  2.0834  1.3649
 4565SOL    HW214477   3.324   1.381   6.135 -1.0326  1.8510 -0.3376
 4566SOL     OW14478   6.733   0.173   2.590 -0.2289  0.2868 -0.0613
 4566SOL    HW114479   6.685   0.255   2.585 -0.7980 -0.1044 -1.3491
 4566SOL    HW214480   6.822   0.195   2.562 -0.0340  0.7168  0.8793
 4567SOL     OW14481   0.265   0.108   5.489  0.2482 -0.0411  0.3544
 4567SOL    HW114482   0.186   0.088   5.538  0.8864 -0.0135  1.4279
 4567SOL    HW214483   0.294   0.022   5.456  0.3838 -0.2177  0.9211
 4568SOL     OW14484   7.970   4.543   2.871 -0.2812 -0.3180  0.0906
 4568SOL    HW114485   7.994   4.491   2.947 -1.4071 -0.9530  0.0327
 4568SOL    HW214486   7.887   4.584   2.895 -1.6839 -2.0526 -1.4337
 4569SOL     OW14487   4.785   4.914   3.862 -0.5700 -0.0149 -0.2603
 4569SOL    HW114488   4.700   4.957   3.870 -0.7561 -0.3590 -0.3671
 4569SOL    HW214489   4.770   4.826   3.896 -0.0538  0.1748  0.4963
 4570SOL     OW14490   3.958   6.207   6.124  0.0226 -0.2223 -1.0091
 4570SOL    HW114491   3.866   6.188   6.142  0.7116 -1.0359  2.1933
 4570SOL    HW214492   3.997   6.121   6.107  0.1897  0.1403 -2.5768
 4571SOL     OW14493   1.885   4.081   5.427 -0.6413 -0.3204 -0.3766
 4571SOL    HW114494   1.897   3.986   5.415  0.2610 -0.3146  0.2860
 4571SOL    HW214495   1.895   4.093   5.522  2.5280  0.8082 -0.7227
 4572SOL     OW14496   6.167   3.471   0.969  0.1473 -0.1274  0.4156
 4572SOL    HW114497   6.139   3.560   0.989  0.8826 -0.0412  1.1119
 4572SOL    HW214498   6.093   3.416   0.994 -0.7062  0.3518 -0.9615
 4573SOL     OW14499   2.728   4.895   4.319 -0.1372 -0.4730  0.1138
 4573SOL    HW114500   2.677   4.936   4.389  0.8033 -0.7557  0.9985
 4573SOL    HW214501   2.664   4.843   4.270 -0.5656 -1.6649  1.8338
 4574SOL     OW14502   6.211   6.950   5.861  0.1597  0.3661 -0.0387
 4574SOL    HW114503   6.260   6.893   5.803  0.7008  1.1339 -0.3567
 4574SOL    HW214504   6.193   7.028   5.809 -0.8549  0.3574  0.2793
 4575SOL     OW14505   2.743   5.180   8.208  0.6840 -0.3826  1.1463
 4575SOL    HW114506   2.789   5.157   8.289 -1.4682  1.2092  2.9458
 4575SOL    HW214507   2.658   5.135   8.216  1.5029 -2.8321 -1.8315
 4576SOL     OW14508   7.874   0.319   2.883  0.2069  0.4679 -0.3493
 4576SOL    HW114509   7.885   0.358   2.796  0.4283 -0.2864 -0.6702
 4576SOL    HW214510   7.780   0.301   2.889  0.3293 -0.4552 -0.8842
 4577SOL     OW14511   6.138   5.251   7.701  0.4368 -0.4823  0.0994
 4577SOL    HW114512   6.055   5.293   7.676  0.8594  0.3623  0.0779
 4577SOL    HW214513   6.116   5.158   7.708 -0.1372 -0.5024 -1.5118
 4578SOL     OW14514   1.874   0.954   7.053 -0.1529 -0.0360 -0.6572
 4578SOL    HW114515   1.803   0.892   7.067  0.4088 -0.4489  0.4951
 4578SOL    HW214516   1.836   1.040   7.074 -0.0805 -0.3553  0.8919
 4579SOL     OW14517   2.440   6.369   3.894  0.5738 -0.3382 -0.6378
 4579SOL    HW114518   2.375   6.324   3.841  0.9467 -0.6759 -0.8104
 4579SOL    HW214519   2.460   6.307   3.964 -1.3403  0.8159  1.0671
 4580SOL     OW14520   5.940   6.435   3.518  0.5693 -0.0476 -0.1647
 4580SOL    HW114521   5.940   6.353   3.567 -0.6090 -0.3266 -0.6095
 4580SOL    HW214522   5.996   6.493   3.569 -0.9166 -0.1946  1.7521
 4581SOL     OW14523   0.944   4.468   6.887  0.2247  0.7339  0.4211
 4581SOL    HW114524   0.871   4.489   6.828  0.3554 -0.7178 -0.3006
 4581SOL    HW214525   1.021   4.468   6.830  0.6290  1.0735  0.9566
 4582SOL     OW14526   4.020   0.298   2.629  0.4922  0.1001  0.1770
 4582SOL    HW114527   3.934   0.338   2.646  0.1172 -1.0233  1.0593
 4582SOL    HW214528   4.077   0.372   2.607  0.1256  1.3503  2.9675
 4583SOL     OW14529   3.249   7.559   5.772  0.3656 -0.0032 -0.1035
 4583SOL    HW114530   3.176   7.514   5.815  0.6550 -0.2459  0.1447
 4583SOL    HW214531   3.274   7.502   5.700 -0.4939  0.6829 -0.9680
 4584SOL     OW14532   5.255   2.644   3.361 -0.2197 -0.4837 -0.9396
 4584SOL    HW114533   5.226   2.560   3.324  0.5768 -0.1627 -2.3601
 4584SOL    HW214534   5.225   2.709   3.298  0.3500  0.1835 -0.5317
 4585SOL     OW14535   0.889   4.985   7.875 -0.1498 -0.1407 -0.2878
 4585SOL    HW114536   0.814   4.997   7.932  1.1180 -1.3986  1.7853
 4585SOL    HW214537   0.894   4.890   7.862  1.3861 -0.1463  0.1302
 4586SOL     OW14538   3.250   7.360   1.619  0.2989  0.0473 -0.6784
 4586SOL    HW114539   3.341   7.372   1.591  0.6413  0.6169  0.6463
 4586SOL    HW214540   3.213   7.448   1.620  0.3785  0.0781  0.9094
 4587SOL     OW14541   4.987   5.347   3.957  0.3250 -0.9381  0.4191
 4587SOL    HW114542   5.021   5.396   4.032  0.8984 -0.3003 -0.2419
 4587SOL    HW214543   4.936   5.411   3.908 -1.1255 -1.6635  0.9144
 4588SOL     OW14544   3.519   1.935   0.272  0.0191  0.5350  0.3096
 4588SOL    HW114545   3.500   1.933   0.178  0.6886 -1.0094  0.1644
 4588SOL    HW214546   3.434   1.925   0.314 -0.3530  1.8170 -0.0979
 4589SOL     OW14547   6.491   5.729   3.395 -0.0186 -0.5783  0.0286
 4589SOL    HW114548   6.467   5.642   3.365 -0.1556 -0.1348 -1.2333
 4589SOL    HW214549   6.523   5.773   3.316  0.6847  0.2933  0.7808
 4590SOL     OW14550   2.296   3.832   2.716 -0.1983  0.6718 -0.0376
 4590SOL    HW114551   2.386   3.854   2.693  0.2769 -2.2943 -1.3477
 4590SOL    HW214552   2.296   3.828   2.812  1.3537 -0.3216 -0.0538
 4591SOL     OW14553   2.577   6.153   2.071 -0.4569 -0.2404 -0.0622
 4591SOL    HW114554   2.492   6.176   2.110 -1.1456  1.1422 -2.2173
 4591SOL    HW214555   2.580   6.058   2.076 -1.0189 -0.2103  2.1919
 4592SOL     OW14556   1.181   2.797   4.222 -0.2445 -0.1993  0.3218
 4592SOL    HW114557   1.204   2.783   4.314 -1.3671  1.6647  0.9498
 4592SOL    HW214558   1.136   2.717   4.196  1.4308 -1.3804  0.8914
 4593SOL     OW14559   5.376   1.082   6.282  0.3102  0.1166  0.8516
 4593SOL    HW114560   5.458   1.060   6.238 -0.2272 -0.2244  0.0017
 4593SOL    HW214561   5.388   1.052   6.372  1.7803  1.6765  1.2344
 4594SOL     OW14562   3.226   6.682   2.733  0.7299 -0.1754  0.1979
 4594SOL    HW114563   3.203   6.774   2.721 -0.5906 -0.5873 -0.6580
 4594SOL    HW214564   3.184   6.658   2.816  0.1355 -0.2819 -0.1286
 4595SOL     OW14565   4.837   6.908   3.960 -0.1265  0.4425 -0.0426
 4595SOL    HW114566   4.862   6.992   3.923 -0.8588  0.9030  0.4723
 4595SOL    HW214567   4.767   6.876   3.902  0.1185  0.2049 -0.2113
 4596SOL     OW14568   1.473   1.825   7.932 -0.2919 -0.1995 -0.8221
 4596SOL    HW114569   1.562   1.804   7.903 -1.1360 -2.8823 -1.7503
 4596SOL    HW214570   1.472   1.798   8.024 -0.0949 -0.0061 -0.7621
 4597SOL     OW14571   7.606   3.862   1.595 -0.0949 -0.4406  0.4309
 4597SOL    HW114572   7.606   3.767   1.595  2.0713 -0.5405 -1.3615
 4597SOL    HW214573   7.564   3.887   1.512 -0.3513  0.1607  0.7310
 4598SOL     OW14574   0.597   7.964   4.556  0.9175 -0.0890  0.5039
 4598SOL    HW114575   0.556   7.889   4.600 -0.3257  0.8333  0.9736
 4598SOL    HW214576   0.539   7.982   4.481  1.3411  0.2568  0.2552
 4599SOL     OW14577   1.671   3.539   3.024  0.0968  0.5436  0.1153
 4599SOL    HW114578   1.688   3.495   3.107  1.5988  1.2805  0.2415
 4599SOL    HW214579   1.610   3.609   3.045  1.1377  1.2732  0.7892
 4600SOL     OW14580   7.539   5.349   2.616 -0.2269 -0.1901 -0.0414
 4600SOL    HW114581   7.540   5.258   2.585  2.9406 -0.3467  0.2490
 4600SOL    HW214582   7.544   5.401   2.537 -3.4152 -0.0826 -0.3162
 4601SOL     OW14583   6.815   8.010   5.572  0.4102 -0.3125  0.4172
 4601SOL    HW114584   6.874   8.047   5.638  1.2263 -1.4341  0.3367
 4601SOL    HW214585   6.867   8.008   5.492 -0.0264 -0.5061  0.1370
 4602SOL     OW14586   4.082   1.494   0.399 -0.1962 -0.0390  0.0314
 4602SOL    HW114587   4.043   1.557   0.339  1.4101  0.1469 -0.8761
 4602SOL    HW214588   4.133   1.547   0.460  0.0832 -0.3687  0.0923
 4603SOL     OW14589   4.832   4.496   7.630 -0.1579 -0.1163 -0.4367
 4603SOL    HW114590   4.846   4.572   7.687  0.4005  1.2689 -2.3450
 4603SOL    HW214591   4.737   4.483   7.629 -0.1864 -0.1038  0.6906
 4604SOL     OW14592   1.162   4.252   1.879 -0.1725  0.4348  0.4138
 4604SOL    HW114593   1.083   4.259   1.826 -0.2811  1.8410  0.7333
 4604SOL    HW214594   1.228   4.217   1.819 -1.3707 -2.2800  0.5422
 4605SOL     OW14595   1.118   1.078   7.972 -0.5506 -0.1913  0.2120
 4605SOL    HW114596   1.081   1.153   8.019 -0.3158  0.4034 -0.5338
 4605SOL    HW214597   1.050   1.054   7.908  0.0975  0.5615 -0.7928
 4606SOL     OW14598   6.358   6.415   1.068  0.2689 -0.2181 -0.3961
 4606SOL    HW114599   6.419   6.361   1.017  1.6198  1.1872 -0.3641
 4606SOL    HW214600   6.332   6.484   1.007  1.2726  1.0253  0.5345
 4607SOL     OW14601   4.548   1.924   2.497  0.1593  0.2743 -0.4756
 4607SOL    HW114602   4.575   2.015   2.485 -0.6308  0.8063  1.3264
 4607SOL    HW214603   4.516   1.896   2.411  1.6467  1.2370 -1.3840
 4608SOL     OW14604   6.419   1.814   1.411  0.2724 -0.1347 -0.2455
 4608SOL    HW114605   6.455   1.768   1.487  1.8733  0.8550 -0.3560
 4608SOL    HW214606   6.371   1.888   1.448 -0.9364 -0.9471 -0.1348
 4609SOL     OW14607   3.076   7.639   4.804 -0.1270  0.4258  0.1733
 4609SOL    HW114608   3.037   7.582   4.870 -2.0953 -1.3593 -2.2864
 4609SOL    HW214609   3.002   7.668   4.751  1.4786 -0.2215 -2.6395
 4610SOL     OW14610   6.518   2.244   6.347  0.0995  0.1354 -0.2778
 4610SOL    HW114611   6.451   2.176   6.335 -0.8727  0.6576  1.7096
 4610SOL    HW214612   6.482   2.301   6.416  2.8662  0.0698  1.3838
 4611SOL     OW14613   3.082   7.403   4.065  0.0360  0.1428  0.2338
 4611SOL    HW114614   3.056   7.430   4.153  0.0613  0.8717  0.0254
 4611SOL    HW214615   3.122   7.481   4.027 -0.0583 -0.1363 -0.4570
 4612SOL     OW14616   6.057   7.482   3.361  0.0845  0.1883  0.4713
 4612SOL    HW114617   6.134   7.439   3.326 -0.0973 -1.3981  1.9133
 4612SOL    HW214618   6.091   7.548   3.421  0.3362  0.9579 -0.5009
 4613SOL     OW14619   0.609   1.402   4.922 -0.1745  0.2635 -0.1655
 4613SOL    HW114620   0.539   1.377   4.862  0.7060  0.5841 -1.3812
 4613SOL    HW214621   0.579   1.485   4.960  0.2512  1.3428 -2.0089
 4614SOL     OW14622   7.619   3.689   6.537  0.0480 -0.1210 -0.5036
 4614SOL    HW114623   7.620   3.769   6.591 -0.1459 -1.0252  0.8861
 4614SOL    HW214624   7.556   3.708   6.468 -0.0257  0.9261 -0.1683
 4615SOL     OW14625   5.226   2.894   1.819 -0.1451 -0.0113 -0.3215
 4615SOL    HW114626   5.166   2.968   1.805  0.0341  0.2426  0.2407
 4615SOL    HW214627   5.296   2.930   1.874  0.6006 -0.2735 -1.0901
 4616SOL     OW14628   4.540   3.932   2.475 -0.0987  0.0030 -0.0069
 4616SOL    HW114629   4.598   3.905   2.547 -0.0988  1.7890  0.6950
 4616SOL    HW214630   4.523   4.024   2.491 -2.6666 -0.3103 -0.5485
 4617SOL     OW14631   6.323   6.563   7.835  0.2955 -0.5548 -0.5161
 4617SOL    HW114632   6.236   6.588   7.866 -0.2104  0.9828 -2.9048
 4617SOL    HW214633   6.312   6.474   7.802 -0.1457 -0.7072  0.0311
 4618SOL     OW14634   0.934   2.446   3.112 -0.3892  0.1408 -0.2606
 4618SOL    HW114635   1.001   2.390   3.153 -0.3363 -0.1107 -0.6730
 4618SOL    HW214636   0.889   2.387   3.050 -0.2000  0.5998 -0.8472
 4619SOL     OW14637   3.632   3.555   4.254  0.1097 -0.3206  0.9745
 4619SOL    HW114638   3.724   3.580   4.249  0.4319 -1.5323  0.5923
 4619SOL    HW214639   3.606   3.578   4.343  0.2404  1.7452  0.5466
 4620SOL     OW14640   4.828   4.704   4.924 -0.0057 -0.1850  0.0274
 4620SOL    HW114641   4.801   4.622   4.966 -0.9624 -0.4103 -0.9843
 4620SOL    HW214642   4.752   4.762   4.935  0.8311  0.7502  1.1468
 4621SOL     OW14643   1.881   1.010   7.648  0.4865 -0.1422  0.3337
 4621SOL    HW114644   1.847   1.099   7.640  0.0430 -0.3107  0.3236
 4621SOL    HW214645   1.955   1.007   7.588  0.1364  0.0436 -0.1137
 4622SOL     OW14646   3.954   1.597   3.968  0.2762  0.0837  0.2281
 4622SOL    HW114647   3.868   1.635   3.986 -0.3371 -0.6871 -0.9763
 4622SOL    HW214648   3.986   1.644   3.891  0.5804 -0.1846  0.1860
 4623SOL     OW14649   6.217   6.718   1.474 -0.3540 -0.4430 -0.4887
 4623SOL    HW114650   6.262   6.639   1.503  1.2955  1.1028  1.5654
 4623SOL    HW214651   6.150   6.734   1.540 -0.8362 -0.2400 -1.0147
 4624SOL     OW14652   2.870   1.894   8.265 -0.1578 -0.1631 -0.1652
 4624SOL    HW114653   2.892   1.832   8.195 -0.2228 -0.3844  0.0079
 4624SOL    HW214654   2.802   1.850   8.315  0.0399 -0.0929  0.1623
 4625SOL     OW14655   3.487   5.256   6.264 -0.3304 -0.1172 -0.1833
 4625SOL    HW114656   3.481   5.179   6.208 -0.7284 -1.2690  1.3535
 4625SOL    HW214657   3.398   5.292   6.265 -0.7639 -1.1266  1.0221
 4626SOL     OW14658   2.959   1.859   6.229  0.5311  0.4526 -0.1907
 4626SOL    HW114659   2.885   1.906   6.267  1.1476  2.3004 -1.1468
 4626SOL    HW214660   3.036   1.905   6.262  1.1514  0.3475 -1.4272
 4627SOL     OW14661   1.027   2.352   2.820 -0.2338 -0.3904 -0.0745
 4627SOL    HW114662   0.946   2.348   2.871 -0.0444 -0.2153  0.2505
 4627SOL    HW214663   1.094   2.321   2.881 -0.2379 -1.8037 -0.7531
 4628SOL     OW14664   8.083   0.171   2.986  0.3838 -0.2326  0.0743
 4628SOL    HW114665   8.072   0.076   2.993  1.1966 -0.3592 -0.2996
 4628SOL    HW214666   8.004   0.201   2.941  0.6235 -0.8640 -0.7804
 4629SOL     OW14667   3.751   1.132   0.329  0.2934  0.3402 -0.0308
 4629SOL    HW114668   3.734   1.114   0.421 -0.9678  1.4296 -0.0229
 4629SOL    HW214669   3.758   1.227   0.323 -0.9851  0.3951 -1.2538
 4630SOL     OW14670   0.096   4.837   7.991 -0.4861 -0.3135  0.3782
 4630SOL    HW114671   0.001   4.841   8.001 -0.5242 -0.0781 -0.0471
 4630SOL    HW214672   0.115   4.744   7.978 -0.4252 -0.6422  2.5345
 4631SOL     OW14673   7.619   1.291   2.571 -0.2992  0.1003 -0.2938
 4631SOL    HW114674   7.583   1.380   2.569  1.6434  1.0852  2.5595
 4631SOL    HW214675   7.543   1.234   2.584 -1.4578  1.4378 -0.9752
 4632SOL     OW14676   5.699   0.370   4.099 -0.5492  0.3716  0.2038
 4632SOL    HW114677   5.740   0.408   4.176 -1.9308 -0.6351  1.4924
 4632SOL    HW214678   5.727   0.278   4.100 -3.0978 -0.4799  1.4211
 4633SOL     OW14679   6.382   1.525   3.777  0.2592 -0.4591  0.0892
 4633SOL    HW114680   6.441   1.561   3.711  0.3885 -0.3306  0.2745
 4633SOL    HW214681   6.342   1.449   3.735  1.7496 -1.5153  0.5189
 4634SOL     OW14682   5.067   3.286   3.813  0.2458  0.0268  0.2929
 4634SOL    HW114683   5.150   3.316   3.775  0.1926 -0.8463 -0.5320
 4634SOL    HW214684   5.070   3.318   3.903  0.9905  0.9457 -0.0361
 4635SOL     OW14685   8.109   1.554   1.797  0.1881  0.2717  0.3292
 4635SOL    HW114686   8.086   1.477   1.746 -0.6420  0.4701  0.3949
 4635SOL    HW214687   8.204   1.549   1.806  0.1095 -0.9199  0.6299
 4636SOL     OW14688   3.734   0.792   7.725  0.4085  0.0743  1.1850
 4636SOL    HW114689   3.654   0.815   7.774  0.9710  0.3368  2.0101
 4636SOL    HW214690   3.791   0.868   7.736  0.5086  0.1759  0.0081
 4637SOL     OW14691   5.388   5.375   7.485  0.2265  0.0807 -0.0026
 4637SOL    HW114692   5.331   5.339   7.417 -0.2812 -0.1603  0.5432
 4637SOL    HW214693   5.341   5.359   7.567  0.9652  0.0996  0.4342
 4638SOL     OW14694   6.464   1.380   5.501  0.2831 -0.5325  0.4721
 4638SOL    HW114695   6.392   1.318   5.513  1.2789 -2.1265 -1.2026
 4638SOL    HW214696   6.531   1.352   5.564  0.5106 -0.8272  0.1053
 4639SOL     OW14697   6.136   7.793   0.036 -0.0177 -0.7511  0.1740
 4639SOL    HW114698   6.090   7.866   0.078 -0.5842 -2.3476  2.4986
 4639SOL    HW214699   6.218   7.832   0.004 -0.4108  0.9555  1.1219
 4640SOL     OW14700   4.294   4.571   0.939 -0.4742 -0.0761 -0.4493
 4640SOL    HW114701   4.363   4.516   0.976  0.3738 -1.0358 -3.2565
 4640SOL    HW214702   4.336   4.622   0.871 -2.2717  0.2409 -1.4001
 4641SOL     OW14703   0.525   5.581   8.253  0.0344  0.1646 -0.3745
 4641SOL    HW114704   0.486   5.597   8.339 -0.5419  0.8685 -0.7570
 4641SOL    HW214705   0.592   5.649   8.244 -1.0401  1.1472 -1.1622
 4642SOL     OW14706   3.786   1.626   0.826  0.7362 -0.0381  0.0574
 4642SOL    HW114707   3.727   1.652   0.756 -1.5848  1.2094  2.3262
 4642SOL    HW214708   3.844   1.701   0.838  1.0890 -0.2247 -0.4044
 4643SOL     OW14709   1.249   2.278   8.123 -0.0126  0.0437  0.4738
 4643SOL    HW114710   1.332   2.318   8.147  1.6376 -1.9151 -1.5433
 4643SOL    HW214711   1.248   2.193   8.168 -0.7794 -0.0809  0.2474
 4644SOL     OW14712   5.583   0.245   1.603 -0.1239 -0.1947  0.1981
 4644SOL    HW114713   5.501   0.234   1.651  0.7252 -1.8575  1.4016
 4644SOL    HW214714   5.601   0.158   1.567  0.9327  0.2314 -0.3417
 4645SOL     OW14715   3.639   0.868   4.548  0.2550  0.2276 -0.2792
 4645SOL    HW114716   3.625   0.800   4.483  1.5965 -0.0304 -0.3129
 4645SOL    HW214717   3.659   0.821   4.629 -0.1212  0.5711  0.0257
 4646SOL     OW14718   3.620   0.681   5.609  0.1425 -0.1448  0.0597
 4646SOL    HW114719   3.642   0.751   5.670  2.1390 -0.3415 -0.3537
 4646SOL    HW214720   3.579   0.614   5.663  2.6555 -0.6919  1.4588
 4647SOL     OW14721   3.610   7.584   1.238  0.5012  0.5860  0.0580
 4647SOL    HW114722   3.563   7.569   1.321  1.2701  1.7445  0.7315
 4647SOL    HW214723   3.684   7.639   1.262  0.6611  1.0754 -1.4365
 4648SOL     OW14724   8.286   6.117   6.914  0.3342 -0.6646  0.5646
 4648SOL    HW114725   8.243   6.076   6.989 -0.5831  0.9379  0.9687
 4648SOL    HW214726   8.360   6.165   6.952 -1.1973  1.6752  0.7888
 4649SOL     OW14727   5.162   1.492   5.292 -0.6216 -0.0601 -0.0617
 4649SOL    HW114728   5.120   1.569   5.254  0.7646 -0.1776 -2.0157
 4649SOL    HW214729   5.167   1.429   5.220 -0.4201 -1.4284  1.1010
 4650SOL     OW14730   2.687   2.128   3.041 -0.1683  0.4986 -0.2453
 4650SOL    HW114731   2.708   2.038   3.068  1.1771  0.8772  0.0352
 4650SOL    HW214732   2.643   2.118   2.957 -0.1762 -0.4384 -0.1415
 4651SOL     OW14733   7.520   6.689   3.893  0.2065 -0.5899 -0.0510
 4651SOL    HW114734   7.537   6.762   3.952  0.7313 -1.4687  0.9099
 4651SOL    HW214735   7.593   6.691   3.831 -0.0430 -0.0057 -0.3271
 4652SOL     OW14736   1.015   6.251   7.574  0.1232 -0.0471  0.0984
 4652SOL    HW114737   0.972   6.166   7.570  0.4405 -0.1791 -0.9171
 4652SOL    HW214738   1.081   6.248   7.504  0.9342  0.6053  0.8069
 4653SOL     OW14739   0.216   6.241   3.422 -0.4321  0.2763  0.2116
 4653SOL    HW114740   0.171   6.205   3.499 -0.3867 -1.4340 -0.5265
 4653SOL    HW214741   0.217   6.336   3.437 -2.2222  0.1551  1.3385
 4654SOL     OW14742   4.539   3.551   1.118  0.0086 -0.1455 -0.2084
 4654SOL    HW114743   4.589   3.596   1.186 -1.6089  0.4108  0.6732
 4654SOL    HW214744   4.501   3.475   1.163 -0.6963 -0.0318 -0.5881
 4655SOL     OW14745   2.411   3.474   2.811  0.1449  0.0430 -0.2313
 4655SOL    HW114746   2.472   3.536   2.770  0.8837 -0.0591  0.6894
 4655SOL    HW214747   2.374   3.522   2.885  1.0793 -0.7465  0.7741
 4656SOL     OW14748   0.307   2.252   2.507  0.3048 -0.3565 -0.0097
 4656SOL    HW114749   0.231   2.198   2.485  0.7678 -0.3316 -1.8650
 4656SOL    HW214750   0.378   2.190   2.518  0.1639 -0.3337  1.0864
 4657SOL     OW14751   7.171   7.787   3.901  0.7787 -0.3225 -0.0970
 4657SOL    HW114752   7.108   7.716   3.893 -0.1196  0.6320 -2.3875
 4657SOL    HW214753   7.242   7.763   3.841  1.6954 -0.4524  1.0042
 4658SOL     OW14754   4.823   3.588   2.009  0.2468  0.1299 -0.0272
 4658SOL    HW114755   4.732   3.582   1.980  0.6260 -3.8461 -0.9741
 4658SOL    HW214756   4.865   3.646   1.945 -0.9050 -0.8871 -1.7578
 4659SOL     OW14757   6.920   3.586   5.891  0.0512 -0.3782  0.0888
 4659SOL    HW114758   6.827   3.566   5.883  0.2632 -1.5710  0.3329
 4659SOL    HW214759   6.930   3.619   5.980 -0.5698  2.5777 -0.8147
 4660SOL     OW14760   0.584   3.201   0.665 -0.4075 -0.1064 -0.5428
 4660SOL    HW114761   0.561   3.284   0.709 -0.4854 -0.6799  0.5393
 4660SOL    HW214762   0.523   3.137   0.700  0.9021 -1.0328  0.1533
 4661SOL     OW14763   2.290   1.064   7.376  0.4572 -0.0710 -0.1053
 4661SOL    HW114764   2.275   1.069   7.281 -1.1699 -0.5243  0.0989
 4661SOL    HW214765   2.244   1.140   7.411 -0.4532 -0.8582  0.4566
 4662SOL     OW14766   3.451   8.278   4.466 -0.0369  0.4102 -0.6191
 4662SOL    HW114767   3.534   8.259   4.510  0.1072  2.0146 -0.1079
 4662SOL    HW214768   3.474   8.287   4.373  0.2660  0.2793 -0.5567
 4663SOL     OW14769   3.153   4.278   1.832 -0.7072  0.2230 -0.3932
 4663SOL    HW114770   3.213   4.304   1.762 -0.0518 -0.2948 -0.0367
 4663SOL    HW214771   3.068   4.270   1.789 -0.4795  0.7447 -0.9521
 4664SOL     OW14772   4.496   3.785   2.814 -0.4198  0.3216 -0.6956
 4664SOL    HW114773   4.496   3.821   2.903 -0.9832  1.6844 -1.2125
 4664SOL    HW214774   4.575   3.822   2.774 -0.6670  0.4901 -1.0378
 4665SOL     OW14775   3.439   7.380   2.293 -0.0188 -0.3732 -0.0909
 4665SOL    HW114776   3.440   7.386   2.198  0.9040  2.0690 -0.0194
 4665SOL    HW214777   3.407   7.466   2.322 -1.7022 -1.5518  1.8224
 4666SOL     OW14778   1.151   0.260   1.027  0.4182  0.2314  0.3393
 4666SOL    HW114779   1.099   0.202   0.972  1.3236 -0.8645  0.6156
 4666SOL    HW214780   1.171   0.335   0.970  0.6539 -0.5019 -0.5796
 4667SOL     OW14781   7.417   3.876   3.626  0.8952 -0.1350 -0.2706
 4667SOL    HW114782   7.508   3.849   3.638  0.2132 -2.4506  0.2893
 4667SOL    HW214783   7.419   3.940   3.555  3.0424  0.5535  0.3450
 4668SOL     OW14784   1.849   3.905   4.518 -0.4702  0.7373 -0.1644
 4668SOL    HW114785   1.870   3.961   4.593 -1.8270 -0.2145  0.9764
 4668SOL    HW214786   1.899   3.825   4.533 -2.6351 -0.4493  1.1145
 4669SOL     OW14787   5.285   2.055   7.631 -0.3254  0.3720 -0.2293
 4669SOL    HW114788   5.194   2.079   7.613 -0.3994  0.6926  0.5517
 4669SOL    HW214789   5.283   1.959   7.637 -1.0442  0.4591  1.9141
 4670SOL     OW14790   0.817   0.025   4.774  0.1933 -0.1535  0.2874
 4670SOL    HW114791   0.908   0.055   4.774  0.7118 -1.4286  2.5901
 4670SOL    HW214792   0.823  -0.070   4.759 -0.8587 -0.1091 -0.5509
 4671SOL     OW14793   7.513   3.921   6.615 -0.3157 -0.4196 -0.3931
 4671SOL    HW114794   7.436   3.879   6.578  0.1300 -1.2592 -0.3939
 4671SOL    HW214795   7.538   3.986   6.549 -2.2760  1.4528  0.5670
 4672SOL     OW14796   5.120   3.922   7.899 -0.1337 -0.6493  0.7964
 4672SOL    HW114797   5.173   3.933   7.977  1.4663 -1.1308 -0.1815
 4672SOL    HW214798   5.035   3.892   7.932 -0.0798  0.8078  2.4445
 4673SOL     OW14799   7.812   2.515   1.607 -0.6866 -0.1914 -0.0176
 4673SOL    HW114800   7.735   2.475   1.567 -1.4022  1.6025 -0.5318
 4673SOL    HW214801   7.849   2.569   1.537  1.2905 -1.2964  0.1004
 4674SOL     OW14802   4.448   1.715   1.561 -0.1185  0.3091  0.1603
 4674SOL    HW114803   4.511   1.660   1.608  0.9497  1.2584 -0.1367
 4674SOL    HW214804   4.384   1.740   1.628 -1.2530 -2.1338  0.0863
 4675SOL     OW14805   2.842   1.646   3.561 -0.0246 -0.0299 -0.4208
 4675SOL    HW114806   2.820   1.735   3.590  0.5496  0.0299 -0.1405
 4675SOL    HW214807   2.846   1.653   3.465 -1.3532 -0.0907 -0.4916
 4676SOL     OW14808   0.773   7.053   0.979 -0.0963 -0.1346  0.2881
 4676SOL    HW114809   0.850   7.109   0.990  0.1408 -0.6519  1.4255
 4676SOL    HW214810   0.728   7.058   1.064 -1.2688  0.0789 -0.3249
 4677SOL     OW14811   8.193   7.168   0.656 -0.1126  0.4402  0.4764
 4677SOL    HW114812   8.280   7.144   0.625 -0.3523 -0.9106  0.7611
 4677SOL    HW214813   8.176   7.254   0.618  0.8994  0.2388 -0.4785
 4678SOL     OW14814   0.336   7.996   6.146  0.2117  0.6372  0.8383
 4678SOL    HW114815   0.413   8.047   6.124  1.6997 -2.0811 -0.7145
 4678SOL    HW214816   0.351   7.910   6.108 -2.9495 -0.4885  1.7432
 4679SOL     OW14817   7.542   8.190   5.834 -0.3809  0.1103 -0.1993
 4679SOL    HW114818   7.454   8.158   5.852 -0.0986  0.6040  2.5511
 4679SOL    HW214819   7.571   8.140   5.758 -1.9868 -2.0973  0.5357
 4680SOL     OW14820   7.664   4.013   4.963  0.0821 -0.4282 -0.1572
 4680SOL    HW114821   7.613   4.035   5.041 -1.2671 -0.5365 -0.9762
 4680SOL    HW214822   7.715   4.092   4.944 -0.1367 -0.1517  0.4025
 4681SOL     OW14823   5.457   2.254   0.284  0.6111 -0.3863 -0.5446
 4681SOL    HW114824   5.537   2.257   0.230 -0.4741  0.9524 -2.2008
 4681SOL    HW214825   5.414   2.337   0.267 -1.1303 -1.0579  0.3468
 4682SOL     OW14826   7.585   5.689   2.587 -0.0594 -0.6080  0.0056
 4682SOL    HW114827   7.492   5.704   2.603 -0.3375 -0.3549 -1.6723
 4682SOL    HW214828   7.626   5.699   2.672 -1.2825  1.4936  0.4149
 4683SOL     OW14829   2.846   7.686   4.665 -0.3302  0.3195  0.0697
 4683SOL    HW114830   2.764   7.723   4.697 -0.0940  0.3466  0.6407
 4683SOL    HW214831   2.820   7.632   4.590 -1.0047 -0.5021  0.8677
 4684SOL     OW14832   1.430   4.850   6.165 -0.9674 -0.4229  0.0227
 4684SOL    HW114833   1.507   4.894   6.127 -0.3840 -0.1647  1.4346
 4684SOL    HW214834   1.358   4.912   6.151 -0.0980  1.2562  2.2768
 4685SOL     OW14835   5.098   7.799   1.597 -0.1700 -0.1267  0.0866
 4685SOL    HW114836   5.148   7.718   1.605  0.6979  0.4856  1.1809
 4685SOL    HW214837   5.020   7.774   1.548  0.1683 -1.5794  0.2322
 4686SOL     OW14838   2.726   5.587   4.729  0.6583 -0.2468 -0.3862
 4686SOL    HW114839   2.731   5.554   4.818  1.7065  0.4599 -0.1694
 4686SOL    HW214840   2.632   5.587   4.709  0.2835  0.8307  1.1939
 4687SOL     OW14841   4.111   4.077   3.506  0.3637 -0.1714  0.4125
 4687SOL    HW114842   4.171   4.092   3.579 -0.3508  2.5716  0.5319
 4687SOL    HW214843   4.044   4.019   3.541  0.8079 -0.0580  1.4856
 4688SOL     OW14844   1.337   8.280   1.377  0.3617  0.0686  0.2557
 4688SOL    HW114845   1.425   8.253   1.353  0.6692  1.0066  0.2768
 4688SOL    HW214846   1.321   8.360   1.327 -0.0362  0.5350  1.0954
 4689SOL     OW14847   2.928   2.117   0.104 -0.2518 -0.0906  0.1685
 4689SOL    HW114848   3.023   2.115   0.099 -0.0106 -1.2016  3.3271
 4689SOL    HW214849   2.900   2.035   0.062  0.1422  0.3144 -0.9053
 4690SOL     OW14850   5.318   2.709   7.935 -0.1426 -0.4154  0.4198
 4690SOL    HW114851   5.232   2.750   7.935  0.6100  1.3375  2.2777
 4690SOL    HW214852   5.378   2.778   7.963  1.7308 -1.8656  0.2283
 4691SOL     OW14853   8.083   4.038   6.865 -0.4863  0.1788 -0.1257
 4691SOL    HW114854   8.090   3.987   6.784  0.3016  0.2379 -0.1001
 4691SOL    HW214855   8.114   3.980   6.934  1.1477  0.9030 -0.1931
 4692SOL     OW14856   1.378   1.417   0.883  0.0778  0.9482  0.1685
 4692SOL    HW114857   1.343   1.455   0.802 -0.5812  0.0080  0.0015
 4692SOL    HW214858   1.459   1.375   0.856 -0.0655  0.7633  0.0280
 4693SOL     OW14859   1.683   0.769   7.999  0.5378 -0.2537  0.2053
 4693SOL    HW114860   1.653   0.736   7.914 -1.9552 -0.7593  1.1913
 4693SOL    HW214861   1.757   0.713   8.022  0.8329 -0.5241 -1.3312
 4694SOL     OW14862   5.709   0.085   2.817 -0.2926  0.7450 -0.5842
 4694SOL    HW114863   5.653   0.140   2.762 -0.6328  1.1085  0.1141
 4694SOL    HW214864   5.682  -0.004   2.798 -0.7166  0.8941 -0.6754
 4695SOL     OW14865   1.632   7.889   6.195 -0.5410 -0.2315  0.3223
 4695SOL    HW114866   1.540   7.868   6.181 -0.2150 -2.2412  0.8001
 4695SOL    HW214867   1.674   7.872   6.110 -0.4088 -0.7638  0.4861
 4696SOL     OW14868   6.131   8.037   7.529 -0.0646 -0.3684  0.1212
 4696SOL    HW114869   6.104   7.946   7.515  1.3878 -0.5478 -1.8358
 4696SOL    HW214870   6.202   8.031   7.593 -0.9582 -0.4240  1.1388
 4697SOL     OW14871   2.031   8.081   3.130 -0.2398 -0.2638 -0.1799
 4697SOL    HW114872   2.120   8.113   3.148 -0.1137  0.3303 -1.6448
 4697SOL    HW214873   2.019   8.009   3.191  1.4907 -0.7449 -0.3305
 4698SOL     OW14874   0.324   3.242   4.727 -0.3048 -0.3812 -0.4769
 4698SOL    HW114875   0.281   3.264   4.809 -0.0197 -2.3603  0.2474
 4698SOL    HW214876   0.252   3.224   4.666 -0.5080  0.4153 -0.4813
 4699SOL     OW14877   5.929   7.025   4.760  0.3072 -0.1427 -0.4832
 4699SOL    HW114878   5.981   6.980   4.693  1.3709  0.2413  0.0677
 4699SOL    HW214879   5.838   7.005   4.736  0.7163 -1.8518 -0.7599
 4700SOL     OW14880   2.328   0.877   8.204  0.2551  0.0507  0.1626
 4700SOL    HW114881   2.290   0.917   8.282  1.1899 -0.9463  1.1680
 4700SOL    HW214882   2.302   0.934   8.132 -0.0228  1.3952  1.2992
 4701SOL     OW14883   1.801   6.072   4.905  0.5694 -0.7094 -0.7797
 4701SOL    HW114884   1.710   6.042   4.913  0.4132 -0.5614 -1.8983
 4701SOL    HW214885   1.852   5.992   4.896  0.4230 -0.7460 -1.2910
 4702SOL     OW14886   2.829   0.477   5.605 -0.0817  0.3070  0.1304
 4702SOL    HW114887   2.829   0.473   5.701  0.1782  0.1574  0.1259
 4702SOL    HW214888   2.870   0.560   5.584  2.9996 -1.0626  0.1196
 4703SOL     OW14889   7.972   1.079   2.652 -0.1050  0.4483  0.9339
 4703SOL    HW114890   8.052   1.027   2.643 -0.4786  0.1615 -1.4146
 4703SOL    HW214891   7.973   1.110   2.742  1.6332 -1.1855  1.5280
 4704SOL     OW14892   6.990   2.308   3.804 -0.0281  0.5684  0.6042
 4704SOL    HW114893   7.056   2.368   3.839 -1.0068  0.4222  2.8991
 4704SOL    HW214894   6.914   2.363   3.788 -0.6547  0.1322  1.9175
 4705SOL     OW14895   3.361   6.520   4.172 -0.4650 -0.0774 -0.1496
 4705SOL    HW114896   3.282   6.575   4.172 -0.7823 -0.4768 -2.0256
 4705SOL    HW214897   3.396   6.527   4.083  3.3606  2.4516  1.3083
 4706SOL     OW14898   7.213   3.428   3.372  0.4618 -0.1398 -0.1174
 4706SOL    HW114899   7.267   3.496   3.413 -0.6746  0.5115  0.3432
 4706SOL    HW214900   7.267   3.395   3.301  1.3926  0.6334  0.2006
 4707SOL     OW14901   1.096   7.788   7.212 -0.2562  0.0172  0.3568
 4707SOL    HW114902   1.072   7.816   7.124  1.2934 -0.2223 -0.1808
 4707SOL    HW214903   1.135   7.701   7.199  0.7044  0.3091  1.1504
 4708SOL     OW14904   2.607   7.390   6.730  0.1058  0.0851 -0.1282
 4708SOL    HW114905   2.646   7.464   6.683  0.1707  0.7154  0.8958
 4708SOL    HW214906   2.632   7.313   6.678  1.4193  0.6191 -0.3435
 4709SOL     OW14907   7.412   1.998   1.016  0.2297  0.2913 -0.0055
 4709SOL    HW114908   7.320   2.007   0.990  0.0332 -0.8261  0.2248
 4709SOL    HW214909   7.462   2.032   0.942 -0.3556 -0.6348 -0.8571
 4710SOL     OW14910   6.382   3.826   6.659 -0.3733 -0.3898  0.2440
 4710SOL    HW114911   6.321   3.900   6.668 -0.2458 -0.2260 -0.2269
 4710SOL    HW214912   6.373   3.778   6.742 -0.1224  0.3969  0.7437
 4711SOL     OW14913   2.239   0.975   6.608  0.5918 -0.2895 -0.1144
 4711SOL    HW114914   2.228   1.034   6.683  1.2474 -0.8802  0.4609
 4711SOL    HW214915   2.262   1.032   6.535  0.3202  0.2561  0.2205
 4712SOL     OW14916   1.678   5.105   1.692 -0.6309 -0.6515 -0.0512
 4712SOL    HW114917   1.613   5.059   1.746 -2.2769  2.2769  0.6994
 4712SOL    HW214918   1.630   5.129   1.613 -0.4811  1.3803  0.4203
 4713SOL     OW14919   8.187   2.882   1.495 -0.0760 -0.0040 -0.2209
 4713SOL    HW114920   8.175   2.848   1.584  0.0815  1.0283  0.2178
 4713SOL    HW214921   8.129   2.959   1.492  2.0939  1.7292  0.0110
 4714SOL     OW14922   6.657   6.243   7.451 -0.2262  0.4236  0.4812
 4714SOL    HW114923   6.668   6.295   7.371  1.4080  0.7100  0.8534
 4714SOL    HW214924   6.730   6.181   7.449 -2.4283 -2.3618 -0.2608
 4715SOL     OW14925   3.721   3.288   0.477  0.2948 -0.1593  0.3415
 4715SOL    HW114926   3.681   3.357   0.531 -0.2652 -1.0913  1.1461
 4715SOL    HW214927   3.785   3.247   0.535  0.5414 -0.3911 -0.0942
 4716SOL     OW14928   6.959   0.145   6.679  0.1870  0.0986  0.1009
 4716SOL    HW114929   6.912   0.194   6.611  1.2780 -0.1612 -0.8797
 4716SOL    HW214930   7.034   0.201   6.700 -0.0596  0.1044  1.0056
 4717SOL     OW14931   4.089   7.038   7.441  0.1905 -0.1308  0.2777
 4717SOL    HW114932   4.058   6.955   7.407  0.6847 -0.0353 -0.4323
 4717SOL    HW214933   4.013   7.096   7.436  0.4467  0.1015 -1.4396
 4718SOL     OW14934   5.397   6.723   0.751 -0.3983 -0.2369  0.4026
 4718SOL    HW114935   5.379   6.640   0.706 -1.3012 -0.1537  0.5857
 4718SOL    HW214936   5.344   6.718   0.831 -0.2284  0.3905  0.5558
 4719SOL     OW14937   2.705   6.330   2.596 -0.2907 -0.6464 -0.5084
 4719SOL    HW114938   2.639   6.346   2.528 -0.4696 -2.5035 -0.8143
 4719SOL    HW214939   2.655   6.324   2.677 -0.3095 -0.4875 -0.5073
 4720SOL     OW14940   4.471   4.968   0.038  0.3975  0.1195 -0.0303
 4720SOL    HW114941   4.519   4.951   0.119 -1.4462 -1.2736  0.8302
 4720SOL    HW214942   4.499   4.898  -0.022  0.4901  0.1496 -0.0226
 4721SOL     OW14943   5.202   1.851   4.752  0.3105  0.3081  0.5701
 4721SOL    HW114944   5.165   1.787   4.692  0.5026  0.6335  0.0992
 4721SOL    HW214945   5.146   1.847   4.830  1.1156 -1.4176  1.1204
 4722SOL     OW14946   3.957   2.246   6.043  0.1557  0.4398 -0.1533
 4722SOL    HW114947   4.022   2.182   6.073  2.7239  1.7377 -2.4726
 4722SOL    HW214948   3.990   2.330   6.074  0.1295  1.2239 -2.1077
 4723SOL     OW14949   1.943   1.790   5.935 -0.8030 -0.5281 -0.1988
 4723SOL    HW114950   1.986   1.819   5.855 -1.7742 -0.6485 -0.7816
 4723SOL    HW214951   1.872   1.733   5.905 -1.3970 -0.3011  0.7302
 4724SOL     OW14952   1.256   3.090   6.454 -0.2104 -0.3163 -0.0008
 4724SOL    HW114953   1.260   3.185   6.461  0.4930 -0.3788  0.5602
 4724SOL    HW214954   1.183   3.065   6.511  0.1188 -0.1693  0.4916
 4725SOL     OW14955   0.306   1.510   0.708  0.1709 -0.6061  0.1849
 4725SOL    HW114956   0.306   1.539   0.617  4.1182  1.6464  0.6801
 4725SOL    HW214957   0.323   1.415   0.704 -1.7195 -0.9223 -1.3622
 4726SOL     OW14958   7.337   7.253   1.285  1.0247 -0.1849 -0.2096
 4726SOL    HW114959   7.344   7.243   1.190 -1.0925  0.8211 -0.5171
 4726SOL    HW214960   7.320   7.164   1.317  1.5240 -0.4947 -0.7798
 4727SOL     OW14961   2.687   2.029   3.815 -0.1827  0.3808 -0.4010
 4727SOL    HW114962   2.596   2.045   3.790 -0.4405  0.4208  0.5377
 4727SOL    HW214963   2.733   2.109   3.787 -0.4258  0.3526 -0.8953
 4728SOL     OW14964   3.795   0.280   0.735  0.2338 -0.3318  0.0606
 4728SOL    HW114965   3.735   0.221   0.781  0.7346  0.6227  2.0742
 4728SOL    HW214966   3.737   0.338   0.685 -0.4584 -0.3870  0.7700
 4729SOL     OW14967   4.094   2.531   4.826  0.5606  0.5147 -0.8542
 4729SOL    HW114968   4.179   2.516   4.785  0.5685 -1.8878 -0.0965
 4729SOL    HW214969   4.035   2.470   4.782  0.1191 -0.6205  1.1808
 4730SOL     OW14970   0.848   2.731   5.171  0.8085  0.4354  0.2663
 4730SOL    HW114971   0.835   2.694   5.084  0.4850  0.4903  0.2913
 4730SOL    HW214972   0.768   2.710   5.219  1.5631 -0.8922  1.0271
 4731SOL     OW14973   0.692   4.816   7.539  0.4709  0.3464  0.1255
 4731SOL    HW114974   0.689   4.774   7.453  2.6573  1.3174 -0.4802
 4731SOL    HW214975   0.689   4.743   7.602 -1.6738 -0.3542 -0.6800
 4732SOL     OW14976   0.647   6.118   1.190 -0.2687 -0.1135 -0.4883
 4732SOL    HW114977   0.707   6.134   1.117  0.2290 -1.9994 -0.5443
 4732SOL    HW214978   0.601   6.037   1.166 -2.7065  1.1393 -0.3440
 4733SOL     OW14979   3.435   3.085   3.979  0.0863  0.7341 -0.0852
 4733SOL    HW114980   3.518   3.089   3.932  0.1176  0.2849 -0.0786
 4733SOL    HW214981   3.378   3.145   3.933  0.0511  0.1456 -0.8332
 4734SOL     OW14982   0.138   4.723   4.487  0.0932 -0.3815  0.2626
 4734SOL    HW114983   0.118   4.744   4.578 -0.6244 -1.2138  0.3068
 4734SOL    HW214984   0.099   4.793   4.437 -1.3466 -1.0068  0.4723
 4735SOL     OW14985   6.234   6.297   1.726 -0.3683 -0.4717 -0.3506
 4735SOL    HW114986   6.288   6.220   1.706  1.7714  0.7317  0.5649
 4735SOL    HW214987   6.203   6.327   1.640  2.0092 -0.1002 -1.1405
 4736SOL     OW14988   2.467   0.423   6.942 -0.6136 -0.3976 -0.1804
 4736SOL    HW114989   2.446   0.423   6.849 -0.6047 -1.3140 -0.1880
 4736SOL    HW214990   2.417   0.497   6.978  0.6125  0.9849 -1.1727
 4737SOL     OW14991   5.651   1.294   4.940 -0.3056  0.1271  0.2180
 4737SOL    HW114992   5.708   1.221   4.917  1.9330  1.8001  0.1400
 4737SOL    HW214993   5.693   1.336   5.015 -1.1173  1.7718 -0.1902
 4738SOL     OW14994   0.138   4.578   7.935 -0.3997 -0.0852  0.0109
 4738SOL    HW114995   0.072   4.540   7.877 -0.2798  1.0559 -0.9092
 4738SOL    HW214996   0.120   4.538   8.020 -1.6914 -0.4883 -0.4210
 4739SOL     OW14997   5.967   4.266   4.219 -0.0692 -0.6891 -0.2439
 4739SOL    HW114998   6.041   4.205   4.219  0.5941  0.0893 -0.9067
 4739SOL    HW214999   5.915   4.240   4.144  1.0211  0.4662 -1.4569
 4740SOL     OW15000   5.348   1.370   5.418  0.4829  0.2520 -0.0159
 4740SOL    HW115001   5.266   1.418   5.406  0.2153 -0.0445  0.5969
 4740SOL    HW215002   5.380   1.355   5.329  1.7013  3.4612 -0.2383
 4741SOL     OW15003   1.737   0.032   6.561 -0.4162 -0.2017 -0.1810
 4741SOL    HW115004   1.808  -0.032   6.552 -0.7430 -0.5222 -0.5360
 4741SOL    HW215005   1.711   0.052   6.471 -1.3118 -0.7085 -0.0545
 4742SOL     OW15006   3.732   3.946   4.679  0.1910  0.5509  0.3341
 4742SOL    HW115007   3.785   4.018   4.646  0.0302  0.2664 -0.5613
 4742SOL    HW215008   3.790   3.898   4.738  0.9864  0.1687 -0.7329
 4743SOL     OW15009   5.304   3.569   1.178 -0.3249 -0.1395 -0.3222
 4743SOL    HW115010   5.377   3.601   1.231 -0.0872  1.2048 -1.4035
 4743SOL    HW215011   5.327   3.594   1.088 -1.9181 -0.0653 -0.7352
 4744SOL     OW15012   3.210   5.659   3.154  0.3622 -0.0967  0.1054
 4744SOL    HW115013   3.158   5.683   3.231  0.1202  0.5866 -0.2557
 4744SOL    HW215014   3.266   5.735   3.140  1.1905 -0.6692  0.2562
 4745SOL     OW15015   5.651   0.012   4.223  0.1821 -0.6009 -0.0633
 4745SOL    HW115016   5.682  -0.022   4.307  1.7298 -0.0613 -0.3896
 4745SOL    HW215017   5.730   0.026   4.171 -0.7496 -1.0344 -1.6719
 4746SOL     OW15018   2.058   3.174   4.839  0.2230  0.3311  0.0596
 4746SOL    HW115019   2.005   3.115   4.894  2.1952  0.2106  1.9688
 4746SOL    HW215020   2.012   3.258   4.842 -1.1498 -0.3761 -0.4011
 4747SOL     OW15021   3.436   3.631   0.388 -0.1403  0.2936  0.4382
 4747SOL    HW115022   3.512   3.599   0.341 -0.7397 -0.7392  0.1366
 4747SOL    HW215023   3.401   3.701   0.333 -0.0827 -0.0290 -0.0181
 4748SOL     OW15024   0.840   3.688   3.096 -0.3393  0.1580  0.1944
 4748SOL    HW115025   0.865   3.775   3.067 -1.0193  0.2711 -0.0872
 4748SOL    HW215026   0.843   3.634   3.016  1.3969 -0.4048  0.6089
 4749SOL     OW15027   2.154   1.862   5.401  0.0091  0.1285 -0.1379
 4749SOL    HW115028   2.214   1.789   5.419 -0.8396 -0.1509  1.6955
 4749SOL    HW215029   2.108   1.835   5.322  0.5097 -0.8019 -0.1335
 4750SOL     OW15030   1.328   4.309   2.988  0.3040 -0.7357 -0.1396
 4750SOL    HW115031   1.280   4.380   2.945  0.6787  0.2433  1.0239
 4750SOL    HW215032   1.323   4.236   2.926  0.8590  0.6338 -1.8886
 4751SOL     OW15033   1.216   7.185   6.197  0.5736 -0.3788  0.4177
 4751SOL    HW115034   1.255   7.218   6.278  1.1183 -0.5369  0.2218
 4751SOL    HW215035   1.127   7.221   6.198  0.5694 -0.3838  1.0870
 4752SOL     OW15036   2.611   5.655   0.952 -0.0805 -0.2135 -0.3556
 4752SOL    HW115037   2.649   5.710   0.883 -0.2828  0.0130 -0.2856
 4752SOL    HW215038   2.680   5.591   0.972  0.7629  0.9678  0.6548
 4753SOL     OW15039   3.914   0.088   7.580 -0.2889  1.1141 -0.0852
 4753SOL    HW115040   4.002   0.102   7.546 -0.5407  2.9113 -0.0574
 4753SOL    HW215041   3.862   0.066   7.503  0.2694 -0.6234 -0.0170
 4754SOL     OW15042   1.017   6.198   2.949 -0.3902 -0.5554  0.1177
 4754SOL    HW115043   0.956   6.131   2.917 -0.5593 -0.6025  0.5395
 4754SOL    HW215044   1.021   6.184   3.043  0.5836 -0.8086  0.0450
 4755SOL     OW15045   6.471   4.996   0.121 -0.1610 -0.3846 -0.0028
 4755SOL    HW115046   6.426   5.055   0.060  1.2366  0.7522 -0.0059
 4755SOL    HW215047   6.562   4.996   0.090  0.5351  0.0528  1.9395
 4756SOL     OW15048   7.698   0.999   4.053 -0.0361  0.0195  0.1403
 4756SOL    HW115049   7.622   0.944   4.034 -0.3264 -0.5722  2.6857
 4756SOL    HW215050   7.770   0.957   4.008 -0.8053 -0.7000 -0.4476
 4757SOL     OW15051   5.740   0.888   3.265 -0.5336 -0.1008 -0.4329
 4757SOL    HW115052   5.779   0.967   3.304 -0.0476 -0.1535 -0.8092
 4757SOL    HW215053   5.657   0.878   3.311  0.5556 -0.8562  1.4497
 4758SOL     OW15054   1.809   4.362   0.358 -0.2391 -0.3325 -0.5202
 4758SOL    HW115055   1.720   4.330   0.373 -0.2104  0.6981  2.4472
 4758SOL    HW215056   1.832   4.409   0.438  3.7913 -2.3439 -0.2047
 4759SOL     OW15057   0.572   2.746   6.692  0.2085 -0.8340 -0.0543
 4759SOL    HW115058   0.541   2.663   6.655 -0.5917 -0.0813 -1.1376
 4759SOL    HW215059   0.501   2.773   6.751 -0.6093  0.1744 -1.4339
 4760SOL     OW15060   2.106   4.444   0.260 -0.0592  0.6648 -0.2062
 4760SOL    HW115061   2.070   4.357   0.281  1.4384  0.3676  1.3757
 4760SOL    HW215062   2.037   4.505   0.283 -0.4190 -0.0128  0.5680
 4761SOL     OW15063   6.546   5.260   6.259  0.5307  0.0876  0.3583
 4761SOL    HW115064   6.512   5.346   6.233 -0.5800 -0.3132  0.4153
 4761SOL    HW215065   6.514   5.248   6.348 -0.3450 -0.8721 -0.0587
 4762SOL     OW15066   6.971   7.963   8.289 -0.5764 -0.1221 -0.6309
 4762SOL    HW115067   7.062   7.986   8.271 -0.7192  1.0242  0.0052
 4762SOL    HW215068   6.921   8.034   8.248 -1.0740  0.4025  0.8397
 4763SOL     OW15069   0.956   0.631   2.134  0.3851 -0.2398 -0.5107
 4763SOL    HW115070   0.903   0.609   2.210  0.3125  0.0459 -0.4784
 4763SOL    HW215071   0.947   0.556   2.075 -0.5841  0.0953 -0.7982
 4764SOL     OW15072   1.269   3.201   1.631  0.4555 -0.0728  0.1539
 4764SOL    HW115073   1.195   3.178   1.688  0.5537 -1.2485 -0.1717
 4764SOL    HW215074   1.237   3.182   1.543  0.7259  0.5951 -0.0913
 4765SOL     OW15075   3.159   5.999   3.440  0.4072  0.0808  0.3290
 4765SOL    HW115076   3.248   6.025   3.418  0.6020 -1.1320 -0.4112
 4765SOL    HW215077   3.125   5.960   3.359  0.3637 -2.4913  1.4899
 4766SOL     OW15078   7.702   7.401   2.171  0.9081  0.0927  0.2407
 4766SOL    HW115079   7.698   7.495   2.151  2.0100  0.1734  0.2990
 4766SOL    HW215080   7.757   7.396   2.250  1.1537 -0.6252  0.0352
 4767SOL     OW15081   7.770   7.898   7.243 -0.5355 -0.4003 -0.1614
 4767SOL    HW115082   7.773   7.986   7.206  3.2648 -0.4157 -0.2450
 4767SOL    HW215083   7.824   7.903   7.322  0.2180 -2.7254 -0.4476
 4768SOL     OW15084   1.570   6.322   6.002  0.2162 -0.4075  0.4451
 4768SOL    HW115085   1.615   6.237   6.003 -0.0514 -0.5487  0.5682
 4768SOL    HW215086   1.484   6.304   6.040 -0.8478 -0.6192 -1.8904
 4769SOL     OW15087   4.702   1.197   4.962 -0.2542  0.3203  0.0417
 4769SOL    HW115088   4.621   1.225   5.005 -0.6834 -0.8426  0.0303
 4769SOL    HW215089   4.769   1.201   5.030 -0.0416  2.4194 -0.2397
 4770SOL     OW15090   6.399   2.695   0.961 -0.3817  0.3685  0.3274
 4770SOL    HW115091   6.349   2.776   0.969 -0.3321  0.2938  1.4622
 4770SOL    HW215092   6.336   2.626   0.982 -0.6471  0.0244 -1.4184
 4771SOL     OW15093   3.518   2.760   5.669  0.3811  0.5166 -0.8557
 4771SOL    HW115094   3.557   2.746   5.583  1.3096 -1.8837 -0.1246
 4771SOL    HW215095   3.434   2.715   5.665  0.5982  0.0591 -0.4048
 4772SOL     OW15096   2.756   6.392   1.005  0.4677  0.0242  0.0559
 4772SOL    HW115097   2.821   6.403   1.075 -0.1956  0.6332  0.5995
 4772SOL    HW215098   2.808   6.385   0.925  1.2349 -0.5331  0.5935
 4773SOL     OW15099   1.231   5.539   3.626 -0.1361  0.2312  0.1589
 4773SOL    HW115100   1.285   5.461   3.638  0.0063  0.1953 -0.6421
 4773SOL    HW215101   1.271   5.605   3.683  1.3573  0.4894 -1.1109
 4774SOL     OW15102   2.653   7.660   7.205 -0.3121  0.0259  0.5210
 4774SOL    HW115103   2.645   7.641   7.298  2.0999  1.2082  1.0476
 4774SOL    HW215104   2.707   7.589   7.171  0.6537  0.7367  0.5182
 4775SOL     OW15105   2.729   1.001   2.911 -0.0928  0.0011 -0.6063
 4775SOL    HW115106   2.687   1.066   2.855 -0.7418  2.2222  2.2478
 4775SOL    HW215107   2.657   0.946   2.943  0.2194 -0.9713 -1.4985
 4776SOL     OW15108   6.138   1.178   7.319  0.1033  0.9596 -0.4707
 4776SOL    HW115109   6.051   1.205   7.350  0.9270  2.4484  0.6880
 4776SOL    HW215110   6.129   1.173   7.224 -0.6565  3.5747 -0.6261
 4777SOL     OW15111   3.661   2.683   8.153 -0.0095  0.7844  0.7032
 4777SOL    HW115112   3.682   2.737   8.077  1.4377  1.6868  1.6921
 4777SOL    HW215113   3.727   2.614   8.152 -1.6301 -0.8407 -0.3506
 4778SOL     OW15114   1.990   6.815   7.966  0.2946 -0.5123 -0.1787
 4778SOL    HW115115   2.085   6.812   7.961  0.3250 -0.5026  0.3480
 4778SOL    HW215116   1.962   6.843   7.879  0.8146  0.4511 -0.0473
 4779SOL     OW15117   6.471   0.691   2.711 -0.4235  0.1831  0.0848
 4779SOL    HW115118   6.449   0.668   2.620  1.3195 -1.8755  0.0983
 4779SOL    HW215119   6.392   0.668   2.760 -0.1856 -2.1796 -0.4934
 4780SOL     OW15120   4.678   3.579   5.248  0.5293 -0.4083  0.0587
 4780SOL    HW115121   4.701   3.647   5.312 -1.8909 -0.7848  1.4609
 4780SOL    HW215122   4.757   3.526   5.240  1.5535  0.8769  1.1528
 4781SOL     OW15123   4.266   6.597   7.942 -0.4003 -0.0855  0.0230
 4781SOL    HW115124   4.179   6.631   7.922 -0.8144 -1.8068 -1.4663
 4781SOL    HW215125   4.250   6.509   7.976  0.7545 -0.7105 -0.9641
 4782SOL     OW15126   8.166   7.180   1.771 -0.1171  0.6246 -0.5295
 4782SOL    HW115127   8.234   7.214   1.713  1.3195 -0.3466  0.5413
 4782SOL    HW215128   8.108   7.131   1.713  0.4986  0.8435 -1.3511
 4783SOL     OW15129   3.126   2.165   0.424  0.2270  0.9446  0.4214
 4783SOL    HW115130   3.158   2.214   0.500  2.5186  0.9954 -0.5032
 4783SOL    HW215131   3.124   2.229   0.353  2.3617 -0.0113 -0.5744
 4784SOL     OW15132   7.360   4.495   0.319  0.2758  0.2493 -0.7906
 4784SOL    HW115133   7.297   4.521   0.252 -1.2931  0.4343  0.6923
 4784SOL    HW215134   7.401   4.415   0.285 -1.2398 -0.2458 -1.5092
 4785SOL     OW15135   1.757   2.484   6.440  0.0848 -0.3632  0.0750
 4785SOL    HW115136   1.721   2.400   6.468  1.6765 -1.1104  0.0104
 4785SOL    HW215137   1.851   2.467   6.428  0.3784  1.3319 -0.3087
 4786SOL     OW15138   7.176   2.188   0.119 -0.3335 -0.3071 -0.0177
 4786SOL    HW115139   7.185   2.123   0.049  1.6300 -1.7593  1.4965
 4786SOL    HW215140   7.081   2.201   0.127 -0.6734 -1.3374 -1.8028
 4787SOL     OW15141   3.732   3.341   7.982  0.2197  0.7177  0.2399
 4787SOL    HW115142   3.704   3.433   7.984 -1.2699  0.3479 -1.2332
 4787SOL    HW215143   3.762   3.327   7.893  1.3666  0.0020  0.7161
 4788SOL     OW15144   3.835   6.041   5.666  0.1406 -0.1492  0.6326
 4788SOL    HW115145   3.858   5.963   5.616 -1.5923 -1.6240  1.9911
 4788SOL    HW215146   3.903   6.048   5.733 -0.7116 -1.7168  1.7301
 4789SOL     OW15147   4.208   0.355   8.259 -0.8949 -0.4946  0.1047
 4789SOL    HW115148   4.266   0.357   8.182 -0.7173 -0.8265  0.2237
 4789SOL    HW215149   4.177   0.444   8.268 -0.6260 -0.3724 -0.1371
 4790SOL     OW15150   6.131   0.419   1.111 -0.1149 -0.0746  0.5430
 4790SOL    HW115151   6.187   0.471   1.054 -1.8303  1.1444 -0.1362
 4790SOL    HW215152   6.107   0.342   1.058 -0.7211  0.4471  0.0369
 4791SOL     OW15153   5.026   6.969   1.977 -0.0222  0.0269 -0.1023
 4791SOL    HW115154   5.030   7.027   2.053 -1.4926  0.0415 -0.0083
 4791SOL    HW215155   5.079   6.894   2.001  0.1784  0.3916  0.6197
 4792SOL     OW15156   6.774   6.730   0.556 -0.5506  0.5868 -0.3605
 4792SOL    HW115157   6.709   6.724   0.486  0.2725  1.6017 -1.2572
 4792SOL    HW215158   6.802   6.640   0.570  0.1641  0.4709 -2.2432
 4793SOL     OW15159   5.904   6.348   0.955 -0.8806  0.1887  0.1630
 4793SOL    HW115160   5.936   6.308   1.036 -1.9166 -1.2114 -0.0836
 4793SOL    HW215161   5.913   6.442   0.970  1.7512 -0.0715  0.7270
 4794SOL     OW15162   8.135   1.727   0.508  0.1957 -0.5599  0.4609
 4794SOL    HW115163   8.172   1.662   0.568 -0.1680 -0.5980  0.6473
 4794SOL    HW215164   8.091   1.791   0.565  0.4109 -0.2379  0.2713
 4795SOL     OW15165   7.659   2.807   2.029 -0.0114 -0.0888 -0.1794
 4795SOL    HW115166   7.586   2.772   1.978 -0.9257 -0.7401  1.4998
 4795SOL    HW215167   7.669   2.897   1.998 -0.4116 -0.5026 -1.5881
 4796SOL     OW15168   1.488   6.091   4.333 -0.1945 -0.3334 -0.1323
 4796SOL    HW115169   1.517   6.161   4.274 -1.7317 -0.3079 -0.8908
 4796SOL    HW215170   1.492   6.011   4.279 -0.3288 -0.5223  0.1366
 4797SOL     OW15171   1.293   1.998   0.485 -0.1241  0.4224 -0.0166
 4797SOL    HW115172   1.323   1.908   0.487 -1.0436  0.1020  1.8503
 4797SOL    HW215173   1.297   2.023   0.393 -1.1550 -1.9707 -0.7923
 4798SOL     OW15174   7.584   2.474   0.114  0.8024  0.2744 -0.3367
 4798SOL    HW115175   7.662   2.427   0.086  0.7412  0.0951 -0.2062
 4798SOL    HW215176   7.583   2.465   0.209  0.7787  0.5208 -0.3119
 4799SOL     OW15177   7.563   7.961   2.276 -0.5495 -0.2318 -0.1936
 4799SOL    HW115178   7.475   7.956   2.238 -0.4888  0.0484 -0.3755
 4799SOL    HW215179   7.610   8.022   2.219 -0.0842 -0.7821 -0.4084
 4800SOL     OW15180   4.888   5.691   2.824 -0.2419  0.2328 -0.0199
 4800SOL    HW115181   4.977   5.663   2.846 -0.5434 -1.3470 -0.6633
 4800SOL    HW215182   4.846   5.612   2.790 -1.7313  1.0831 -0.2412
 4801SOL     OW15183   0.583   2.193   1.620 -0.0049 -0.1196  0.3302
 4801SOL    HW115184   0.666   2.237   1.601 -0.5796  1.0530  0.4114
 4801SOL    HW215185   0.549   2.167   1.535 -0.0629  0.3698  0.2023
 4802SOL     OW15186   0.076   2.075   4.672  0.5151  0.2454 -0.1905
 4802SOL    HW115187   0.081   2.150   4.732  0.4394  0.1583 -0.0773
 4802SOL    HW215188  -0.015   2.073   4.643  0.7232  0.7507 -0.8956
 4803SOL     OW15189   3.043   7.443   0.492  0.1363 -0.4559 -0.1426
 4803SOL    HW115190   2.983   7.436   0.566  1.0528 -0.7205  0.6040
 4803SOL    HW215191   3.044   7.355   0.454  0.7476 -0.6954  0.4161
 4804SOL     OW15192   2.762   4.010   6.198  0.6185  0.1984  0.1842
 4804SOL    HW115193   2.814   4.039   6.123 -0.9300  1.2447 -0.5386
 4804SOL    HW215194   2.729   3.924   6.173 -1.1058  1.1625 -1.0266
 4805SOL     OW15195   7.491   6.596   8.093 -0.5363 -0.1342 -0.4698
 4805SOL    HW115196   7.488   6.500   8.100  0.1203 -0.1739 -0.6276
 4805SOL    HW215197   7.455   6.627   8.175 -2.6456 -0.4904 -1.2013
 4806SOL     OW15198   3.288   0.153   2.453  0.0329 -0.5858  0.4698
 4806SOL    HW115199   3.335   0.147   2.370 -0.4268 -1.9430  0.2824
 4806SOL    HW215200   3.309   0.240   2.486  0.4535 -0.1266 -0.9307
 4807SOL     OW15201   3.986   6.099   2.475  0.4869 -0.1200  0.2274
 4807SOL    HW115202   4.062   6.040   2.466  0.6174  0.2693 -1.3878
 4807SOL    HW215203   4.017   6.183   2.442 -0.6337  0.0504 -0.4265
 4808SOL     OW15204   6.450   3.383   5.117 -0.1308  0.0655  0.0374
 4808SOL    HW115205   6.518   3.319   5.137 -0.0641 -0.4580 -1.6918
 4808SOL    HW215206   6.423   3.363   5.028 -0.1042  2.4619 -0.5808
 4809SOL     OW15207   1.638   4.535   2.044  0.1646 -0.2383  0.4910
 4809SOL    HW115208   1.673   4.624   2.042  0.1763 -0.1323  2.7387
 4809SOL    HW215209   1.619   4.518   2.136 -3.2065 -1.2681 -0.2171
 4810SOL     OW15210   3.235   2.326   0.607 -0.2461 -0.2125 -0.2357
 4810SOL    HW115211   3.189   2.409   0.618 -1.1032 -0.4750 -1.5922
 4810SOL    HW215212   3.317   2.350   0.564 -0.5824 -0.0879 -0.8097
 4811SOL     OW15213   0.808   5.745   0.379 -0.6066  0.0103  0.1243
 4811SOL    HW115214   0.832   5.661   0.417 -2.1987 -0.4901  0.0891
 4811SOL    HW215215   0.865   5.809   0.423 -0.0638 -0.9605  0.8552
 4812SOL     OW15216   4.406   5.524   4.403 -0.2989  0.2442  0.3134
 4812SOL    HW115217   4.354   5.507   4.324  0.1746  1.1660 -0.2143
 4812SOL    HW215218   4.494   5.492   4.382 -0.6480 -1.4150  1.2460
 4813SOL     OW15219   5.191   6.849   6.243 -0.8417  0.2033  0.4009
 4813SOL    HW115220   5.207   6.832   6.150  0.1346 -1.6625  0.8739
 4813SOL    HW215221   5.254   6.917   6.266 -0.2849 -0.1626 -0.0288
 4814SOL     OW15222   5.061   1.358   0.497 -0.0222  0.5625  0.3998
 4814SOL    HW115223   5.105   1.371   0.581 -0.0801 -0.1157  0.5394
 4814SOL    HW215224   4.968   1.350   0.521 -0.1366  1.1836  0.1857
 4815SOL     OW15225   4.285   7.797   0.327  0.3238 -0.4575 -0.3298
 4815SOL    HW115226   4.357   7.781   0.388  0.5056 -3.7674 -1.2324
 4815SOL    HW215227   4.327   7.812   0.243 -0.0119  1.0762 -0.2521
 4816SOL     OW15228   6.811   8.139   4.876 -0.3195 -0.0778  0.2199
 4816SOL    HW115229   6.822   8.124   4.970 -0.7186  0.7313  0.3988
 4816SOL    HW215230   6.870   8.075   4.835  1.0392  0.5822  1.0518
 4817SOL     OW15231   8.225   4.268   7.171 -0.8066 -0.3939 -0.1159
 4817SOL    HW115232   8.162   4.217   7.222 -0.4059 -2.2207 -1.3469
 4817SOL    HW215233   8.178   4.291   7.090 -0.0426 -1.4596 -0.8844
 4818SOL     OW15234   2.263   0.645   5.032  0.1265 -0.0990  0.4981
 4818SOL    HW115235   2.281   0.552   5.051 -1.0927  0.2347  3.9695
 4818SOL    HW215236   2.167   0.650   5.027  0.2329  0.7565 -1.3367
 4819SOL     OW15237   7.936   2.637   5.350 -0.7694  0.0469  0.0105
 4819SOL    HW115238   7.897   2.637   5.263 -1.8426  0.0314  0.4750
 4819SOL    HW215239   7.932   2.728   5.378 -3.4885 -0.3576  1.3224
 4820SOL     OW15240   7.740   1.026   7.886  0.3706 -0.4754 -0.2825
 4820SOL    HW115241   7.806   0.989   7.945  0.5861 -2.8433 -1.8518
 4820SOL    HW215242   7.785   1.033   7.801 -0.7273  0.1328 -0.8420
 4821SOL     OW15243   2.669   7.810   4.269  0.1012  0.4687  0.3381
 4821SOL    HW115244   2.740   7.791   4.207 -2.5617  0.8292 -3.1477
 4821SOL    HW215245   2.648   7.725   4.307  0.3339 -0.2372 -1.0347
 4822SOL     OW15246   4.982   7.633   7.014  0.6487  0.0929 -0.5217
 4822SOL    HW115247   5.053   7.697   7.015  0.0273  0.7957  0.6376
 4822SOL    HW215248   4.909   7.678   6.972  0.7022 -0.4514 -1.2303
 4823SOL     OW15249   3.594   7.161   1.569 -0.2334  0.4192  0.2361
 4823SOL    HW115250   3.558   7.183   1.655 -1.2982 -0.4955  0.0390
 4823SOL    HW215251   3.571   7.070   1.555  1.4494  0.0306 -0.2853
 4824SOL     OW15252   0.318   7.899   0.386 -0.3667  0.1551  0.0382
 4824SOL    HW115253   0.244   7.956   0.365 -0.9627 -0.3626  0.7062
 4824SOL    HW215254   0.284   7.810   0.377  0.3881 -0.1023 -0.3922
 4825SOL     OW15255   3.734   7.573   3.624  0.1351  0.1229  0.4471
 4825SOL    HW115256   3.665   7.634   3.596 -0.3652 -1.0584 -1.0098
 4825SOL    HW215257   3.799   7.629   3.666 -0.9280  1.4835  0.3648
 4826SOL     OW15258   4.799   4.708   0.613  0.0147 -0.3369  0.6185
 4826SOL    HW115259   4.863   4.766   0.654 -0.6921  1.2126 -0.3747
 4826SOL    HW215260   4.786   4.745   0.525 -3.3234  0.3631  1.2476
 4827SOL     OW15261   2.316   7.421   7.678 -0.0467  0.2206 -0.1606
 4827SOL    HW115262   2.309   7.428   7.582  2.6151 -0.9306 -0.5441
 4827SOL    HW215263   2.340   7.508   7.706  0.7148  0.2209 -0.7685
 4828SOL     OW15264   0.510   7.687   6.440  0.5248 -0.1704 -0.4445
 4828SOL    HW115265   0.487   7.751   6.508  2.5702  1.0149 -0.7976
 4828SOL    HW215266   0.503   7.602   6.484 -0.3929  0.4019  0.5838
 4829SOL     OW15267   5.464   2.942   7.734 -0.3414 -0.1510  0.4067
 4829SOL    HW115268   5.530   2.887   7.777 -0.7710 -0.4874  0.6505
 4829SOL    HW215269   5.424   2.991   7.805 -0.0372  0.3943  0.2003
 4830SOL     OW15270   1.560   7.442   0.009 -0.3920  0.4383 -0.5711
 4830SOL    HW115271   1.600   7.362   0.044 -1.8507 -1.1074 -2.2036
 4830SOL    HW215272   1.602   7.454  -0.076  1.7871  3.0854  0.7230
 4831SOL     OW15273   3.185   2.096   1.748  0.0104 -0.3727 -0.5124
 4831SOL    HW115274   3.155   2.088   1.839  2.3180  0.0118  0.3591
 4831SOL    HW215275   3.229   2.181   1.745 -0.1385 -0.3201 -2.0460
 4832SOL     OW15276   1.598   3.054   3.832  0.2542 -0.0400 -0.0106
 4832SOL    HW115277   1.619   3.068   3.925  1.9467 -0.0403 -0.3574
 4832SOL    HW215278   1.579   2.960   3.826  0.3690 -0.0854  0.2980
 4833SOL     OW15279   8.198   4.186   3.035  0.0730 -0.5269  0.7918
 4833SOL    HW115280   8.127   4.244   3.062  1.8000  1.3827  1.5404
 4833SOL    HW215281   8.181   4.104   3.080 -1.4607 -0.0051  1.2110
 4834SOL     OW15282   2.003   5.229   5.845 -0.0593  0.2199 -0.4832
 4834SOL    HW115283   1.997   5.296   5.914  2.5693  1.8568 -1.7129
 4834SOL    HW215284   2.011   5.146   5.893 -0.0765  1.1171  1.1403
 4835SOL     OW15285   2.935   4.531   2.677  0.0367 -0.6675 -0.3938
 4835SOL    HW115286   3.028   4.510   2.670  0.7501  2.0958 -0.4191
 4835SOL    HW215287   2.928   4.578   2.760 -1.3715 -0.8837 -0.3704
 4836SOL     OW15288   1.930   0.401   3.201  0.5938 -0.9875  0.4931
 4836SOL    HW115289   1.885   0.395   3.286  0.4016  1.1903  0.5852
 4836SOL    HW215290   1.860   0.394   3.137  0.6636 -1.9685  0.5078
 4837SOL     OW15291   5.803   3.633   5.116  0.1094 -0.0747  0.0924
 4837SOL    HW115292   5.876   3.688   5.144  0.5224 -0.5619 -0.0293
 4837SOL    HW215293   5.735   3.648   5.183  0.7271 -0.4783  0.8313
 4838SOL     OW15294   5.415   0.611   4.421  0.0768 -0.7192 -0.0632
 4838SOL    HW115295   5.420   0.517   4.437 -1.4842 -0.6622  0.9822
 4838SOL    HW215296   5.393   0.650   4.505 -2.7480  0.1959 -1.0906
 4839SOL     OW15297   6.227   3.546   8.096 -0.0900  0.5586  0.1645
 4839SOL    HW115298   6.149   3.547   8.041  0.7267  2.2372 -1.0835
 4839SOL    HW215299   6.283   3.480   8.057 -0.3616  0.2648  0.2699
 4840SOL     OW15300   5.265   0.805   7.501  0.3659  0.3017  0.6189
 4840SOL    HW115301   5.239   0.858   7.425  0.8932  2.1411  1.6741
 4840SOL    HW215302   5.328   0.743   7.465 -2.2303 -1.5522 -1.1829
 4841SOL     OW15303   6.637   0.261   4.846  0.2033  0.6025  0.0747
 4841SOL    HW115304   6.715   0.206   4.860 -0.0909 -0.3010 -1.5707
 4841SOL    HW215305   6.617   0.251   4.753 -2.0542  0.5944  0.5035
 4842SOL     OW15306   6.888   1.059   0.958  0.1733 -0.1480 -0.5213
 4842SOL    HW115307   6.930   1.130   0.909  0.7161 -0.8487 -1.1031
 4842SOL    HW215308   6.908   0.980   0.907  0.6265 -0.8879  0.7538
 4843SOL     OW15309   5.690   7.827   5.780  0.2211  0.2096 -0.8732
 4843SOL    HW115310   5.601   7.792   5.782  0.3488 -0.1407  1.6912
 4843SOL    HW215311   5.746   7.753   5.804  0.9031  1.0901  0.3605
 4844SOL     OW15312   1.680   1.499   1.950  0.0114 -0.7953 -0.3464
 4844SOL    HW115313   1.676   1.421   1.896  0.1090 -1.7756  1.0067
 4844SOL    HW215314   1.658   1.469   2.038 -0.0122  0.7129  0.2005
 4845SOL     OW15315   0.945   1.739   2.839  0.0752  0.3667 -0.0962
 4845SOL    HW115316   1.002   1.816   2.831 -0.9960  1.1600 -0.3847
 4845SOL    HW215317   1.003   1.668   2.865  0.7091  1.8116  2.7375
 4846SOL     OW15318   6.706   5.639   5.575 -0.6070  0.0355 -0.3337
 4846SOL    HW115319   6.701   5.578   5.649  0.4050  1.8559  1.3242
 4846SOL    HW215320   6.641   5.606   5.513 -1.5425 -1.5362  1.3697
 4847SOL     OW15321   4.166   5.876   5.501  0.1746  0.3132 -0.0183
 4847SOL    HW115322   4.084   5.925   5.502  0.0829  0.2599 -1.6344
 4847SOL    HW215323   4.172   5.842   5.412  0.3754 -2.3947  0.9184
 4848SOL     OW15324   5.004   8.063   0.046 -0.7410  0.2350 -0.3524
 4848SOL    HW115325   5.002   8.145   0.096 -1.2474 -0.4377  0.7631
 4848SOL    HW215326   4.955   8.083  -0.034 -0.7661  1.0461 -0.1470
 4849SOL     OW15327   6.333   6.052   2.788  0.5599  0.0785  0.3799
 4849SOL    HW115328   6.375   6.091   2.864  0.1302  1.9942 -0.3155
 4849SOL    HW215329   6.359   6.108   2.715 -1.6261  0.2051 -0.3648
 4850SOL     OW15330   2.190   6.678   1.122  0.5570 -0.8615 -0.1894
 4850SOL    HW115331   2.115   6.691   1.064  1.2852  0.2517 -0.9331
 4850SOL    HW215332   2.160   6.705   1.208  0.5384  1.1783 -0.7797
 4851SOL     OW15333   6.616   5.701   2.822  0.0269  0.8048  0.1679
 4851SOL    HW115334   6.628   5.622   2.769 -0.9096 -0.2922  1.5308
 4851SOL    HW215335   6.680   5.763   2.787 -0.5936  0.1546 -2.2622
 4852SOL     OW15336   7.502   5.744   2.193 -0.0467  0.4118 -0.5509
 4852SOL    HW115337   7.509   5.789   2.109  1.6253  1.0863 -0.0879
 4852SOL    HW215338   7.571   5.678   2.191  1.7775  2.1052  1.2258
 4853SOL     OW15339   5.697   0.761   1.330  0.8262 -0.2659  0.5438
 4853SOL    HW115340   5.701   0.857   1.331 -0.4920 -0.1948  1.3596
 4853SOL    HW215341   5.781   0.734   1.293  0.8820  1.2254 -0.5185
 4854SOL     OW15342   8.206   3.870   0.819 -0.0824  0.4580  0.5265
 4854SOL    HW115343   8.236   3.895   0.732 -1.0825  0.6414  0.2218
 4854SOL    HW215344   8.160   3.787   0.807  0.2452  0.2084  0.9675
 4855SOL     OW15345   1.667   7.216   7.490 -0.0970  1.0439  0.0116
 4855SOL    HW115346   1.741   7.201   7.549 -0.1521  0.0578 -0.1522
 4855SOL    HW215347   1.685   7.302   7.451  1.3069  0.5424 -0.5010
 4856SOL     OW15348   0.359   7.454   6.605 -0.3763  0.3602 -0.7184
 4856SOL    HW115349   0.302   7.497   6.669 -0.4670 -1.7190  0.6866
 4856SOL    HW215350   0.440   7.435   6.653 -0.6134 -1.6492 -1.0010
 4857SOL     OW15351   4.494   3.040   1.456 -0.3425  0.0950 -0.1597
 4857SOL    HW115352   4.443   3.046   1.375 -1.5337  0.7816  0.6174
 4857SOL    HW215353   4.432   3.009   1.522  0.9806 -1.9786  0.2121
 4858SOL     OW15354   2.026   7.055   7.348 -0.0826 -0.1491  0.6686
 4858SOL    HW115355   2.071   7.070   7.431  1.9047 -1.6042 -0.0732
 4858SOL    HW215356   1.993   6.965   7.354 -1.9755  0.4914  0.7252
 4859SOL     OW15357   5.899   7.210   5.888 -0.0929  0.4132 -0.8013
 4859SOL    HW115358   5.831   7.271   5.859 -1.0054  1.0656  2.3360
 4859SOL    HW215359   5.850   7.132   5.915  0.6651 -0.0804 -0.8475
 4860SOL     OW15360   1.738   1.442   7.576  0.1742  0.5739  0.0578
 4860SOL    HW115361   1.751   1.533   7.550 -0.2123  0.8207  0.7022
 4860SOL    HW215362   1.689   1.447   7.658  1.1812 -0.1715  0.7425
 4861SOL     OW15363   3.940   1.371   1.811  0.1105  0.1664 -0.1884
 4861SOL    HW115364   3.895   1.426   1.746 -2.3932  0.6739  1.8086
 4861SOL    HW215365   3.869   1.320   1.851  1.9382 -2.1614  0.3004
 4862SOL     OW15366   6.199   2.740   5.997 -0.2273 -0.3099 -0.3610
 4862SOL    HW115367   6.263   2.785   5.941 -0.7749 -0.2490 -0.9481
 4862SOL    HW215368   6.139   2.698   5.936 -0.8142 -0.2788  0.1832
 4863SOL     OW15369   2.343   6.471   1.479  0.4175  0.0810  0.4969
 4863SOL    HW115370   2.353   6.539   1.546 -0.5019  0.8275 -0.1117
 4863SOL    HW215371   2.258   6.488   1.439  0.5751 -0.8777 -0.2945
 4864SOL     OW15372   6.075   3.015   1.281  0.5936  0.1666  0.4827
 4864SOL    HW115373   6.038   2.938   1.325  1.9034 -0.8229 -0.0636
 4864SOL    HW215374   6.042   3.009   1.191  2.1371 -0.8288 -0.0596
 4865SOL     OW15375   6.890   3.512   1.833 -0.5872 -0.1431  0.3971
 4865SOL    HW115376   6.798   3.495   1.851 -0.7368 -1.8228 -1.5966
 4865SOL    HW215377   6.932   3.511   1.919 -2.1211 -1.3971  1.1765
 4866SOL     OW15378   6.457   8.002   4.497  1.0013  0.0983  0.0391
 4866SOL    HW115379   6.548   8.024   4.475  1.2094  1.4235  2.0396
 4866SOL    HW215380   6.464   7.923   4.550  0.7797 -0.9849 -1.4801
 4867SOL     OW15381   6.983   5.935   5.402  0.2804  0.1150 -1.0660
 4867SOL    HW115382   6.891   5.949   5.377  0.4486  1.0606 -1.2155
 4867SOL    HW215383   7.017   5.874   5.336 -0.3037 -0.4419 -0.8563
 4868SOL     OW15384   8.178   5.860   5.918  0.0699 -0.6865 -0.0714
 4868SOL    HW115385   8.220   5.945   5.911  1.1116 -1.1600  0.2903
 4868SOL    HW215386   8.118   5.857   5.843  3.0129 -1.2665 -2.5978
 4869SOL     OW15387   2.044   7.065   6.722  0.4162 -0.4524  0.0068
 4869SOL    HW115388   2.076   6.982   6.686  0.8323 -0.2356 -0.1298
 4869SOL    HW215389   2.067   7.130   6.656  0.4627 -0.1672  0.3035
 4870SOL     OW15390   6.914   7.632   4.608 -0.0271  0.0607 -0.1151
 4870SOL    HW115391   6.928   7.716   4.564  2.1524  0.1361  0.5978
 4870SOL    HW215392   6.914   7.653   4.701 -0.0601 -0.6629  0.0585
 4871SOL     OW15393   6.717   3.785   3.259 -0.2809  0.1250 -0.6007
 4871SOL    HW115394   6.703   3.869   3.215 -2.9326  0.0403 -0.0658
 4871SOL    HW215395   6.811   3.770   3.252  0.0879  2.5191 -1.8150
 4872SOL     OW15396   3.201   0.879   2.962 -0.1757  0.4224  0.0642
 4872SOL    HW115397   3.126   0.840   2.916 -0.0767 -1.5561  1.4167
 4872SOL    HW215398   3.210   0.826   3.041  1.9788  1.3189  0.4916
 4873SOL     OW15399   5.840   2.099   7.408 -0.9077  0.0516  0.3274
 4873SOL    HW115400   5.863   2.027   7.349  0.5507 -0.4268  1.4149
 4873SOL    HW215401   5.775   2.150   7.359 -1.9405 -1.9356 -0.5150
 4874SOL     OW15402   2.137   5.035   4.587 -0.1117 -0.5626  0.2200
 4874SOL    HW115403   2.151   4.946   4.553  2.0602 -0.2343  0.0728
 4874SOL    HW215404   2.137   5.091   4.509 -2.7686 -0.4975  0.1923
 4875SOL     OW15405   6.143   6.959   2.003 -0.1622  0.0311 -0.4033
 4875SOL    HW115406   6.197   6.985   1.928  1.3455 -1.1738  0.1990
 4875SOL    HW215407   6.198   6.976   2.079 -0.0100 -2.5421  0.1503
 4876SOL     OW15408   4.181   5.509   2.065  0.1547 -0.0097 -0.2575
 4876SOL    HW115409   4.233   5.433   2.090  1.4830  1.4032  1.6146
 4876SOL    HW215410   4.209   5.529   1.976  2.4047  0.2985  0.4545
 4877SOL     OW15411   6.375   5.351   2.497  0.8776  0.2796 -0.1581
 4877SOL    HW115412   6.434   5.319   2.429  1.9554  1.8233 -0.0101
 4877SOL    HW215413   6.350   5.272   2.546  2.0321 -0.5471 -0.8435
 4878SOL     OW15414   2.797   4.471   4.016 -0.6829 -0.3369 -0.0791
 4878SOL    HW115415   2.729   4.537   4.003  0.5026  0.9906  0.2206
 4878SOL    HW215416   2.859   4.487   3.945  0.1185 -0.4821  0.5858
 4879SOL     OW15417   1.907   4.783   0.862  0.3898  0.4703 -0.0963
 4879SOL    HW115418   1.944   4.810   0.778 -0.4415 -0.5030 -0.8028
 4879SOL    HW215419   1.830   4.731   0.838 -0.9328  1.7145  1.3042
 4880SOL     OW15420   0.200   5.451   4.339  0.5251 -0.1540 -0.0605
 4880SOL    HW115421   0.291   5.449   4.368  0.3360 -0.5018  0.5326
 4880SOL    HW215422   0.185   5.365   4.300  0.2861 -0.3069  0.3666
 4881SOL     OW15423   5.788   7.763   5.121  0.3002  0.0651  0.1448
 4881SOL    HW115424   5.766   7.712   5.043 -0.8390  0.5679  0.1217
 4881SOL    HW215425   5.778   7.854   5.093 -1.3460  0.2404  1.2066
 4882SOL     OW15426   2.388   2.360   1.829 -0.3245 -0.0386 -0.3120
 4882SOL    HW115427   2.378   2.387   1.920 -2.2115  0.6679 -0.6777
 4882SOL    HW215428   2.482   2.351   1.816  0.0037  0.4512  1.5269
 4883SOL     OW15429   6.121   1.798   0.534 -0.0272 -0.5732 -0.2779
 4883SOL    HW115430   6.212   1.820   0.556 -0.3279 -0.0087  0.4196
 4883SOL    HW215431   6.114   1.704   0.554  0.3605 -0.5955 -0.2273
 4884SOL     OW15432   6.995   4.218   5.816 -0.1751  0.3330 -0.3648
 4884SOL    HW115433   6.978   4.136   5.862  0.7744 -0.3412 -1.1707
 4884SOL    HW215434   7.072   4.254   5.859 -0.2402  0.5052 -0.3915
 4885SOL     OW15435   2.028   4.090   6.638  0.1024  0.3137 -0.5134
 4885SOL    HW115436   2.019   4.127   6.550 -0.2471  0.4731 -0.4143
 4885SOL    HW215437   1.980   4.007   6.634 -0.7236  0.7605 -0.2212
 4886SOL     OW15438   6.538   2.129   4.053 -0.0336  0.1074  0.6760
 4886SOL    HW115439   6.552   2.050   4.001  0.6208  1.2271 -0.9551
 4886SOL    HW215440   6.580   2.110   4.137 -0.2226 -1.4033  0.4542
 4887SOL     OW15441   7.584   7.257   2.672  0.3490  0.0692  0.3802
 4887SOL    HW115442   7.633   7.229   2.594  0.5038  0.0943  0.4677
 4887SOL    HW215443   7.583   7.180   2.729  0.1840  0.0329  0.3270
 4888SOL     OW15444   0.342   1.011   0.627 -0.4587 -0.1931 -0.2349
 4888SOL    HW115445   0.343   1.019   0.532 -0.7375 -0.3369 -0.2515
 4888SOL    HW215446   0.361   0.918   0.643 -1.6955 -0.4488 -0.1942
 4889SOL     OW15447   2.645   1.718   4.180  0.3659  0.0656  0.9058
 4889SOL    HW115448   2.613   1.645   4.232 -1.9753  0.9932  0.8882
 4889SOL    HW215449   2.569   1.746   4.129  1.5302  1.7354  0.0019
 4890SOL     OW15450   3.454   2.353   7.133  0.4405  0.2868  0.0701
 4890SOL    HW115451   3.411   2.402   7.202  0.1865 -0.7061  0.6324
 4890SOL    HW215452   3.386   2.297   7.096  1.5544 -2.8572  2.3539
 4891SOL     OW15453   7.611   5.146   0.961 -0.3918 -0.4820 -0.2432
 4891SOL    HW115454   7.678   5.214   0.968 -2.1003  1.1101  1.5265
 4891SOL    HW215455   7.573   5.158   0.874  0.3161 -0.1548 -0.5132
 4892SOL     OW15456   2.174   7.842   8.157 -0.3187 -0.5540 -0.5398
 4892SOL    HW115457   2.117   7.919   8.162 -1.8771 -1.6970  0.0222
 4892SOL    HW215458   2.226   7.845   8.237 -1.2518 -0.7305  0.0841
 4893SOL     OW15459   6.022   4.788   6.269  0.1499 -0.0118  0.2285
 4893SOL    HW115460   6.014   4.852   6.340 -0.8106  0.5662 -0.3811
 4893SOL    HW215461   6.029   4.841   6.190  2.1080 -0.6336 -0.0619
 4894SOL     OW15462   0.567   0.834   7.232  0.4950 -0.4498 -0.3282
 4894SOL    HW115463   0.528   0.752   7.263  1.3299 -0.3036  1.2095
 4894SOL    HW215464   0.612   0.810   7.150  1.1152 -1.6464  0.3325
 4895SOL     OW15465   0.597   0.263   6.277  0.3963  0.1253  0.0324
 4895SOL    HW115466   0.662   0.309   6.224  0.6354 -0.9245 -0.6071
 4895SOL    HW215467   0.515   0.271   6.227  0.1386  0.9931  0.5789
 4896SOL     OW15468   6.502   3.499   1.359  0.0863  0.1374 -0.4719
 4896SOL    HW115469   6.408   3.480   1.368 -0.2552  1.4762 -0.9922
 4896SOL    HW215470   6.510   3.540   1.273  1.2981 -0.7501 -0.8020
 4897SOL     OW15471   1.778   3.220   1.316 -0.7251  0.2195 -0.1473
 4897SOL    HW115472   1.782   3.309   1.280 -0.0872  0.2583  0.0137
 4897SOL    HW215473   1.705   3.179   1.270 -0.5185  0.5680 -0.7923
 4898SOL     OW15474   2.754   1.421   2.624  0.1014 -0.0811 -0.0883
 4898SOL    HW115475   2.764   1.511   2.595 -1.6434  0.4892  0.9326
 4898SOL    HW215476   2.677   1.389   2.577  1.5101 -1.5503 -1.5209
 4899SOL     OW15477   3.993   5.051   5.237 -0.1401 -0.3136 -0.4659
 4899SOL    HW115478   3.900   5.026   5.242 -0.8087  2.0288  0.2051
 4899SOL    HW215479   4.038   4.985   5.289 -1.7442 -0.3495  0.9902
 4900SOL     OW15480   5.175   3.175   3.213 -0.1099  0.2346 -0.6266
 4900SOL    HW115481   5.086   3.179   3.177 -0.8240 -1.6059  0.7589
 4900SOL    HW215482   5.232   3.168   3.136 -1.3102 -0.2599 -1.4986
 4901SOL     OW15483   4.631   6.323   3.967  0.4979 -0.1086 -0.0499
 4901SOL    HW115484   4.609   6.396   3.909  1.5673 -0.2222 -0.6326
 4901SOL    HW215485   4.676   6.261   3.910 -0.0171 -1.0297  0.5393
 4902SOL     OW15486   7.485   7.313   3.038 -0.0995  0.3550  0.1297
 4902SOL    HW115487   7.416   7.328   2.973 -0.0693 -0.0200  0.0114
 4902SOL    HW215488   7.527   7.399   3.048  0.9157  0.1015 -1.5275
 4903SOL     OW15489   3.437   6.711   0.698  0.4751 -0.1877 -0.0002
 4903SOL    HW115490   3.458   6.651   0.627 -0.6113 -1.8890  1.0614
 4903SOL    HW215491   3.468   6.796   0.667  2.0254 -1.2583 -1.5582
 4904SOL     OW15492   5.239   7.270   2.100  0.0154 -0.5072 -0.0177
 4904SOL    HW115493   5.240   7.355   2.144  0.4576 -0.3536 -0.3194
 4904SOL    HW215494   5.146   7.250   2.090 -0.0901 -0.2139  0.3478
 4905SOL     OW15495   2.733   0.930   0.057  0.0049 -0.2589  0.2258
 4905SOL    HW115496   2.745   0.980  -0.024  0.2172  0.7905  0.8908
 4905SOL    HW215497   2.653   0.880   0.042 -0.0741  0.0773 -0.5510
 4906SOL     OW15498   1.161   4.616   2.236  0.2748 -0.3761  0.1755
 4906SOL    HW115499   1.212   4.548   2.281  1.5502  0.7526  0.4758
 4906SOL    HW215500   1.224   4.684   2.215  0.0173 -1.1779 -4.2238
 4907SOL     OW15501   6.787   1.065   1.707 -0.1657 -0.0315 -0.3027
 4907SOL    HW115502   6.778   0.971   1.696  1.0672 -0.2993  0.8325
 4907SOL    HW215503   6.805   1.078   1.800  0.2825  1.2754 -0.5406
 4908SOL     OW15504   4.063   6.114   1.932 -0.4751 -0.1817  0.1541
 4908SOL    HW115505   4.138   6.098   1.990  0.2660 -3.2039 -1.4431
 4908SOL    HW215506   4.103   6.125   1.845 -1.7796  0.6160 -0.3692
 4909SOL     OW15507   3.027   8.085   3.427  1.1765  0.2391  0.2911
 4909SOL    HW115508   3.075   8.145   3.369  0.7669  0.3960  0.1107
 4909SOL    HW215509   3.034   8.126   3.513 -1.1964  1.9240 -0.1967
 4910SOL     OW15510   6.041   3.330   6.362 -0.1769  0.2609  0.3094
 4910SOL    HW115511   6.068   3.256   6.416 -0.3754  0.5193  0.7711
 4910SOL    HW215512   5.990   3.386   6.421 -0.9198  0.2482 -0.3065
 4911SOL     OW15513   4.062   3.050   7.787 -0.5002 -0.6437 -0.1203
 4911SOL    HW115514   4.105   3.122   7.742 -0.7401  0.0219  0.6842
 4911SOL    HW215515   4.133   3.006   7.834 -0.6900  0.6995  1.5370
 4912SOL     OW15516   3.073   0.254   5.081 -0.4877  0.6878  0.3826
 4912SOL    HW115517   3.160   0.288   5.058 -0.4304  0.6304  0.5140
 4912SOL    HW215518   3.012   0.319   5.046 -0.4495  0.0355 -0.9507
 4913SOL     OW15519   8.273   6.582   3.294  0.1850 -0.3990 -0.2653
 4913SOL    HW115520   8.217   6.658   3.313 -0.2684 -0.9481  0.6814
 4913SOL    HW215521   8.352   6.598   3.345  0.9397  0.3856 -1.6193
 4914SOL     OW15522   8.024   0.907   0.867  0.0088  0.4101 -0.1310
 4914SOL    HW115523   8.083   0.956   0.810  1.4905 -0.1642  0.8487
 4914SOL    HW215524   8.035   0.946   0.953  1.7541 -1.9732  0.8348
 4915SOL     OW15525   8.318   2.702   5.197 -0.9459  0.5303 -0.1896
 4915SOL    HW115526   8.398   2.745   5.165 -0.2201 -0.2735  0.4865
 4915SOL    HW215527   8.290   2.756   5.271 -0.5933  0.4001  0.0438
 4916SOL     OW15528   0.573   4.408   1.158 -0.1800  0.3751  0.0310
 4916SOL    HW115529   0.561   4.346   1.085  2.4928 -1.5597  1.0704
 4916SOL    HW215530   0.643   4.467   1.128 -1.1341  1.5022 -0.0568
 4917SOL     OW15531   3.721   1.581   2.142  0.0531 -0.0632  0.0163
 4917SOL    HW115532   3.635   1.597   2.101 -0.6256  0.6588  1.6403
 4917SOL    HW215533   3.712   1.496   2.184 -0.4937  0.7428  1.6205
 4918SOL     OW15534   4.541   8.022   6.972 -0.1692 -0.3005 -0.2384
 4918SOL    HW115535   4.488   7.949   7.002 -0.3686 -0.1974 -0.3323
 4918SOL    HW215536   4.607   8.034   7.040 -0.6676 -0.0154  0.1992
 4919SOL     OW15537   0.536   1.627   6.191  0.1797  0.2691 -0.3214
 4919SOL    HW115538   0.535   1.579   6.108 -1.8557 -1.2097  0.4749
 4919SOL    HW215539   0.621   1.606   6.230  0.2328 -0.8685 -1.0095
 4920SOL     OW15540   7.759   3.405   0.774  0.1919  0.1121 -0.3308
 4920SOL    HW115541   7.665   3.415   0.760  0.0037  1.2808  1.5239
 4920SOL    HW215542   7.774   3.311   0.766 -1.5790 -0.4186  1.7261
 4921SOL     OW15543   4.011   0.057   2.736  0.2036  0.8113 -0.1964
 4921SOL    HW115544   4.106   0.045   2.726  0.0258 -2.1622  0.7417
 4921SOL    HW215545   3.992   0.136   2.685  3.3990  2.5293  0.9698
 4922SOL     OW15546   6.701   7.272   4.516 -0.5784 -0.6085 -0.0166
 4922SOL    HW115547   6.608   7.268   4.536 -0.5191 -0.7510  0.2418
 4922SOL    HW215548   6.743   7.222   4.586 -0.4368 -1.9052 -0.9863
 4923SOL     OW15549   8.280   3.034   0.201 -0.0804 -0.6020  0.1739
 4923SOL    HW115550   8.187   3.051   0.217 -0.1881 -1.4263  0.4335
 4923SOL    HW215551   8.325   3.105   0.247 -0.6261  1.0194 -1.6398
 4924SOL     OW15552   6.331   3.726   2.058  0.0404  0.1419 -0.1349
 4924SOL    HW115553   6.330   3.634   2.033 -0.0211  0.0040  0.3625
 4924SOL    HW215554   6.245   3.759   2.032 -1.2250 -0.7433  2.5469
 4925SOL     OW15555   6.645   1.581   7.164  0.0087 -0.0623  0.2075
 4925SOL    HW115556   6.647   1.491   7.132 -3.3644  0.2586 -1.3354
 4925SOL    HW215557   6.602   1.575   7.249  0.2355  0.0621  0.3334
 4926SOL     OW15558   6.191   7.187   0.222  0.2275  0.4715 -0.2797
 4926SOL    HW115559   6.155   7.116   0.276  2.1556 -0.1317  0.3128
 4926SOL    HW215560   6.204   7.259   0.284  0.6287  0.4549 -0.3440
 4927SOL     OW15561   7.957   0.090   5.583 -0.5694  0.5487  0.2891
 4927SOL    HW115562   8.002   0.027   5.639 -0.3868  0.6441  0.2486
 4927SOL    HW215563   7.883   0.121   5.637  0.5117  1.8434  1.1119
 4928SOL     OW15564   5.722   4.062   7.105 -0.1059  0.5446 -0.1373
 4928SOL    HW115565   5.630   4.036   7.097  0.2585 -0.3219 -2.2159
 4928SOL    HW215566   5.768   3.983   7.133  0.0356  0.9564  0.8303
 4929SOL     OW15567   1.989   8.216   6.507  0.4140  0.1294 -0.6404
 4929SOL    HW115568   1.992   8.133   6.554  3.3014  1.7821  2.5766
 4929SOL    HW215569   2.009   8.193   6.416 -0.2242 -2.7885 -0.1212
 4930SOL     OW15570   1.324   5.721   2.224 -0.4765 -0.1433 -0.3562
 4930SOL    HW115571   1.335   5.797   2.281 -0.3938 -0.7988  0.5123
 4930SOL    HW215572   1.253   5.746   2.165  0.8312  1.3505 -1.3675
 4931SOL     OW15573   7.672   5.856   3.959  0.0061  0.2349 -0.1809
 4931SOL    HW115574   7.591   5.906   3.948  0.3651  0.8616 -0.0212
 4931SOL    HW215575   7.742   5.916   3.932  0.4968  0.0577  0.6620
 4932SOL     OW15576   4.567   5.369   7.873  0.1379 -0.4730 -0.2890
 4932SOL    HW115577   4.556   5.356   7.779 -0.4407  0.1983 -0.3212
 4932SOL    HW215578   4.500   5.433   7.897  1.8370  1.2310  0.1448
 4933SOL     OW15579   7.452   4.365   4.765  0.5930  0.1894  0.0890
 4933SOL    HW115580   7.474   4.356   4.673  2.1886 -0.0048  0.4631
 4933SOL    HW215581   7.399   4.287   4.785 -0.4167  0.6229 -0.8185
 4934SOL     OW15582   6.500   4.923   3.540  0.0783  0.1117 -0.0291
 4934SOL    HW115583   6.433   4.863   3.574  0.8882 -0.0117  1.4448
 4934SOL    HW215584   6.535   4.966   3.618 -0.3500  2.4169 -1.0101
 4935SOL     OW15585   7.945   3.131   6.455  0.1155  0.1345 -0.2697
 4935SOL    HW115586   8.010   3.107   6.520  2.0438  2.2410 -1.2754
 4935SOL    HW215587   7.922   3.221   6.476 -0.3157  0.3601 -1.6188
 4936SOL     OW15588   5.113   4.696   4.642  0.4850 -0.5045  0.5505
 4936SOL    HW115589   5.203   4.715   4.615  1.2083 -2.9976  0.9610
 4936SOL    HW215590   5.113   4.712   4.736 -0.4614  2.5389  0.1628
 4937SOL     OW15591   6.034   5.872   1.487  0.2188 -0.0330 -0.4765
 4937SOL    HW115592   6.089   5.862   1.564 -0.4179 -0.4030 -0.0602
 4937SOL    HW215593   5.949   5.835   1.513 -0.5453  1.4156 -0.7662
 4938SOL     OW15594   6.990   4.683   3.344  0.2893 -0.2715 -0.0009
 4938SOL    HW115595   7.023   4.648   3.261  0.6164  0.1545 -0.0512
 4938SOL    HW215596   7.047   4.645   3.411 -0.4891 -1.2916  0.1247
 4939SOL     OW15597   2.083   1.693   3.952 -0.3268 -0.3950 -0.3510
 4939SOL    HW115598   2.031   1.709   4.031 -0.1646  0.3317 -0.3780
 4939SOL    HW215599   2.145   1.767   3.949  0.1196 -0.7799 -0.7897
 4940SOL     OW15600   6.505   2.575   4.236 -0.2313  0.5748  0.2914
 4940SOL    HW115601   6.413   2.560   4.260 -0.6298  1.3021 -0.6799
 4940SOL    HW215602   6.500   2.636   4.162  0.8949 -1.4754 -1.6077
 4941SOL     OW15603   1.647   7.006   5.619  0.3773 -0.5515 -0.3440
 4941SOL    HW115604   1.613   7.017   5.531 -1.6576  0.2358  0.4966
 4941SOL    HW215605   1.654   6.911   5.631  1.0990 -0.6591 -1.4667
 4942SOL     OW15606   5.489   6.050   5.887  0.1537 -0.0609  0.3226
 4942SOL    HW115607   5.517   6.116   5.951  0.3241  0.5604 -0.3843
 4942SOL    HW215608   5.556   6.052   5.819 -0.0700 -0.6640  0.0762
 4943SOL     OW15609   1.693   3.352   2.814  0.6872  0.3544  0.4661
 4943SOL    HW115610   1.669   3.264   2.843 -2.1436  0.3055 -1.6108
 4943SOL    HW215611   1.663   3.410   2.883 -1.0636 -0.0846  0.1074
 4944SOL     OW15612   3.212   0.624   5.640  0.0443  0.2829  0.3399
 4944SOL    HW115613   3.260   0.586   5.567 -1.0138  0.4052 -0.4538
 4944SOL    HW215614   3.188   0.548   5.694 -1.5644 -0.1750 -0.9371
 4945SOL     OW15615   4.734   1.913   0.972 -0.0350 -0.0360  0.5127
 4945SOL    HW115616   4.676   1.901   1.047  0.7406  1.0638  1.3190
 4945SOL    HW215617   4.732   2.008   0.955  3.3235  0.4378  2.0847
 4946SOL     OW15618   2.765   5.277   7.039  0.5795 -0.0460 -0.2825
 4946SOL    HW115619   2.716   5.304   7.116  2.3548  0.8607  0.5752
 4946SOL    HW215620   2.850   5.319   7.048  1.6872 -1.8749 -1.5076
 4947SOL     OW15621   8.182   0.983   3.876 -0.0923  0.0293  0.2764
 4947SOL    HW115622   8.178   0.950   3.966 -2.1580 -0.0069  0.2257
 4947SOL    HW215623   8.188   1.078   3.885 -2.7727  0.2515  0.5552
 4948SOL     OW15624   1.910   6.069   6.147  0.4275 -0.0327  0.7520
 4948SOL    HW115625   1.876   6.145   6.195 -0.2964 -0.8545  1.5953
 4948SOL    HW215626   1.848   6.057   6.075 -0.3833 -0.7634  1.5484
 4949SOL     OW15627   7.997   7.804   2.328 -0.2215  0.3158  0.4603
 4949SOL    HW115628   8.024   7.805   2.236 -0.7065 -1.0570  0.2702
 4949SOL    HW215629   8.034   7.722   2.362 -1.0367  0.2276  1.1574
 4950SOL     OW15630   5.632   5.534   7.010  0.2383  0.1238 -0.1099
 4950SOL    HW115631   5.629   5.532   7.105  1.5359  1.1431 -0.0187
 4950SOL    HW215632   5.724   5.551   6.989  0.1359 -0.8993 -1.5708
 4951SOL     OW15633   5.878   7.250   1.439  0.1897 -0.5869 -0.0116
 4951SOL    HW115634   5.805   7.290   1.486  0.2024  0.9700 -1.2019
 4951SOL    HW215635   5.956   7.274   1.490 -0.0960 -2.3037  1.2940
 4952SOL     OW15636   3.796   0.466   6.615  0.4291  0.3846 -0.3398
 4952SOL    HW115637   3.783   0.450   6.522  1.9049 -0.1473 -0.4813
 4952SOL    HW215638   3.801   0.378   6.654  1.5776  0.5542 -0.0524
 4953SOL     OW15639   1.110   5.183   2.818 -0.1299 -0.1806  0.0785
 4953SOL    HW115640   1.092   5.188   2.724 -2.9405 -3.5161  0.2362
 4953SOL    HW215641   1.076   5.266   2.852 -2.5520 -0.3950 -1.5193
 4954SOL     OW15642   1.367   0.266   7.814 -0.0970  0.4300  0.2255
 4954SOL    HW115643   1.359   0.231   7.903 -0.0446 -0.8866 -0.2684
 4954SOL    HW215644   1.420   0.346   7.824  1.4155 -0.6394  1.1612
 4955SOL     OW15645   6.137   7.287   0.499 -0.4814 -0.5075 -0.4511
 4955SOL    HW115646   6.168   7.377   0.508  1.3390 -1.1417  0.2209
 4955SOL    HW215647   6.147   7.250   0.587 -0.1416 -1.6632 -0.9531
 4956SOL     OW15648   0.446   7.178   5.228 -0.0591 -0.0607  0.1860
 4956SOL    HW115649   0.508   7.244   5.257  1.4946 -1.8231  1.0807
 4956SOL    HW215650   0.475   7.154   5.140  1.5852 -1.9585  1.1586
 4957SOL     OW15651   3.273   6.670   7.961 -0.4619 -0.0638  0.2325
 4957SOL    HW115652   3.331   6.617   8.016  3.8727  1.6101 -2.2241
 4957SOL    HW215653   3.241   6.609   7.894  1.1323 -0.5020 -0.1800
 4958SOL     OW15654   0.941   1.227   5.573 -0.7337 -0.4221  0.5855
 4958SOL    HW115655   0.933   1.173   5.651  1.8452  0.5308  1.6174
 4958SOL    HW215656   1.019   1.280   5.588 -0.6305  0.4207 -2.2943
 4959SOL     OW15657   2.600   5.961   4.038 -0.0354 -0.8382  0.4613
 4959SOL    HW115658   2.665   5.895   4.015  0.4180 -0.0296 -0.6516
 4959SOL    HW215659   2.516   5.921   4.014  0.3497 -0.3800 -1.9480
 4960SOL     OW15660   3.160   0.871   5.046 -0.7811 -0.3798  0.3156
 4960SOL    HW115661   3.077   0.853   5.003 -1.2649 -0.5383  1.3006
 4960SOL    HW215662   3.216   0.797   5.023 -1.5192 -1.2268  1.1958
 4961SOL     OW15663   3.946   2.741   4.857  0.2627  0.4121 -0.2648
 4961SOL    HW115664   3.988   2.655   4.852 -1.9287 -0.8465  1.2067
 4961SOL    HW215665   3.993   2.794   4.793  5.0751 -0.3004  2.2495
 4962SOL     OW15666   6.846   7.200   2.449 -0.3556 -0.2377 -0.2385
 4962SOL    HW115667   6.884   7.113   2.460 -0.7669 -0.5259 -1.0056
 4962SOL    HW215668   6.844   7.213   2.354  1.3330  1.3360 -0.1217
 4963SOL     OW15669   6.350   5.143   5.972  0.2736  0.3024  0.0141
 4963SOL    HW115670   6.350   5.059   6.020  0.2521  0.5252  0.4107
 4963SOL    HW215671   6.257   5.162   5.958  0.2669  0.4447  0.2526
 4964SOL     OW15672   4.488   3.831   6.284 -0.0366 -0.9722  0.5962
 4964SOL    HW115673   4.397   3.816   6.259 -0.0936  1.1887 -0.7758
 4964SOL    HW215674   4.489   3.920   6.319  1.4696 -1.1353  1.0614
 4965SOL     OW15675   0.162   3.647   0.002  0.5213  0.2408  0.3345
 4965SOL    HW115676   0.173   3.553  -0.010  1.0944  0.3155  0.2324
 4965SOL    HW215677   0.156   3.682  -0.087  3.7786  0.6806  0.1761
 4966SOL     OW15678   0.678   2.484   2.424 -0.6711 -0.2250 -0.1649
 4966SOL    HW115679   0.719   2.429   2.359 -0.4386  1.0468 -1.1360
 4966SOL    HW215680   0.646   2.423   2.491  2.5362 -1.3195  0.5473
 4967SOL     OW15681   0.835   0.114   5.068 -0.0402  0.3769  0.1971
 4967SOL    HW115682   0.762   0.062   5.034 -0.8921  1.4346  0.3334
 4967SOL    HW215683   0.826   0.107   5.164  0.6706 -0.3341  0.2153
 4968SOL     OW15684   0.250   3.112   3.212 -0.0297 -0.3816 -0.5244
 4968SOL    HW115685   0.306   3.059   3.155 -0.4748 -0.5455 -0.8158
 4968SOL    HW215686   0.291   3.199   3.212  0.8840 -0.7978  0.2176
 4969SOL     OW15687   4.715   4.410   3.362  0.4427  0.2665 -0.4210
 4969SOL    HW115688   4.666   4.331   3.384 -0.1390  0.5172 -0.7645
 4969SOL    HW215689   4.756   4.391   3.278  1.9043 -0.3565  0.3928
 4970SOL     OW15690   7.621   5.462   5.003 -0.3962  0.2803 -0.0904
 4970SOL    HW115691   7.597   5.397   5.069  0.2898 -0.4293 -0.5047
 4970SOL    HW215692   7.645   5.540   5.052  0.5630 -0.3903  0.5331
 4971SOL     OW15693   7.891   2.325   2.253  0.5181 -0.2637 -0.0292
 4971SOL    HW115694   7.919   2.393   2.315  0.2629 -0.0918 -0.1007
 4971SOL    HW215695   7.817   2.364   2.207  1.0566 -0.1860 -0.8355
 4972SOL     OW15696   0.619   1.203   5.792 -0.0874  0.0217  0.1265
 4972SOL    HW115697   0.669   1.149   5.854  1.2659  0.0565 -0.8828
 4972SOL    HW215698   0.532   1.210   5.831  0.0754 -1.7885  0.9444
 4973SOL     OW15699   5.398   1.859   1.625 -0.1528  0.4603  0.6244
 4973SOL    HW115700   5.396   1.939   1.677  3.2216  0.1316  1.4826
 4973SOL    HW215701   5.485   1.857   1.586 -1.2481 -1.2543 -2.0149
 4974SOL     OW15702   0.626   2.114   2.256  0.6491 -0.0659 -0.2334
 4974SOL    HW115703   0.633   2.022   2.231 -0.0616 -0.2090  0.0731
 4974SOL    HW215704   0.608   2.112   2.350  0.4501  0.3825 -0.2605
 4975SOL     OW15705   4.075   5.131   4.799  0.0364 -0.2799 -0.0146
 4975SOL    HW115706   4.001   5.177   4.838 -0.0946  1.0129 -1.6889
 4975SOL    HW215707   4.151   5.186   4.820  0.1090 -0.1165 -0.6944
 4976SOL     OW15708   2.701   3.462   3.152  0.5213  0.1203  0.7783
 4976SOL    HW115709   2.744   3.464   3.238  0.1707  1.1338  0.9397
 4976SOL    HW215710   2.607   3.460   3.173  0.3690  2.2019  0.4331
 4977SOL     OW15711   0.101   6.081   7.504  0.4200  0.6281  0.1323
 4977SOL    HW115712   0.059   6.117   7.426  1.3452 -1.4631 -1.4298
 4977SOL    HW215713   0.029   6.063   7.564 -0.7667 -0.9893 -1.6647
 4978SOL     OW15714   7.603   7.118   3.483 -0.1401  0.5313  0.1847
 4978SOL    HW115715   7.552   7.114   3.402  0.7248  0.6555 -0.3806
 4978SOL    HW215716   7.592   7.208   3.514  0.3297  0.7711 -0.3347
 4979SOL     OW15717   6.846   7.803   3.264  0.3248 -0.0524 -0.3249
 4979SOL    HW115718   6.901   7.818   3.187 -0.2119 -1.1656 -0.9424
 4979SOL    HW215719   6.782   7.874   3.263  0.6968  0.2790 -0.5624
 4980SOL     OW15720   3.141   1.373   1.752  0.1807  0.1481 -0.0500
 4980SOL    HW115721   3.170   1.424   1.829 -2.3999 -1.2392  2.0010
 4980SOL    HW215722   3.079   1.431   1.707 -0.8426 -0.2118  0.8577
 4981SOL     OW15723   2.389   3.730   3.607  0.2160 -0.1033  0.2695
 4981SOL    HW115724   2.460   3.678   3.568  0.1103 -1.8306  2.2234
 4981SOL    HW215725   2.309   3.688   3.575  0.1291 -0.7110  1.2355
 4982SOL     OW15726   4.856   1.211   5.229  0.1302  0.3231  0.3719
 4982SOL    HW115727   4.788   1.237   5.292 -0.4446  0.6400 -0.3708
 4982SOL    HW215728   4.884   1.125   5.259  1.0233  1.1304  2.0205
 4983SOL     OW15729   5.445   5.664   0.914  0.1297  0.4343  0.6182
 4983SOL    HW115730   5.500   5.742   0.920 -0.7569  1.0408  1.2305
 4983SOL    HW215731   5.481   5.604   0.979  0.1240  0.7986  0.9635
 4984SOL     OW15732   0.979   8.104   6.202  0.1683  0.5071 -0.1733
 4984SOL    HW115733   1.032   8.034   6.165 -0.0218 -0.8533  1.9476
 4984SOL    HW215734   0.973   8.083   6.296 -0.3989  3.0455  0.4403
 4985SOL     OW15735   7.369   1.360   4.817 -0.5438 -0.0500 -0.0426
 4985SOL    HW115736   7.334   1.294   4.757  1.2733  1.1639 -2.6433
 4985SOL    HW215737   7.419   1.419   4.760  0.8859  1.5027  2.6540
 4986SOL     OW15738   1.032   5.358   0.312 -0.2050 -0.0075  0.1964
 4986SOL    HW115739   1.033   5.271   0.353 -0.0547  0.4477  1.1829
 4986SOL    HW215740   0.944   5.392   0.332 -0.4540 -0.1285 -0.6387
 4987SOL     OW15741   3.589   5.210   4.969 -0.1447 -0.1609 -0.6604
 4987SOL    HW115742   3.642   5.238   5.044  1.4142  1.7676 -2.3575
 4987SOL    HW215743   3.596   5.283   4.907 -0.8392 -1.9491 -2.9535
 4988SOL     OW15744   2.371   7.027   7.416  0.3649 -0.3814  0.3462
 4988SOL    HW115745   2.394   6.972   7.490 -0.0426  0.3899  1.0562
 4988SOL    HW215746   2.434   7.002   7.348 -0.6716 -2.7390  0.1257
 4989SOL     OW15747   5.145   0.108   6.911  0.1727  0.1025 -0.4545
 4989SOL    HW115748   5.133   0.194   6.951  0.5461 -0.2850  0.5272
 4989SOL    HW215749   5.226   0.074   6.950 -0.2186 -0.8931 -0.4693
 4990SOL     OW15750   3.749   3.657   2.617  0.7580 -0.0096 -0.3755
 4990SOL    HW115751   3.693   3.652   2.694 -0.0825  0.5984 -0.9291
 4990SOL    HW215752   3.814   3.724   2.639  1.4662 -0.9292  0.3830
 4991SOL     OW15753   4.128   6.516   2.643  0.3211 -0.4368  0.3412
 4991SOL    HW115754   4.202   6.537   2.586  0.2474 -0.2255  0.3233
 4991SOL    HW215755   4.151   6.432   2.683  0.6397 -0.2926  0.4570
 4992SOL     OW15756   7.831   4.196   8.318 -0.0656 -0.4121 -0.4537
 4992SOL    HW115757   7.910   4.144   8.331  0.7603  0.6783 -1.0096
 4992SOL    HW215758   7.824   4.249   8.397 -0.4040 -0.7110 -0.2812
 4993SOL     OW15759   2.291   0.952   1.369 -0.2570  0.2530  0.1516
 4993SOL    HW115760   2.245   0.868   1.365 -1.3137  0.6206  2.5301
 4993SOL    HW215761   2.348   0.945   1.446  1.0775  1.0700 -0.7210
 4994SOL     OW15762   6.852   6.481   3.867  0.4965  0.6699  0.2956
 4994SOL    HW115763   6.945   6.503   3.871  1.1460 -1.6683 -0.1661
 4994SOL    HW215764   6.850   6.389   3.841 -2.0222  1.1360 -1.5902
 4995SOL     OW15765   6.781   6.399   3.504  0.0774  0.0814  0.0120
 4995SOL    HW115766   6.737   6.484   3.510  2.5925  1.4515  0.6092
 4995SOL    HW215767   6.808   6.393   3.412 -1.1811 -0.7191 -0.3346
 4996SOL     OW15768   8.094   4.557   4.688 -0.2457  0.1612 -0.3087
 4996SOL    HW115769   8.012   4.551   4.639 -0.5679 -2.8614  0.4061
 4996SOL    HW215770   8.163   4.541   4.623 -0.5281 -1.4454 -0.2535
 4997SOL     OW15771   6.005   6.036   2.492  0.6778 -0.3518  0.1599
 4997SOL    HW115772   5.938   5.975   2.461  0.7598  0.4452 -1.6942
 4997SOL    HW215773   6.087   6.000   2.458  0.9893 -0.3353  0.8712
 4998SOL     OW15774   2.432   5.150   6.685 -0.2097 -0.1099 -0.4610
 4998SOL    HW115775   2.429   5.220   6.750 -0.5578  0.9266 -1.5646
 4998SOL    HW215776   2.503   5.093   6.714  0.2529  0.8383  0.3014
 4999SOL     OW15777   1.553   1.206   6.935 -0.3128  0.7691  0.2405
 4999SOL    HW115778   1.540   1.297   6.910  0.0465  1.1701  1.4155
 4999SOL    HW215779   1.501   1.155   6.873 -1.2747  1.8400  0.1461
 5000SOL     OW15780   0.680   5.977   2.633 -0.1779  0.2548 -0.1635
 5000SOL    HW115781   0.635   6.061   2.628  0.3236  0.5565  0.4181
 5000SOL    HW215782   0.617   5.915   2.595 -0.3128  0.9728 -1.1481
 5001SOL     OW15783   5.092   8.316   7.948  0.1602  0.1220 -0.0909
 5001SOL    HW115784   5.052   8.331   8.033  0.1039 -1.1987  0.1312
 5001SOL    HW215785   5.184   8.298   7.967  0.1993  0.0604 -0.3276
 5002SOL     OW15786   0.003   2.599   1.060 -0.2564 -0.3577 -0.7029
 5002SOL    HW115787  -0.084   2.567   1.034 -0.5205 -1.0009  0.8512
 5002SOL    HW215788  -0.005   2.617   1.154  1.0480  0.4342 -0.7208
 5003SOL     OW15789   1.011   7.353   2.787  0.1196  0.8227  0.0698
 5003SOL    HW115790   0.925   7.391   2.770  0.4037  1.3448 -0.2148
 5003SOL    HW215791   1.054   7.416   2.844  0.4886  0.8019 -0.1821
 5004SOL     OW15792   4.086   1.686   0.196  0.9063 -0.4076  0.4343
 5004SOL    HW115793   4.082   1.778   0.173  1.2421 -0.4933  0.0130
 5004SOL    HW215794   4.157   1.651   0.143  1.8819 -0.5705  1.7878
 5005SOL     OW15795   3.078   3.983   4.798 -0.5652  0.8041  0.1140
 5005SOL    HW115796   3.130   3.946   4.727 -0.7091  1.1268 -0.1588
 5005SOL    HW215797   3.009   4.033   4.755 -1.3418  0.0655  0.4690
 5006SOL     OW15798   5.230   7.732   1.829 -0.2408 -0.0516 -0.4688
 5006SOL    HW115799   5.258   7.672   1.760 -0.7959 -0.1017 -0.6481
 5006SOL    HW215800   5.264   7.818   1.801  2.5424 -0.5967  0.8843
 5007SOL     OW15801   0.288   6.859   1.187  0.0230  0.1947  0.5928
 5007SOL    HW115802   0.363   6.801   1.198  0.3341  0.3222 -0.7529
 5007SOL    HW215803   0.254   6.839   1.100 -1.5875  0.0575  1.2124
 5008SOL     OW15804   7.086   0.993   5.075 -0.4127  0.1050 -0.1444
 5008SOL    HW115805   7.176   1.025   5.086  0.6847 -1.8380 -2.6860
 5008SOL    HW215806   7.032   1.059   5.120  2.1111  2.2948 -0.0839
 5009SOL     OW15807   5.738   6.728   0.262  0.0797  0.4233  0.1223
 5009SOL    HW115808   5.758   6.712   0.169  0.7795  1.6788  0.0340
 5009SOL    HW215809   5.755   6.645   0.305  2.0601  0.4503 -0.5245
 5010SOL     OW15810   7.819   7.862   1.721  0.3688  0.5094 -0.2739
 5010SOL    HW115811   7.764   7.862   1.799  1.0536  1.1061  0.2189
 5010SOL    HW215812   7.760   7.885   1.650 -0.2774 -0.1001  0.0485
 5011SOL     OW15813   8.221   3.728   6.229  0.5726 -0.3210  0.1412
 5011SOL    HW115814   8.267   3.792   6.284  0.4518 -0.4129  0.3495
 5011SOL    HW215815   8.286   3.701   6.164  0.5222  0.2673 -0.1619
 5012SOL     OW15816   3.408   0.170   1.599  0.2684  0.0795  0.2515
 5012SOL    HW115817   3.415   0.252   1.550 -0.5533 -0.5536 -0.9536
 5012SOL    HW215818   3.332   0.182   1.656 -0.7083 -0.3492 -0.9405
 5013SOL     OW15819   2.952   2.155   5.596  0.5214  0.3379  0.2859
 5013SOL    HW115820   2.882   2.131   5.535  0.1074  1.2480  0.3792
 5013SOL    HW215821   2.905   2.191   5.672  1.0564 -0.0639  0.8129
 5014SOL     OW15822   5.023   0.525   0.227 -0.6208  0.0408 -0.1638
 5014SOL    HW115823   5.115   0.548   0.238 -0.9208  0.8484  0.8315
 5014SOL    HW215824   5.021   0.473   0.147  0.5601  0.8333 -0.7438
 5015SOL     OW15825   5.822   1.580   2.720  0.5858 -0.9911 -0.5563
 5015SOL    HW115826   5.768   1.506   2.694  0.1487 -0.6728 -0.5712
 5015SOL    HW215827   5.911   1.545   2.726  0.2799 -1.6677  0.1037
 5016SOL     OW15828   7.943   7.390   8.214 -0.2521  0.0650  0.9154
 5016SOL    HW115829   8.007   7.324   8.239 -0.1010 -0.0484  0.2339
 5016SOL    HW215830   7.947   7.393   8.119 -1.6742 -0.3564  0.8303
 5017SOL     OW15831   3.990   4.357   2.944  0.4902 -0.8942 -0.2465
 5017SOL    HW115832   3.923   4.373   3.010  2.1239 -0.6616  1.4377
 5017SOL    HW215833   3.950   4.386   2.862 -0.5265  1.7916  1.0682
 5018SOL     OW15834   3.109   0.128   6.948 -0.0887 -0.0766 -0.2508
 5018SOL    HW115835   3.200   0.158   6.945 -0.1524  0.1234 -0.2144
 5018SOL    HW215836   3.082   0.141   7.039 -0.6876  1.4886 -0.6144
 5019SOL     OW15837   6.239   2.878   0.689 -0.4302 -0.3516  0.3271
 5019SOL    HW115838   6.258   2.873   0.782  0.4584 -1.5295  0.1176
 5019SOL    HW215839   6.145   2.895   0.683 -0.1464  1.9691  1.4253
 5020SOL     OW15840   1.799   5.881   7.599  0.3271  0.2930  0.0512
 5020SOL    HW115841   1.822   5.952   7.658 -1.4274  0.0830  1.0652
 5020SOL    HW215842   1.792   5.922   7.512 -0.5497  1.3656  0.6015
 5021SOL     OW15843   2.158   7.272   1.439 -0.5040 -0.4547  0.2243
 5021SOL    HW115844   2.228   7.335   1.457 -0.9037 -0.0399  0.3649
 5021SOL    HW215845   2.192   7.188   1.470  0.3306 -0.4530 -0.6396
 5022SOL     OW15846   4.997   2.260   1.735 -0.7439 -0.0271  0.1124
 5022SOL    HW115847   4.944   2.203   1.791 -1.4122  0.1966 -0.2752
 5022SOL    HW215848   4.935   2.325   1.702  0.0696  1.1084  0.7727
 5023SOL     OW15849   0.315   6.938   5.315 -0.3448 -0.5827 -0.1692
 5023SOL    HW115850   0.360   7.018   5.287 -0.9418 -0.1961 -0.0434
 5023SOL    HW215851   0.380   6.892   5.368 -0.5543  0.7128  1.3266
 5024SOL     OW15852   7.946   5.282   8.308  0.3542  0.4922 -0.2340
 5024SOL    HW115853   7.887   5.274   8.383 -3.2061  1.9639 -2.6732
 5024SOL    HW215854   7.997   5.361   8.326  0.0295  0.4735  0.8658
 5025SOL     OW15855   3.011   3.811   3.874 -0.0656 -0.3090 -0.0775
 5025SOL    HW115856   2.978   3.819   3.963 -0.4438  1.2209 -0.3362
 5025SOL    HW215857   3.094   3.764   3.883 -0.3431 -0.6095  1.0109
 5026SOL     OW15858   7.568   3.365   0.015  0.6669 -0.1698 -0.8407
 5026SOL    HW115859   7.654   3.387  -0.020  1.2621  1.4364  1.4057
 5026SOL    HW215860   7.587   3.314   0.094 -0.5516 -1.9575 -1.6315
 5027SOL     OW15861   7.436   6.938   6.066 -0.0237 -0.6269  0.4106
 5027SOL    HW115862   7.451   6.958   5.973 -1.1688 -2.2304 -0.1774
 5027SOL    HW215863   7.366   6.872   6.064  0.3173 -1.0862  2.3962
 5028SOL     OW15864   3.091   4.597   6.387  0.0663 -0.0022 -0.5224
 5028SOL    HW115865   3.058   4.604   6.297  0.4321 -3.2036 -1.0124
 5028SOL    HW215866   3.052   4.517   6.421  1.0635  0.3789  1.7038
 5029SOL     OW15867   1.915   6.584   3.681  0.1719 -0.1066 -0.3833
 5029SOL    HW115868   1.881   6.659   3.729 -0.7775  0.2115 -1.4968
 5029SOL    HW215869   1.897   6.604   3.589  2.5949 -0.3427 -0.9825
 5030SOL     OW15870   2.344   8.124   2.796  0.5271  0.0559 -0.5347
 5030SOL    HW115871   2.423   8.174   2.776  0.5292  1.3655  2.2648
 5030SOL    HW215872   2.362   8.082   2.880 -1.3900 -0.4544 -0.3243
 5031SOL     OW15873   3.286   1.661   7.513  0.0735  0.1608  0.5808
 5031SOL    HW115874   3.353   1.728   7.500 -1.2705  1.3180 -0.6245
 5031SOL    HW215875   3.326   1.580   7.480  1.0602  0.7166  0.3858
 5032SOL     OW15876   6.067   6.876   6.363  0.3660 -0.3640 -0.5645
 5032SOL    HW115877   6.068   6.961   6.407  2.2645 -0.9645  0.6580
 5032SOL    HW215878   6.056   6.898   6.270 -1.2772  1.0647 -0.0829
 5033SOL     OW15879   6.494   2.951   5.516 -0.0050 -0.0567  0.8265
 5033SOL    HW115880   6.404   2.918   5.524 -0.1003  0.2239  0.9460
 5033SOL    HW215881   6.494   3.032   5.568 -0.1682  0.8859 -0.5819
 5034SOL     OW15882   3.220   7.381   0.804 -0.3146 -0.2455 -0.5043
 5034SOL    HW115883   3.204   7.289   0.783 -0.3851 -0.0486 -1.3599
 5034SOL    HW215884   3.304   7.380   0.849 -0.0198 -0.6779 -1.0388
 5035SOL     OW15885   7.359   3.156   5.477  0.2225 -0.5065 -0.3299
 5035SOL    HW115886   7.396   3.242   5.459  1.1943 -1.0684 -1.1487
 5035SOL    HW215887   7.424   3.094   5.443 -0.9802 -1.5498 -0.8448
 5036SOL     OW15888   1.010   7.150   4.261 -0.0799 -0.2786 -0.4470
 5036SOL    HW115889   1.037   7.180   4.348 -0.9977 -0.6620 -0.0228
 5036SOL    HW215890   1.051   7.213   4.201 -1.5715  1.6237  0.3906
 5037SOL     OW15891   0.555   1.297   2.685 -1.0257 -0.1813  0.1312
 5037SOL    HW115892   0.552   1.390   2.708  1.5493  0.2473 -0.8494
 5037SOL    HW215893   0.614   1.258   2.750 -1.9899 -1.1223  0.4619
 5038SOL     OW15894   2.877   3.762   6.358  0.4879 -0.5447 -0.0392
 5038SOL    HW115895   2.933   3.691   6.390  0.2517 -0.7948 -0.1790
 5038SOL    HW215896   2.921   3.842   6.387 -0.0818 -0.7749  1.4915
 5039SOL     OW15897   4.773   7.155   7.945  0.1925 -0.1048  0.0192
 5039SOL    HW115898   4.861   7.117   7.939  0.5223  0.5770  0.4155
 5039SOL    HW215899   4.756   7.189   7.858  0.6844  0.5214  0.1555
 5040SOL     OW15900   4.352   6.816   0.058  0.1519 -0.4617  0.1291
 5040SOL    HW115901   4.384   6.760  -0.012 -0.3629 -0.7860  0.1419
 5040SOL    HW215902   4.321   6.895   0.014 -0.3950 -0.7637 -0.0435
 5041SOL     OW15903   8.255   8.124   5.548  0.2940  0.0709  0.0489
 5041SOL    HW115904   8.317   8.052   5.556  1.5394  1.0743 -0.2852
 5041SOL    HW215905   8.241   8.134   5.454  0.3391  0.4355  0.0790
 5042SOL     OW15906   7.355   1.015   0.493 -0.2598 -0.3657 -0.0881
 5042SOL    HW115907   7.394   0.928   0.498  1.3044  0.2257 -1.1354
 5042SOL    HW215908   7.307   1.025   0.575  2.3337 -0.9173  1.6093
 5043SOL     OW15909   2.523   5.831   1.121  0.0256 -0.6253  0.0392
 5043SOL    HW115910   2.576   5.788   1.188 -0.5179  0.1795  1.0095
 5043SOL    HW215911   2.561   5.802   1.038  0.3085 -2.1488  0.6724
 5044SOL     OW15912   1.575   2.553   2.597 -0.3756 -0.0257 -0.1751
 5044SOL    HW115913   1.526   2.599   2.530 -0.6391 -0.9170 -0.6089
 5044SOL    HW215914   1.532   2.468   2.605 -0.4132  0.0910  1.2022
 5045SOL     OW15915   4.682   5.226   6.581  0.9528 -0.3818  0.3349
 5045SOL    HW115916   4.677   5.134   6.607  2.3189 -0.1742  1.4574
 5045SOL    HW215917   4.592   5.251   6.564  0.4200 -1.5780  1.2653
 5046SOL     OW15918   6.059   1.142   1.705 -0.0918  0.4203 -0.2055
 5046SOL    HW115919   5.995   1.073   1.724 -0.6101  1.0049  0.1729
 5046SOL    HW215920   6.011   1.206   1.653  0.4864  0.3418 -0.8553
 5047SOL     OW15921   0.845   0.190   4.189 -0.2122 -0.7060  0.0968
 5047SOL    HW115922   0.820   0.149   4.107  0.4252  0.7509 -0.8594
 5047SOL    HW215923   0.900   0.264   4.164 -0.2316 -0.0473  1.8195
 5048SOL     OW15924   6.440   6.504   3.926 -0.3103  0.4352  0.4128
 5048SOL    HW115925   6.348   6.528   3.916 -0.4589 -0.5376 -0.8167
 5048SOL    HW215926   6.457   6.445   3.852  1.2083  0.3412  0.8168
 5049SOL     OW15927   1.754   1.392   6.069 -0.5881  0.1835 -0.5141
 5049SOL    HW115928   1.831   1.339   6.088 -1.7326 -1.2355  0.3712
 5049SOL    HW215929   1.741   1.445   6.148  0.4760  1.7556 -1.3449
 5050SOL     OW15930   1.074   3.475   5.088  0.3364 -0.0109 -0.0161
 5050SOL    HW115931   1.129   3.494   5.012  0.1853  0.9205  0.0857
 5050SOL    HW215932   0.991   3.447   5.051 -0.2864  1.9793 -0.2770
 5051SOL     OW15933   7.854   1.566   4.611  0.0814  0.7220  0.1095
 5051SOL    HW115934   7.827   1.575   4.702 -1.9472 -0.6458 -0.3022
 5051SOL    HW215935   7.838   1.652   4.572  0.3970  1.1407  0.8964
 5052SOL     OW15936   2.781   0.201   5.502 -0.5723 -0.0972 -0.1810
 5052SOL    HW115937   2.781   0.291   5.534 -1.8803 -0.6173  1.4180
 5052SOL    HW215938   2.872   0.182   5.481  0.4321  0.3209  3.2493
 5053SOL     OW15939   2.126   4.533   3.867  0.2109  0.0955  0.3133
 5053SOL    HW115940   2.077   4.587   3.929  0.0772 -1.0043  1.2007
 5053SOL    HW215941   2.198   4.588   3.838 -0.2730  0.9607  0.7247
 5054SOL     OW15942   4.810   3.645   3.230 -0.1577  0.0175 -0.0642
 5054SOL    HW115943   4.878   3.603   3.282  0.7559  0.9524 -0.4819
 5054SOL    HW215944   4.794   3.729   3.273  1.4491  1.3346 -1.8813
 5055SOL     OW15945   3.103   0.164   0.638 -0.3393  0.2665 -0.2947
 5055SOL    HW115946   3.111   0.170   0.543  0.9960 -1.6345 -0.3358
 5055SOL    HW215947   3.142   0.246   0.670 -1.0132  1.0393 -1.3530
 5056SOL     OW15948   5.655   2.513   3.170 -0.2504  0.0287 -0.3228
 5056SOL    HW115949   5.606   2.528   3.251  0.4115  1.3410 -0.1323
 5056SOL    HW215950   5.738   2.475   3.198 -0.6776 -1.1087 -0.5484
 5057SOL     OW15951   3.238   1.381   3.164  0.1726  0.0631  0.2367
 5057SOL    HW115952   3.184   1.361   3.240 -1.6163  1.6628 -0.5509
 5057SOL    HW215953   3.323   1.406   3.201 -1.0458  2.1694  1.8604
 5058SOL     OW15954   3.674   2.441   3.187  0.3025 -0.4185  0.2022
 5058SOL    HW115955   3.715   2.412   3.106 -1.5518 -0.4456 -0.7917
 5058SOL    HW215956   3.619   2.367   3.214 -1.8907  0.8394 -0.5304
 5059SOL     OW15957   6.431   7.260   5.252 -0.1970 -0.3099  0.4707
 5059SOL    HW115958   6.415   7.222   5.166  1.1276 -0.5941  0.3289
 5059SOL    HW215959   6.451   7.185   5.308  1.0086  0.0312  0.5209
 5060SOL     OW15960   6.624   1.979   6.403 -0.2680  0.3048  0.0187
 5060SOL    HW115961   6.607   2.068   6.373  1.3273  1.2262  1.6469
 5060SOL    HW215962   6.538   1.946   6.429 -0.9421  1.2095 -0.9712
 5061SOL     OW15963   0.828   7.709   6.429  0.3766 -0.5220  0.2894
 5061SOL    HW115964   0.871   7.625   6.444  0.0983 -0.6114  0.5966
 5061SOL    HW215965   0.738   7.687   6.406  0.5521 -0.3437 -0.6194
 5062SOL     OW15966   6.106   5.797   7.454  0.3817  0.2247  0.1919
 5062SOL    HW115967   6.075   5.771   7.367  0.5722 -2.0502  0.7317
 5062SOL    HW215968   6.086   5.890   7.460 -0.5594  0.2136 -1.8894
 5063SOL     OW15969   6.621   5.971   7.522 -0.1255 -0.4450 -0.2719
 5063SOL    HW115970   6.610   6.066   7.518  0.1258 -0.3415  0.9807
 5063SOL    HW215971   6.671   5.956   7.602  5.0132 -1.2274 -3.1711
 5064SOL     OW15972   7.932   6.741   5.782  0.1408  0.4497  0.3179
 5064SOL    HW115973   7.940   6.663   5.837 -1.2838 -0.5397 -0.8409
 5064SOL    HW215974   7.877   6.801   5.833  0.2939  0.2513  0.7187
 5065SOL     OW15975   2.348   7.391   2.263 -0.0705 -0.0667 -0.6818
 5065SOL    HW115976   2.275   7.452   2.263  0.0762  0.1162  0.2708
 5065SOL    HW215977   2.352   7.359   2.173 -0.5256  0.8659 -1.0425
 5066SOL     OW15978   7.767   5.555   1.823 -0.8485 -0.1121 -0.3931
 5066SOL    HW115979   7.776   5.609   1.744 -1.0161  0.9785  0.3003
 5066SOL    HW215980   7.825   5.480   1.808 -1.1295 -0.0980 -1.6789
 5067SOL     OW15981   4.071   3.380   6.299  0.1864 -0.1739 -0.0701
 5067SOL    HW115982   4.160   3.360   6.272 -0.4047 -0.9668 -1.5610
 5067SOL    HW215983   4.024   3.398   6.217 -1.2373 -0.7001  0.5908
 5068SOL     OW15984   7.464   2.745   0.044 -0.0596  0.3620  0.2087
 5068SOL    HW115985   7.507   2.659   0.042  1.1607  0.9186  0.8001
 5068SOL    HW215986   7.522   2.802  -0.006 -0.3153  1.0533  0.6763
 5069SOL     OW15987   0.087   3.171   5.211 -0.1659  0.2200 -0.1189
 5069SOL    HW115988   0.098   3.083   5.247  0.5078  0.0668 -0.6752
 5069SOL    HW215989   0.095   3.229   5.286 -1.1400 -0.2114  0.3362
 5070SOL     OW15990   0.300   0.799   0.349  0.2742 -0.2996 -0.6211
 5070SOL    HW115991   0.342   0.728   0.300 -0.0320 -0.9801  0.0949
 5070SOL    HW215992   0.207   0.792   0.327  0.5142  1.5110 -2.6001
 5071SOL     OW15993   3.502   4.994   7.609  0.5441 -0.2281 -0.3557
 5071SOL    HW115994   3.459   5.006   7.524 -1.7290 -0.5624  0.6774
 5071SOL    HW215995   3.491   5.078   7.654 -0.9882 -0.9626  0.7239
 5072SOL     OW15996   4.301   2.208   2.714 -0.1206  0.4508 -0.3723
 5072SOL    HW115997   4.318   2.120   2.747  1.4630  0.8609  0.0245
 5072SOL    HW215998   4.380   2.230   2.664 -0.7492  1.4096 -0.9729
 5073SOL     OW15999   2.394   2.809   4.550  0.1338 -0.3212 -0.1023
 5073SOL    HW116000   2.357   2.839   4.634  1.0646 -2.3363  1.0869
 5073SOL    HW216001   2.405   2.715   4.561 -2.4304 -1.2083 -3.5841
 5074SOL     OW16002   6.885   4.837   3.564  0.0486  0.1606  0.4523
 5074SOL    HW116003   6.953   4.852   3.630 -0.9575  0.9286  1.3342
 5074SOL    HW216004   6.814   4.795   3.612  0.4114 -2.0170 -0.7496
 5075SOL     OW16005   1.735   6.334   1.181 -0.6916 -0.2776 -0.5985
 5075SOL    HW116006   1.741   6.413   1.126  1.5860 -0.6037 -0.9040
 5075SOL    HW216007   1.692   6.365   1.261 -1.0021  0.9706 -1.2084
 5076SOL     OW16008   6.052   4.108   7.665  0.5543 -0.6726 -0.2632
 5076SOL    HW116009   6.034   4.195   7.700  2.5669 -0.0307 -0.6956
 5076SOL    HW216010   6.077   4.056   7.742  0.0660 -0.6679 -0.1003
 5077SOL     OW16011   7.291   2.391   5.494  0.1281 -0.0195 -0.3526
 5077SOL    HW116012   7.270   2.358   5.581  0.3700 -0.7545 -0.5647
 5077SOL    HW216013   7.211   2.433   5.464 -0.1677 -0.3549 -0.0439
 5078SOL     OW16014   2.515   2.699   2.924  0.5527 -1.0990  0.1452
 5078SOL    HW116015   2.589   2.760   2.924  1.0963 -1.7460 -0.2631
 5078SOL    HW216016   2.516   2.662   3.012 -1.1408  1.0619  1.1610
 5079SOL     OW16017   4.735   1.291   2.485  0.5948 -0.2592  0.3796
 5079SOL    HW116018   4.740   1.217   2.546  1.1464 -0.7262 -0.2078
 5079SOL    HW216019   4.676   1.353   2.527  0.8992 -0.6024  1.3503
 5080SOL     OW16020   7.151   6.425   4.477 -0.0500 -0.1994  0.3707
 5080SOL    HW116021   7.167   6.347   4.424  0.0192 -1.1882  1.7993
 5080SOL    HW216022   7.083   6.473   4.430  0.3917 -0.7540 -0.8835
 5081SOL     OW16023   4.862   4.045   3.078  0.5834 -0.2308  0.7791
 5081SOL    HW116024   4.957   4.048   3.072  0.4846  2.0976 -0.5515
 5081SOL    HW216025   4.842   4.088   3.161  0.6566 -1.4229  1.4523
 5082SOL     OW16026   6.052   0.213   2.650  0.0043  0.3047  0.0304
 5082SOL    HW116027   6.002   0.191   2.729 -1.2597  0.4176 -0.7011
 5082SOL    HW216028   5.985   0.220   2.581  1.1176 -0.2549 -1.1513
 5083SOL     OW16029   3.776   0.408   3.160  0.1312  0.9090  0.4783
 5083SOL    HW116030   3.777   0.411   3.256 -0.5859  0.5722  0.5038
 5083SOL    HW216031   3.866   0.388   3.136 -0.3271 -3.0644  1.2552
 5084SOL     OW16032   1.227   2.773   7.843 -0.0503 -0.5225 -0.1909
 5084SOL    HW116033   1.173   2.716   7.897 -1.0326  0.0716 -0.5088
 5084SOL    HW216034   1.292   2.715   7.803 -0.8552 -1.3613 -0.3017
 5085SOL     OW16035   3.116   4.662   5.759 -0.0535 -0.3921 -0.8247
 5085SOL    HW116036   3.025   4.645   5.735 -0.4266 -0.2175  0.3751
 5085SOL    HW216037   3.136   4.596   5.826  0.9207 -0.8388 -1.5282
 5086SOL     OW16038   8.006   2.158   0.049 -0.1751  0.2818  0.0117
 5086SOL    HW116039   8.060   2.211  -0.010 -0.2364 -0.8896 -1.1583
 5086SOL    HW216040   7.986   2.080  -0.002 -2.3568  0.3367  0.6735
 5087SOL     OW16041   7.425   6.950   3.023  0.1286 -0.0100  0.0899
 5087SOL    HW116042   7.391   6.989   2.943 -2.5202  0.2370  1.2250
 5087SOL    HW216043   7.504   6.904   2.996  1.1699  2.7601 -2.0188
 5088SOL     OW16044   7.763   4.071   5.367 -0.0890  0.6250  0.1786
 5088SOL    HW116045   7.675   4.095   5.396  0.1043  0.5156  0.8560
 5088SOL    HW216046   7.782   3.989   5.413  0.5443  0.8750  0.3623
 5089SOL     OW16047   3.262   3.025   5.857 -0.1631 -0.7726  0.4776
 5089SOL    HW116048   3.355   3.000   5.865  0.2183  0.0331 -1.0962
 5089SOL    HW216049   3.248   3.033   5.763 -1.3835  0.8209  0.7714
 5090SOL     OW16050   3.593   1.585   6.414  0.3615 -0.3994  0.1736
 5090SOL    HW116051   3.578   1.533   6.493 -0.6042 -0.3250  0.0577
 5090SOL    HW216052   3.638   1.525   6.354  0.0703 -0.8214  0.3668
 5091SOL     OW16053   4.887   5.075   4.838  0.5990 -0.0873 -0.2782
 5091SOL    HW116054   4.931   5.069   4.922  1.2389  0.4602 -0.5665
 5091SOL    HW216055   4.840   5.159   4.842  1.2092  0.2884 -0.7261
 5092SOL     OW16056   6.172   7.628   5.335 -0.0609 -0.0967 -0.0565
 5092SOL    HW116057   6.147   7.596   5.422 -1.1363  1.2001  0.1356
 5092SOL    HW216058   6.224   7.707   5.353  0.7540 -0.5031 -0.5776
 5093SOL     OW16059   2.964   1.929   0.413  0.3018 -0.0405 -0.2435
 5093SOL    HW116060   3.011   2.012   0.414  1.2714 -0.5728 -1.0826
 5093SOL    HW216061   2.957   1.904   0.505 -0.4285  1.1966  0.0539
 5094SOL     OW16062   6.164   6.888   0.400  0.6715  0.1186 -0.5932
 5094SOL    HW116063   6.141   6.805   0.358  1.0729 -0.3388  0.0651
 5094SOL    HW216064   6.260   6.888   0.402  0.6718 -0.3236  1.1440
 5095SOL     OW16065   2.074   7.325   3.325 -0.6210  0.2031 -0.0801
 5095SOL    HW116066   2.112   7.343   3.239 -0.5360 -0.4237 -0.1810
 5095SOL    HW216067   2.136   7.265   3.366 -1.4703 -0.7970 -0.2252
 5096SOL     OW16068   3.791   7.619   2.690 -1.1108  0.3556 -0.4366
 5096SOL    HW116069   3.825   7.615   2.600  0.8336 -1.7565  0.2773
 5096SOL    HW216070   3.699   7.642   2.680 -1.3924 -1.4710 -3.1197
 5097SOL     OW16071   7.007   7.559   6.892  0.0329 -0.6761 -0.4320
 5097SOL    HW116072   7.087   7.577   6.843  0.2553 -0.6255 -0.0540
 5097SOL    HW216073   6.940   7.612   6.849  0.5852  0.7162  0.3831
 5098SOL     OW16074   3.648   4.714   6.885  0.3246  0.1329 -0.1407
 5098SOL    HW116075   3.685   4.764   6.813  0.2357  0.8936  0.3358
 5098SOL    HW216076   3.656   4.771   6.961  0.8444 -0.8503  0.5511
 5099SOL     OW16077   0.644   0.873   7.641 -0.0826 -0.1017 -0.3187
 5099SOL    HW116078   0.700   0.907   7.711 -0.4809 -1.8565  0.9397
 5099SOL    HW216079   0.696   0.803   7.601 -0.4717 -0.1644 -0.7168
 5100SOL     OW16080   2.723   4.354   0.475  0.3884 -0.2853  0.4399
 5100SOL    HW116081   2.717   4.415   0.549  1.3481  1.5849 -0.9499
 5100SOL    HW216082   2.693   4.405   0.400 -1.5404 -2.4517 -0.3565
 5101SOL     OW16083   6.878   6.856   2.081 -0.1845  0.3772 -0.1273
 5101SOL    HW116084   6.854   6.857   1.989  0.4354 -0.8985 -0.3262
 5101SOL    HW216085   6.972   6.874   2.082 -0.0814 -0.1522  0.2045
 5102SOL     OW16086   3.567   4.107   5.576 -0.2117 -0.1987  0.1342
 5102SOL    HW116087   3.600   4.117   5.665 -1.2807  1.4165  0.3863
 5102SOL    HW216088   3.601   4.183   5.528 -1.1510 -0.0579 -0.3429
 5103SOL     OW16089   1.506   4.368   1.357  0.3897 -0.5101  0.0209
 5103SOL    HW116090   1.565   4.398   1.288 -1.3038 -1.6677 -2.0570
 5103SOL    HW216091   1.463   4.448   1.388  1.5659  0.0935  0.1783
 5104SOL     OW16092   3.342   0.268   6.947  0.0617 -0.5175  0.4411
 5104SOL    HW116093   3.395   0.283   7.025  0.3969  2.6843 -0.2792
 5104SOL    HW216094   3.385   0.319   6.878 -2.6688  0.3850 -0.7500
 5105SOL     OW16095   3.181   3.198   3.811 -0.0153  0.0526 -0.5182
 5105SOL    HW116096   3.237   3.198   3.733 -0.5749  2.9363 -1.0374
 5105SOL    HW216097   3.101   3.156   3.782  0.8103 -1.5536 -0.5894
 5106SOL     OW16098   4.455   4.254   2.816  0.1757 -0.2563 -0.4800
 5106SOL    HW116099   4.382   4.306   2.849  0.7668 -0.4839  1.3027
 5106SOL    HW216100   4.416   4.171   2.790 -0.2148 -0.4082  0.5455
 5107SOL     OW16101   4.182   2.747   8.146 -0.4933 -0.1683  0.3218
 5107SOL    HW116102   4.195   2.842   8.141  1.1224 -0.3468  0.6098
 5107SOL    HW216103   4.271   2.711   8.147 -1.0893 -1.7706 -1.1139
 5108SOL     OW16104   7.452   5.293   5.810  0.1850 -0.5337 -0.2809
 5108SOL    HW116105   7.417   5.315   5.897 -0.7826 -0.8867 -0.5614
 5108SOL    HW216106   7.546   5.283   5.823  0.6853  3.0306  0.0361
 5109SOL     OW16107   1.709   2.547   6.692 -0.3811 -0.6437  0.2114
 5109SOL    HW116108   1.709   2.535   6.597 -0.2033 -0.4252  0.1828
 5109SOL    HW216109   1.671   2.634   6.706 -2.9543 -1.7268  0.4935
 5110SOL     OW16110   1.843   6.537   4.852 -0.4919 -0.3238 -0.2216
 5110SOL    HW116111   1.803   6.554   4.937 -2.1103  1.5874 -1.2712
 5110SOL    HW216112   1.793   6.591   4.791  0.5186 -1.7456 -2.4270
 5111SOL     OW16113   6.808   6.313   2.118  0.1580 -0.0212  0.1181
 5111SOL    HW116114   6.846   6.400   2.105 -0.7256  0.5081  0.9750
 5111SOL    HW216115   6.840   6.262   2.043  0.8779  0.9650 -0.2730
 5112SOL     OW16116   5.578   6.990   3.527 -0.6527 -0.4563  0.0686
 5112SOL    HW116117   5.598   7.076   3.562 -0.6589  0.6272 -2.3789
 5112SOL    HW216118   5.640   6.931   3.570  1.1028  1.2069 -0.0484
 5113SOL     OW16119   2.569   5.289   1.902 -0.2052 -0.3312  0.6074
 5113SOL    HW116120   2.508   5.250   1.965 -2.1502  1.8946  0.2085
 5113SOL    HW216121   2.608   5.363   1.949 -1.1129  0.8912 -0.4843
 5114SOL     OW16122   3.183   3.409   5.614  0.0922 -0.1275  0.0599
 5114SOL    HW116123   3.170   3.393   5.708  1.1121  1.8052  0.5752
 5114SOL    HW216124   3.127   3.484   5.594  1.2412  0.6377 -0.4173
 5115SOL     OW16125   4.963   1.666   0.801 -0.5917 -0.5341  0.5936
 5115SOL    HW116126   5.005   1.752   0.799 -0.6983 -0.5043 -0.5524
 5115SOL    HW216127   4.890   1.673   0.740  0.4984 -1.9937 -0.9356
 5116SOL     OW16128   4.494   3.894   7.500 -0.4448 -0.5262 -0.1555
 5116SOL    HW116129   4.423   3.914   7.439  0.2383  0.4884 -0.6384
 5116SOL    HW216130   4.472   3.945   7.579  0.7324  1.3872 -1.0024
 5117SOL     OW16131   1.112   4.261   6.582  0.2637  0.0319  0.5423
 5117SOL    HW116132   1.132   4.182   6.632 -0.0943  1.3543  2.9216
 5117SOL    HW216133   1.070   4.229   6.503 -0.8334 -2.1402  1.9034
 5118SOL     OW16134   3.842   3.550   0.677  0.0859 -0.0862  0.2588
 5118SOL    HW116135   3.892   3.574   0.599 -1.2831  1.9169 -0.0880
 5118SOL    HW216136   3.816   3.634   0.715 -2.3103 -1.0068  0.8423
 5119SOL     OW16137   6.247   5.409   3.090  0.1573  0.3364 -0.9166
 5119SOL    HW116138   6.311   5.474   3.061  0.9150 -0.4405 -1.0341
 5119SOL    HW216139   6.235   5.427   3.184  2.1679 -0.8075 -0.3817
 5120SOL     OW16140   3.701   1.017   3.661  0.1362  0.0515 -0.1836
 5120SOL    HW116141   3.642   1.072   3.609 -0.0690  0.1122  0.1102
 5120SOL    HW216142   3.671   0.927   3.643 -0.7252  0.1308  0.7665
 5121SOL     OW16143   4.446   5.837   3.097  0.0261 -0.3338 -0.2969
 5121SOL    HW116144   4.476   5.811   3.184 -0.1078 -0.5107 -0.3024
 5121SOL    HW216145   4.526   5.864   3.051  0.2451 -1.1937 -0.4482
 5122SOL     OW16146   6.750   5.582   7.221  0.3410  0.1956  0.0435
 5122SOL    HW116147   6.781   5.662   7.179  0.3904  0.4800  0.6161
 5122SOL    HW216148   6.785   5.586   7.310  1.0596 -0.8681 -0.1675
 5123SOL     OW16149   1.189   3.376   0.694 -0.2095 -0.1677  0.1200
 5123SOL    HW116150   1.180   3.291   0.650 -0.0518 -1.3831  2.3274
 5123SOL    HW216151   1.282   3.397   0.688 -0.0382 -0.7699  0.6643
 5124SOL     OW16152   8.027   6.121   6.064  0.1941  0.4559  0.3201
 5124SOL    HW116153   7.981   6.039   6.081 -0.8601  1.2058  1.3165
 5124SOL    HW216154   8.050   6.154   6.150  1.4061  0.7911 -0.1107
 5125SOL     OW16155   7.575   5.127   1.543  0.2074 -0.0795 -0.1747
 5125SOL    HW116156   7.604   5.062   1.608 -0.8601  0.5108  0.9454
 5125SOL    HW216157   7.602   5.090   1.459  1.2873 -1.0668  0.5631
 5126SOL     OW16158   7.387   3.181   8.228 -0.7313  0.1931  0.2816
 5126SOL    HW116159   7.350   3.225   8.151  0.3077 -0.3699 -0.5684
 5126SOL    HW216160   7.428   3.251   8.279  0.1038  0.3524 -0.5857
 5127SOL     OW16161   0.519   7.128   6.570  0.2273  0.0222  0.5079
 5127SOL    HW116162   0.593   7.068   6.560  0.2987  0.2415 -0.4250
 5127SOL    HW216163   0.455   7.098   6.505  0.1275  0.7418  0.2614
 5128SOL     OW16164   0.127   2.467   1.445  0.0502 -0.3678  0.1485
 5128SOL    HW116165   0.062   2.535   1.432  0.6404  0.4287  1.2012
 5128SOL    HW216166   0.204   2.498   1.396 -0.3979 -1.4281 -1.3113
 5129SOL     OW16167   6.388   6.038   7.109  0.0263  0.0633  0.0821
 5129SOL    HW116168   6.316   6.058   7.049 -0.1924 -0.2627  0.2342
 5129SOL    HW216169   6.412   5.947   7.088  1.7822  0.8102 -1.4116
 5130SOL     OW16170   4.210   1.175   4.427  0.2679 -0.5121 -0.1091
 5130SOL    HW116171   4.253   1.260   4.416  1.1628 -0.7002  1.6849
 5130SOL    HW216172   4.205   1.162   4.521 -0.9530 -1.9283 -0.3345
 5131SOL     OW16173   0.061   0.339   3.370 -0.8515 -0.6035 -0.0495
 5131SOL    HW116174   0.053   0.355   3.464 -2.0355 -3.2402  0.3706
 5131SOL    HW216175  -0.021   0.372   3.333 -0.0711  1.1393 -0.3348
 5132SOL     OW16176   6.893   4.986   5.580 -0.0988  0.4553 -0.0373
 5132SOL    HW116177   6.857   4.897   5.572  1.1535 -0.1442  0.6887
 5132SOL    HW216178   6.820   5.043   5.558 -0.0453 -0.7316 -4.1853
 5133SOL     OW16179   5.260   5.148   0.002  0.2061 -0.0195  0.6730
 5133SOL    HW116180   5.200   5.200  -0.052  1.6685 -0.0212 -1.0455
 5133SOL    HW216181   5.230   5.057  -0.011 -0.0225  0.0608  0.6317
 5134SOL     OW16182   4.521   0.963   7.833  0.0615  0.3857 -0.8828
 5134SOL    HW116183   4.516   0.938   7.740 -0.6548 -0.9040 -0.5252
 5134SOL    HW216184   4.522   0.879   7.879  0.2677  1.0237  0.2886
 5135SOL     OW16185   5.254   5.236   3.495  0.2964  0.4601 -0.4279
 5135SOL    HW116186   5.194   5.161   3.496  1.5016 -0.6047  2.7891
 5135SOL    HW216187   5.230   5.284   3.416 -2.6166 -1.6230 -0.9759
 5136SOL     OW16188   0.052   3.187   2.593  0.4550 -0.0616 -0.1944
 5136SOL    HW116189   0.017   3.273   2.571  0.2441  0.5404  2.2769
 5136SOL    HW216190  -0.010   3.125   2.553 -1.2851  0.9768  0.8004
 5137SOL     OW16191   3.775   6.032   7.575  0.3015 -0.0622  0.4360
 5137SOL    HW116192   3.797   5.981   7.652  0.3544 -0.0738  0.4134
 5137SOL    HW216193   3.809   6.120   7.593  1.4083 -0.3630 -0.0751
 5138SOL     OW16194   8.108   4.036   4.245  0.4671 -0.4546  0.4578
 5138SOL    HW116195   8.105   4.129   4.220  0.1851  0.1770  2.6467
 5138SOL    HW216196   8.029   3.998   4.206  0.8903  0.0493 -0.9735
 5139SOL     OW16197   3.604   6.789   0.197 -0.0895  0.3026  0.0547
 5139SOL    HW116198   3.611   6.868   0.250  1.9520  1.4318 -1.7226
 5139SOL    HW216199   3.535   6.808   0.134 -0.2526  0.2815  0.2268
 5140SOL     OW16200   5.760   7.050   6.567 -0.8121  0.2727  0.8215
 5140SOL    HW116201   5.799   6.963   6.567 -0.6904  0.3268  0.8643
 5140SOL    HW216202   5.821   7.104   6.517 -1.0025  0.2829  0.5998
 5141SOL     OW16203   6.097   1.328   2.690 -0.0692  0.4078 -0.1449
 5141SOL    HW116204   6.043   1.310   2.767 -0.9958  0.8773 -0.6696
 5141SOL    HW216205   6.129   1.242   2.662 -0.6018  0.1204  0.1283
 5142SOL     OW16206   3.933   7.348   6.164 -0.1013 -0.5726 -0.0691
 5142SOL    HW116207   3.905   7.327   6.253  0.3390 -2.1389 -0.2672
 5142SOL    HW216208   4.028   7.340   6.166 -0.1752 -2.0537 -0.9936
 5143SOL     OW16209   6.118   6.781   1.744  0.2434  0.1067 -0.5784
 5143SOL    HW116210   6.085   6.692   1.754 -0.5766  0.2072 -2.0528
 5143SOL    HW216211   6.184   6.790   1.812  0.7762 -1.8343 -0.7710
 5144SOL     OW16212   0.224   2.755   4.825  0.4402  1.0097  0.2598
 5144SOL    HW116213   0.316   2.744   4.802  0.1311  0.2072 -0.6703
 5144SOL    HW216214   0.225   2.793   4.913  1.6523  1.0479  0.2406
 5145SOL     OW16215   2.736   6.315   7.628  0.0503 -0.9090 -0.1315
 5145SOL    HW116216   2.793   6.292   7.555 -1.7652 -0.5719 -1.7279
 5145SOL    HW216217   2.650   6.281   7.603 -1.4285  2.2611  0.1544
 5146SOL     OW16218   4.633   0.287   0.312 -0.1431  0.4639  0.1739
 5146SOL    HW116219   4.556   0.281   0.256 -0.7199 -0.5396  1.0187
 5146SOL    HW216220   4.610   0.351   0.380 -0.1864  0.2673  0.3468
 5147SOL     OW16221   2.351   5.517   3.315  0.3415  0.5728 -0.0806
 5147SOL    HW116222   2.364   5.563   3.398  1.9176  1.3932 -0.7442
 5147SOL    HW216223   2.360   5.585   3.248  1.6875 -0.5076 -1.0393
 5148SOL     OW16224   7.500   2.007   1.977  0.6230  0.0461 -0.0014
 5148SOL    HW116225   7.575   2.064   1.962  1.3286 -0.3521  1.7596
 5148SOL    HW216226   7.426   2.066   1.986  1.4308  0.8034  2.3590
 5149SOL     OW16227   1.590   7.490   4.557 -0.2458  0.1605  0.2915
 5149SOL    HW116228   1.667   7.467   4.506 -0.0204 -1.5114  1.3377
 5149SOL    HW216229   1.624   7.539   4.632 -0.4714  1.5756 -0.4850
 5150SOL     OW16230   1.295   3.996   2.797 -0.0065 -0.4580 -0.6251
 5150SOL    HW116231   1.354   4.028   2.729 -1.4121  1.6013 -0.9758
 5150SOL    HW216232   1.212   3.983   2.752 -0.8048  0.3645  0.5388
 5151SOL     OW16233   2.247   6.151   1.842 -0.0698  0.1565 -0.3580
 5151SOL    HW116234   2.196   6.094   1.784 -2.5517  0.3733  1.4467
 5151SOL    HW216235   2.270   6.226   1.788 -1.6362  0.0088 -1.2959
 5152SOL     OW16236   7.897   5.743   7.999 -0.4933  0.0506 -0.3609
 5152SOL    HW116237   7.970   5.715   8.054 -1.8662 -4.1246 -0.3223
 5152SOL    HW216238   7.916   5.704   7.913 -0.7431  2.4313 -1.5685
 5153SOL     OW16239   2.642   6.811   3.915  0.1078  0.5578 -0.4117
 5153SOL    HW116240   2.615   6.870   3.846  0.7014  1.5560  0.1874
 5153SOL    HW216241   2.700   6.863   3.971 -2.2463  0.5829  2.2502
 5154SOL     OW16242   1.973   1.048   4.274  0.2441 -0.5210 -0.1626
 5154SOL    HW116243   1.999   0.965   4.234  0.2437 -0.7890  0.3927
 5154SOL    HW216244   1.945   1.102   4.200 -0.7646 -1.3793 -0.4275
 5155SOL     OW16245   6.614   3.483   3.087  0.1423  0.0518 -0.5355
 5155SOL    HW116246   6.657   3.564   3.116 -0.3305 -0.3202  1.3478
 5155SOL    HW216247   6.521   3.498   3.104  0.1710 -1.3115  1.0369
 5156SOL     OW16248   0.659   6.885   6.229 -0.3318 -0.2280 -0.0258
 5156SOL    HW116249   0.624   6.856   6.313  0.6455 -0.9769  0.1413
 5156SOL    HW216250   0.724   6.952   6.253 -0.4058 -0.0883 -0.2161
 5157SOL     OW16251   2.254   2.569   7.711 -0.3557 -0.3908  0.3314
 5157SOL    HW116252   2.342   2.533   7.720  0.5000  1.7829  1.5349
 5157SOL    HW216253   2.218   2.567   7.800 -1.3488 -0.8400 -0.0722
 5158SOL     OW16254   0.781   7.501   6.158  0.4064  0.0053 -0.0692
 5158SOL    HW116255   0.852   7.501   6.222  0.2335  0.9011  0.1276
 5158SOL    HW216256   0.816   7.552   6.084 -0.5664  1.7638  0.6424
 5159SOL     OW16257   6.449   5.239   5.312 -0.4896  0.2218  0.0775
 5159SOL    HW116258   6.454   5.266   5.221 -2.1059 -1.7181 -0.6678
 5159SOL    HW216259   6.503   5.303   5.359  0.1174  1.4715 -2.1584
 5160SOL     OW16260   2.248   4.586   4.680  0.2479  0.7538 -0.4071
 5160SOL    HW116261   2.343   4.589   4.693  0.6877  2.5178 -3.1614
 5160SOL    HW216262   2.212   4.621   4.762  1.8985 -0.2282  0.8130
 5161SOL     OW16263   6.525   5.115   4.242 -0.2301 -0.2296 -0.5744
 5161SOL    HW116264   6.573   5.035   4.220 -0.7369 -0.1947 -1.8998
 5161SOL    HW216265   6.457   5.087   4.303 -0.0938 -0.7175 -0.6423
 5162SOL     OW16266   1.649   3.747   7.579 -0.2497  0.3425 -0.7725
 5162SOL    HW116267   1.580   3.680   7.583  0.0636 -0.2529 -3.3479
 5162SOL    HW216268   1.718   3.714   7.636  0.3083 -2.1490 -2.7246
 5163SOL     OW16269   1.548   1.107   2.605  0.0481 -0.3150 -0.0528
 5163SOL    HW116270   1.490   1.032   2.592 -1.0221  0.4246  0.3161
 5163SOL    HW216271   1.585   1.124   2.519 -0.9053 -0.3204 -0.4782
 5164SOL     OW16272   0.634   6.066   6.012 -0.2190 -0.1577 -0.2867
 5164SOL    HW116273   0.577   6.039   5.939  0.0265 -1.6631  0.0326
 5164SOL    HW216274   0.721   6.072   5.973 -0.5559  2.3073 -0.8123
 5165SOL     OW16275   6.688   1.313   8.086  0.0913  0.2731  0.0661
 5165SOL    HW116276   6.752   1.372   8.126  0.0096 -0.3741  1.1880
 5165SOL    HW216277   6.635   1.281   8.159 -0.4197 -0.5294 -0.6303
 5166SOL     OW16278   6.275   2.941   0.981 -0.3913  0.0111  0.0462
 5166SOL    HW116279   6.191   2.984   0.967 -0.1768  1.5430  2.6327
 5166SOL    HW216280   6.318   2.994   1.049  2.6602 -0.7298 -1.1136
 5167SOL     OW16281   6.514   1.264   2.222 -0.7158 -0.6976  0.3724
 5167SOL    HW116282   6.460   1.339   2.196  0.3940 -0.1813 -0.5548
 5167SOL    HW216283   6.452   1.194   2.241 -1.7296  0.1268  0.1570
 5168SOL     OW16284   2.895   4.187   4.007  0.3657 -0.2411  0.4080
 5168SOL    HW116285   2.895   4.283   4.015  0.8141 -0.1347 -0.6573
 5168SOL    HW216286   2.806   4.161   4.031  0.3823  0.3990  1.1835
 5169SOL     OW16287   6.167   7.904   3.958 -0.0390  0.1074 -0.3763
 5169SOL    HW116288   6.243   7.923   3.902  1.2679  2.1965  1.8793
 5169SOL    HW216289   6.096   7.953   3.918  0.2053 -0.4621 -1.5612
 5170SOL     OW16290   7.013   0.905   6.605 -0.0599  0.2827 -0.1922
 5170SOL    HW116291   6.959   0.929   6.530  1.0919  0.3348 -1.0388
 5170SOL    HW216292   6.963   0.934   6.681  0.2950  3.6246 -1.0331
 5171SOL     OW16293   0.510   3.191   7.788 -0.0457 -0.6029  1.2142
 5171SOL    HW116294   0.489   3.282   7.810  0.6908 -0.0539 -0.2539
 5171SOL    HW216295   0.573   3.197   7.716 -0.8678 -2.2910  0.2969
 5172SOL     OW16296   3.483   6.865   3.841  0.1380  0.4519 -0.4809
 5172SOL    HW116297   3.491   6.784   3.791 -1.2935 -1.2578  1.8961
 5172SOL    HW216298   3.544   6.925   3.798  0.7399 -1.6159 -2.7578
 5173SOL     OW16299   5.613   6.335   5.018  0.4409  0.6396 -0.3950
 5173SOL    HW116300   5.591   6.367   5.106  0.3016  2.3461 -1.0250
 5173SOL    HW216301   5.693   6.381   4.995  0.4587  0.2304 -1.1774
 5174SOL     OW16302   6.833   5.330   5.721 -0.3567  0.8018 -0.0143
 5174SOL    HW116303   6.783   5.304   5.643 -2.7117 -1.6069  2.1049
 5174SOL    HW216304   6.779   5.398   5.761  0.0337  0.8965  0.3516
 5175SOL     OW16305   7.037   3.221   4.844  0.2360 -0.5428 -0.2813
 5175SOL    HW116306   6.982   3.208   4.921  0.6422 -1.1883 -0.0929
 5175SOL    HW216307   7.096   3.292   4.869  0.1783 -0.5576 -0.1021
 5176SOL     OW16308   1.774   5.326   1.175 -0.3272 -0.0047  0.1184
 5176SOL    HW116309   1.748   5.405   1.221 -0.7101 -0.7524  1.2277
 5176SOL    HW216310   1.823   5.275   1.239 -1.0505 -1.1551 -0.2047
 5177SOL     OW16311   2.022   6.015   3.540 -0.1575  0.4283  0.2011
 5177SOL    HW116312   2.111   6.011   3.506 -0.5171  0.7994 -0.8116
 5177SOL    HW216313   2.001   5.924   3.563 -0.1933  0.0248 -1.3454
 5178SOL     OW16314   3.665   5.236   7.455 -0.1651 -0.3462 -0.0429
 5178SOL    HW116315   3.607   5.271   7.523  2.6972  0.3773  2.2144
 5178SOL    HW216316   3.697   5.313   7.408  1.3474 -0.4306  0.8113
 5179SOL     OW16317   5.897   5.447   3.772  0.1457 -0.1378  0.1264
 5179SOL    HW116318   5.866   5.439   3.682 -1.8405 -1.2902  0.8415
 5179SOL    HW216319   5.913   5.541   3.784 -0.1346  0.1072 -1.2422
 5180SOL     OW16320   5.294   0.596   0.177  0.1876 -0.1034  0.4753
 5180SOL    HW116321   5.352   0.651   0.125  1.2870 -1.2896  0.4010
 5180SOL    HW216322   5.353   0.539   0.227 -0.8499  0.3186  2.3040
 5181SOL     OW16323   5.557   1.601   8.253  0.3631  0.3955  0.5846
 5181SOL    HW116324   5.483   1.652   8.289  0.4579  0.9918 -0.0474
 5181SOL    HW216325   5.633   1.636   8.299  0.2389 -0.3908  1.4174
 5182SOL     OW16326   0.696   6.510   1.895  0.0355 -0.0161 -0.5216
 5182SOL    HW116327   0.715   6.560   1.974  1.3923 -1.3283  0.0253
 5182SOL    HW216328   0.600   6.510   1.890 -0.1077 -0.2467  1.3545
 5183SOL     OW16329   3.262   4.537   2.157  0.1590  0.0424 -0.0174
 5183SOL    HW116330   3.311   4.455   2.149  2.1255  1.1026  0.4036
 5183SOL    HW216331   3.277   4.583   2.074 -1.4607 -0.2677 -0.5082
 5184SOL     OW16332   2.384   1.116   6.389  0.3659 -0.1961  0.2244
 5184SOL    HW116333   2.399   1.160   6.305  0.5146 -1.4003 -0.4206
 5184SOL    HW216334   2.467   1.073   6.409 -0.1378 -1.2696  0.1255
 5185SOL     OW16335   8.301   1.934   6.560 -0.6950 -0.4348  0.3486
 5185SOL    HW116336   8.334   1.871   6.495  2.2494 -0.6577  1.9044
 5185SOL    HW216337   8.344   2.016   6.537 -1.3816  0.0379  0.7245
 5186SOL     OW16338   7.504   8.221   3.316 -0.1880 -0.0494  0.7260
 5186SOL    HW116339   7.536   8.247   3.402 -0.7048  2.3741  0.2661
 5186SOL    HW216340   7.429   8.278   3.300  0.1233 -0.1545 -1.4838
 5187SOL     OW16341   7.098   1.655   7.086 -0.9857 -0.1709  0.3996
 5187SOL    HW116342   7.067   1.713   7.155  0.8119 -1.8380  2.7772
 5187SOL    HW216343   7.031   1.587   7.080 -0.0735 -1.2991  2.2699
 5188SOL     OW16344   6.813   7.047   7.775  0.1306 -0.0225  0.2546
 5188SOL    HW116345   6.799   7.008   7.689  0.9995  0.9005 -0.3323
 5188SOL    HW216346   6.883   7.111   7.761 -0.6892  1.1699  1.3292
 5189SOL     OW16347   7.750   2.469   3.748 -0.1213  0.1232 -0.6688
 5189SOL    HW116348   7.744   2.388   3.698 -0.8508 -0.6703  0.6746
 5189SOL    HW216349   7.843   2.477   3.770  0.0033 -0.1710 -1.0792
 5190SOL     OW16350   2.262   2.710   0.721 -0.6409 -0.6875 -0.2088
 5190SOL    HW116351   2.299   2.746   0.801 -0.1936 -0.7396 -0.3872
 5190SOL    HW216352   2.336   2.665   0.679 -0.6374  0.1354 -1.1078
 5191SOL     OW16353   7.169   7.455   1.720  0.0361 -0.3222  0.2235
 5191SOL    HW116354   7.113   7.393   1.767  1.6772 -2.0696  0.0168
 5191SOL    HW216355   7.150   7.440   1.628 -0.4043  0.3466  0.2002
 5192SOL     OW16356   4.502   5.615   4.065  0.3170 -0.0655  1.1379
 5192SOL    HW116357   4.507   5.683   4.133 -1.9808  1.3949 -0.0141
 5192SOL    HW216358   4.536   5.536   4.108  0.2252  1.0781  3.5227
 5193SOL     OW16359   3.107   2.786   4.509 -1.0838  0.3601  0.0703
 5193SOL    HW116360   3.093   2.736   4.429 -0.5959 -3.2444  1.9980
 5193SOL    HW216361   3.180   2.843   4.490 -1.6620  0.3879 -2.3343
 5194SOL     OW16362   2.919   7.111   0.620  0.1211 -0.1365 -0.4743
 5194SOL    HW116363   2.911   7.203   0.644  2.4493  0.3326 -1.2091
 5194SOL    HW216364   3.011   7.090   0.637 -0.1742 -2.1255 -1.0578
 5195SOL     OW16365   4.059   0.295   5.034 -0.5702 -0.4089  0.4914
 5195SOL    HW116366   3.983   0.309   5.091 -1.2725 -1.1610 -0.2300
 5195SOL    HW216367   4.029   0.319   4.947  1.2430  3.2053  0.6701
 5196SOL     OW16368   4.238   2.222   7.712  0.2971 -0.3759 -0.1817
 5196SOL    HW116369   4.249   2.274   7.792  1.2777  0.2447 -0.7078
 5196SOL    HW216370   4.322   2.179   7.699 -0.0903 -1.0639 -0.4890
 5197SOL     OW16371   1.143   4.442   8.245 -0.5486 -0.3787  0.4836
 5197SOL    HW116372   1.180   4.372   8.191 -2.8183 -0.7490 -0.7300
 5197SOL    HW216373   1.143   4.406   8.334  0.9184 -0.7687  0.3494
 5198SOL     OW16374   2.103   6.549   7.414  0.0774 -0.1795  0.3899
 5198SOL    HW116375   2.018   6.547   7.370 -1.0715  1.6369  2.3458
 5198SOL    HW216376   2.108   6.636   7.453  2.5510 -0.4929  0.9394
 5199SOL     OW16377   5.416   5.697   5.011  0.4975 -0.2821 -0.0739
 5199SOL    HW116378   5.478   5.756   4.969  0.0932 -0.0772 -0.3957
 5199SOL    HW216379   5.331   5.721   4.974  0.3225 -1.0435 -0.1888
 5200SOL     OW16380   3.837   1.501   1.595 -0.7581 -0.1136 -0.6147
 5200SOL    HW116381   3.852   1.477   1.504 -0.6217  1.3855 -1.0201
 5200SOL    HW216382   3.770   1.570   1.591 -1.1741 -0.4323  0.4611
 5201SOL     OW16383   4.826   2.585   3.223 -0.0516  0.7437 -0.2801
 5201SOL    HW116384   4.852   2.544   3.305 -0.0528  2.1019  0.4268
 5201SOL    HW216385   4.731   2.595   3.231 -0.2588 -0.4137 -1.0745
 5202SOL     OW16386   6.321   5.807   5.260  0.4353  0.6164 -0.5133
 5202SOL    HW116387   6.244   5.789   5.314 -0.7431  1.5519 -1.8178
 5202SOL    HW216388   6.298   5.886   5.211  2.1202  0.7433 -1.1561
 5203SOL     OW16389   6.325   0.879   6.926  0.3037  0.1972 -0.3339
 5203SOL    HW116390   6.348   0.794   6.889 -1.2377 -0.3257 -0.1661
 5203SOL    HW216391   6.371   0.943   6.871 -0.0242 -0.6693 -1.6521
 5204SOL     OW16392   2.057   0.603   6.680  0.5210 -0.1978  0.4479
 5204SOL    HW116393   2.026   0.663   6.748 -0.1293  0.8689 -0.7477
 5204SOL    HW216394   2.100   0.659   6.616  1.0445 -1.1714 -0.0721
 5205SOL     OW16395   2.749   2.098   5.785 -0.1890 -0.5028 -0.3949
 5205SOL    HW116396   2.679   2.122   5.846 -0.1304  1.7493 -1.1163
 5205SOL    HW216397   2.816   2.056   5.840 -0.1727  1.3587  1.1107
 5206SOL     OW16398   2.183   1.301   7.457  0.0486 -0.0004 -0.0442
 5206SOL    HW116399   2.105   1.293   7.512 -0.3301 -1.5420 -0.7808
 5206SOL    HW216400   2.172   1.385   7.412 -1.9280 -0.8611 -1.2570
 5207SOL     OW16401   3.522   1.327   0.799  0.1271  0.4072  0.1514
 5207SOL    HW116402   3.475   1.245   0.785 -2.0036  1.8147 -1.5291
 5207SOL    HW216403   3.460   1.383   0.845  1.7425  0.9525  1.7710
 5208SOL     OW16404   0.627   0.672   6.661  0.0344  0.1322 -0.2946
 5208SOL    HW116405   0.677   0.610   6.713  1.3321  1.2570 -0.1200
 5208SOL    HW216406   0.669   0.670   6.575 -0.7360 -0.1660 -0.6673
 5209SOL     OW16407   3.674   7.585   8.160  0.2676  0.5917 -0.3650
 5209SOL    HW116408   3.663   7.670   8.201 -0.9674  0.2950 -0.0272
 5209SOL    HW216409   3.636   7.523   8.223  1.2221 -0.2139 -0.5674
 5210SOL     OW16410   1.557   5.232   7.172 -0.4528  0.2075  0.1499
 5210SOL    HW116411   1.542   5.171   7.244 -2.2178  2.3711  1.7302
 5210SOL    HW216412   1.623   5.293   7.205 -1.6585  1.5355  0.1745
 5211SOL     OW16413   3.384   4.279   1.543  0.3223  0.0013 -0.3182
 5211SOL    HW116414   3.386   4.218   1.470 -1.7954 -0.5510  0.0129
 5211SOL    HW216415   3.457   4.251   1.600 -0.3788 -2.0232 -0.3459
 5212SOL     OW16416   5.346   0.871   8.091  0.6168 -0.1833  0.1181
 5212SOL    HW116417   5.339   0.964   8.069 -1.3691  0.0015  1.2485
 5212SOL    HW216418   5.381   0.871   8.181  3.3880 -0.7014 -0.8656
 5213SOL     OW16419   7.414   3.733   6.933 -0.0695  0.1250 -0.1875
 5213SOL    HW116420   7.499   3.715   6.891 -0.3948 -0.8234 -0.4550
 5213SOL    HW216421   7.405   3.828   6.928 -0.3030  0.0347 -2.7122
 5214SOL     OW16422   4.224   1.028   6.728 -0.0322 -0.5522 -0.2213
 5214SOL    HW116423   4.295   0.980   6.770  0.6669  0.0580 -0.6839
 5214SOL    HW216424   4.224   1.113   6.771 -1.7506 -1.1590  1.1239
 5215SOL     OW16425   4.963   4.499   4.511 -0.5262 -0.2858  0.5657
 5215SOL    HW116426   4.888   4.554   4.535 -0.5140  0.2110 -0.4828
 5215SOL    HW216427   5.037   4.540   4.556 -0.6612  0.0534  0.4829
 5216SOL     OW16428   2.157   6.767   0.473 -0.7830 -0.4152 -0.1803
 5216SOL    HW116429   2.134   6.720   0.554  0.2773 -2.9691 -1.2269
 5216SOL    HW216430   2.074   6.779   0.428 -1.3154  0.5215  0.9971
 5217SOL     OW16431   1.810   4.214   7.004  0.2237 -0.3099 -0.4641
 5217SOL    HW116432   1.770   4.161   7.073  0.8857 -0.0116  0.1595
 5217SOL    HW216433   1.737   4.260   6.964 -0.0241  0.7003  1.0665
 5218SOL     OW16434   2.302   7.409   5.630  0.2096 -0.0403  0.4112
 5218SOL    HW116435   2.303   7.385   5.723  0.1457 -1.0330  0.1698
 5218SOL    HW216436   2.302   7.325   5.584 -0.0537  0.4420 -0.4863
 5219SOL     OW16437   3.173   0.697   6.719  0.0505 -0.0854  0.3410
 5219SOL    HW116438   3.197   0.749   6.643  1.4786  1.9290  2.0302
 5219SOL    HW216439   3.243   0.633   6.728 -0.0851 -0.2812 -0.0020
 5220SOL     OW16440   3.181   3.744   3.374  0.0542  0.3917  1.0731
 5220SOL    HW116441   3.201   3.650   3.372  2.8225  0.7323 -3.6248
 5220SOL    HW216442   3.248   3.781   3.431 -0.4160 -0.3699  2.1505
 5221SOL     OW16443   2.982   0.830   4.803 -0.1252  0.5809  0.0998
 5221SOL    HW116444   2.941   0.897   4.748  0.4507  0.9534  0.1131
 5221SOL    HW216445   2.965   0.747   4.758  0.4775  0.8982 -0.7310
 5222SOL     OW16446   7.248   7.482   2.854  0.6272  0.8027 -0.6648
 5222SOL    HW116447   7.216   7.570   2.869  0.9568  0.6551  1.0718
 5222SOL    HW216448   7.343   7.492   2.841  0.6367  0.7188 -0.6648
 5223SOL     OW16449   2.773   0.524   3.437 -0.2963 -0.7617  0.0801
 5223SOL    HW116450   2.822   0.444   3.458  0.9605 -0.1744 -0.5132
 5223SOL    HW216451   2.818   0.593   3.486 -0.2834 -0.1497 -0.7748
 5224SOL     OW16452   0.547   1.638   4.314  0.2763 -0.4918  0.3058
 5224SOL    HW116453   0.619   1.652   4.376  2.0821 -1.2714 -1.5153
 5224SOL    HW216454   0.581   1.670   4.231 -0.3203 -3.5973 -1.2501
 5225SOL     OW16455   2.696   8.169   6.253 -0.0250 -0.1313  0.0077
 5225SOL    HW116456   2.748   8.131   6.182 -0.9970  0.3474 -0.9953
 5225SOL    HW216457   2.760   8.190   6.322  1.2120  1.0833 -1.4410
 5226SOL     OW16458   2.444   5.593   4.653  0.2962  0.1839  0.4064
 5226SOL    HW116459   2.493   5.646   4.590  1.4624 -3.1968 -1.8132
 5226SOL    HW216460   2.356   5.587   4.617  0.4325 -0.1621  0.1266
 5227SOL     OW16461   1.344   5.907   3.313 -0.0228 -0.2310 -0.0574
 5227SOL    HW116462   1.310   5.818   3.321 -0.2581 -0.2659 -1.3491
 5227SOL    HW216463   1.396   5.907   3.233  0.5553  0.6160  0.2972
 5228SOL     OW16464   6.611   4.871   0.685  0.5200  0.1143 -0.3741
 5228SOL    HW116465   6.632   4.855   0.593 -1.6092 -0.1208 -0.8856
 5228SOL    HW216466   6.614   4.784   0.726 -1.4154 -0.2662 -0.9346
 5229SOL     OW16467   6.016   1.390   1.049 -0.4755  0.2193  0.5459
 5229SOL    HW116468   5.996   1.302   1.016 -2.1195  0.5833  0.5001
 5229SOL    HW216469   5.935   1.420   1.089  0.0239  1.7657  0.4716
 5230SOL     OW16470   2.412   5.497   2.831  0.2456  0.3620 -0.6656
 5230SOL    HW116471   2.402   5.583   2.872  1.3449  0.2185 -0.0473
 5230SOL    HW216472   2.424   5.516   2.738  1.3154  0.9644 -0.4300
 5231SOL     OW16473   7.290   3.525   5.512  0.1312 -0.2220 -0.5887
 5231SOL    HW116474   7.208   3.503   5.557 -0.0569 -2.6899 -1.9719
 5231SOL    HW216475   7.358   3.497   5.573 -0.0382  0.7767  0.0809
 5232SOL     OW16476   6.981   3.004   0.987  0.1188  0.2894  0.7032
 5232SOL    HW116477   6.981   3.076   1.050  0.3256 -1.4551  2.7819
 5232SOL    HW216478   6.912   2.946   1.017  1.5338 -1.5765  0.5108
 5233SOL     OW16479   5.346   4.993   6.983 -0.0900 -0.2518 -0.0291
 5233SOL    HW116480   5.416   4.954   6.930 -2.0170 -0.5918 -2.4629
 5233SOL    HW216481   5.265   4.961   6.944 -1.7744  3.9071 -0.4322
 5234SOL     OW16482   8.304   5.406   4.865  0.1027  0.0286  0.3391
 5234SOL    HW116483   8.372   5.407   4.798  0.3719  0.0185  0.6097
 5234SOL    HW216484   8.351   5.415   4.948 -0.2277  0.0622  0.5278
 5235SOL     OW16485   1.865   5.073   0.391 -0.2654  0.0272 -0.3333
 5235SOL    HW116486   1.840   4.993   0.345  0.8628 -1.0923  0.8985
 5235SOL    HW216487   1.954   5.055   0.422 -0.2598  1.4888  0.5832
 5236SOL     OW16488   7.794   0.470   6.797 -0.4316 -0.1074 -0.2508
 5236SOL    HW116489   7.849   0.392   6.799  1.5418  1.2247  1.3280
 5236SOL    HW216490   7.848   0.536   6.753 -1.6596  0.6696 -0.6366
 5237SOL     OW16491   3.247   1.752   5.816 -0.1925  0.4376  0.2623
 5237SOL    HW116492   3.163   1.790   5.789 -0.8606  0.4120  2.1796
 5237SOL    HW216493   3.303   1.828   5.830 -0.8404  0.6699  1.8689
 5238SOL     OW16494   4.512   1.206   7.099  0.3643  0.4588 -0.2497
 5238SOL    HW116495   4.476   1.285   7.139 -0.2741 -0.2697  0.6413
 5238SOL    HW216496   4.562   1.164   7.169 -1.6757 -1.4062  0.1738
 5239SOL     OW16497   5.700   6.308   7.748 -0.2219 -0.3020  0.6388
 5239SOL    HW116498   5.780   6.321   7.799  0.3669 -1.0117 -0.0969
 5239SOL    HW216499   5.662   6.227   7.783  1.2517 -1.9493 -1.3608
 5240SOL     OW16500   6.572   2.669   2.605  0.0710  0.1699 -0.5271
 5240SOL    HW116501   6.634   2.675   2.532  0.2570  1.0451 -0.3099
 5240SOL    HW216502   6.611   2.605   2.664  1.2236  1.3192  0.0149
 5241SOL     OW16503   5.214   1.936   4.034  0.8752  0.1371  0.0086
 5241SOL    HW116504   5.234   1.866   3.971  0.7778  0.1385 -0.0232
 5241SOL    HW216505   5.174   2.005   3.981 -0.7876 -0.5315  0.3235
 5242SOL     OW16506   1.396   0.560   7.016  0.4421 -0.0484  0.3628
 5242SOL    HW116507   1.354   0.481   6.981  1.2453  0.1543 -1.1596
 5242SOL    HW216508   1.330   0.600   7.071 -0.6548 -0.7905 -0.3663
 5243SOL     OW16509   0.999   4.675   4.681  0.1661  0.1857 -0.5455
 5243SOL    HW116510   0.962   4.760   4.658  0.2783  0.7698  1.2925
 5243SOL    HW216511   1.082   4.671   4.634 -0.5564  0.3992 -1.8762
 5244SOL     OW16512   1.863   1.028   7.926  0.1464  0.2724  0.1848
 5244SOL    HW116513   1.883   1.007   7.835 -0.3794  0.5880 -0.0052
 5244SOL    HW216514   1.840   0.944   7.965 -2.8429  0.5290 -0.7946
 5245SOL     OW16515   0.474   0.713   3.433 -0.4426  0.0802  0.2220
 5245SOL    HW116516   0.384   0.685   3.414 -0.1741 -0.4552 -0.2811
 5245SOL    HW216517   0.501   0.760   3.354  0.1285 -0.7815 -0.1002
 5246SOL     OW16518   3.820   3.845   4.982 -0.0130  0.1814 -0.1000
 5246SOL    HW116519   3.860   3.766   5.020  1.2471  0.6597 -0.3971
 5246SOL    HW216520   3.826   3.911   5.051  2.2743  1.0505 -1.0444
 5247SOL     OW16521   4.379   4.972   7.817  0.5401  0.1717 -0.2622
 5247SOL    HW116522   4.317   4.922   7.763 -0.6035  0.4260  0.7778
 5247SOL    HW216523   4.442   4.907   7.847 -0.3016 -0.4716  0.1746
 5248SOL     OW16524   5.130   2.484   1.265 -0.2068 -0.2122 -0.0385
 5248SOL    HW116525   5.094   2.403   1.228  0.8925 -0.7586  0.0393
 5248SOL    HW216526   5.057   2.545   1.265 -1.6390 -1.7817  1.6882
 5249SOL     OW16527   5.480   3.707   7.742 -0.2160  0.6910  0.1262
 5249SOL    HW116528   5.540   3.635   7.760 -0.8417  0.0864 -0.1547
 5249SOL    HW216529   5.477   3.756   7.824 -1.1301 -0.6258  0.9167
 5250SOL     OW16530   3.798   6.472   4.982 -0.1335  0.1680 -0.3431
 5250SOL    HW116531   3.790   6.540   5.049  2.1867 -0.4369  0.6468
 5250SOL    HW216532   3.730   6.408   5.003 -0.4808  0.7831  0.4407
 5251SOL     OW16533   6.853   0.734   1.921  0.1189 -0.3719 -0.2515
 5251SOL    HW116534   6.916   0.685   1.869  0.7625  1.1407 -0.9430
 5251SOL    HW216535   6.893   0.820   1.935 -0.1067 -0.6305  2.6197
 5252SOL     OW16536   7.463   4.125   0.564  0.1651  0.1574  0.2775
 5252SOL    HW116537   7.419   4.139   0.648 -0.9843  0.6047 -0.3880
 5252SOL    HW216538   7.453   4.031   0.547  0.3259  0.0807  0.5803
 5253SOL     OW16539   1.130   5.653   0.837  0.8287 -0.1219 -0.0176
 5253SOL    HW116540   1.180   5.690   0.764  0.4419 -1.0789 -0.7872
 5253SOL    HW216541   1.190   5.659   0.912  1.3841  0.4865 -0.4896
 5254SOL     OW16542   7.065   7.343   6.332  0.1957  0.7255  0.0284
 5254SOL    HW116543   6.973   7.315   6.322 -0.2485  2.2587 -0.4488
 5254SOL    HW216544   7.116   7.269   6.298 -0.8452 -0.1870  0.3688
 5255SOL     OW16545   4.514   5.001   0.925 -0.7683 -0.1880  0.1967
 5255SOL    HW116546   4.531   4.925   0.870  1.0108 -0.0839  0.5584
 5255SOL    HW216547   4.421   5.020   0.911 -0.9710 -1.7185 -0.7713
 5256SOL     OW16548   3.088   7.998   8.254 -0.2020  0.3793 -0.3408
 5256SOL    HW116549   3.042   7.941   8.316 -1.9135  3.1368  1.1142
 5256SOL    HW216550   3.020   8.055   8.219  1.4224  1.5838 -1.6900
 5257SOL     OW16551   4.344   7.133   0.300  0.3333 -0.0631  0.0497
 5257SOL    HW116552   4.286   7.194   0.254  0.6906 -1.5621 -2.5910
 5257SOL    HW216553   4.416   7.188   0.331  0.8866  0.8858 -2.6334
 5258SOL     OW16554   7.306   5.478   5.159  0.0451  0.1320 -0.2394
 5258SOL    HW116555   7.392   5.440   5.178  0.7766  2.1325  0.6999
 5258SOL    HW216556   7.280   5.519   5.240 -0.9707  1.1200 -1.0428
 5259SOL     OW16557   8.029   4.081   1.073 -0.5024 -0.8578  0.0923
 5259SOL    HW116558   8.006   4.169   1.042 -0.0147 -1.1695 -1.2276
 5259SOL    HW216559   8.087   4.046   1.004 -1.0723 -2.3903  0.3591
 5260SOL     OW16560   2.736   3.033   6.662 -0.0568  0.0679  0.2544
 5260SOL    HW116561   2.664   3.036   6.725  0.0220  0.3709  0.3287
 5260SOL    HW216562   2.697   3.062   6.579  0.1316  0.8432  0.4370
 5261SOL     OW16563   2.835   7.631   6.954 -0.7371 -0.0836 -0.3159
 5261SOL    HW116564   2.751   7.601   6.989 -0.3312 -0.5149  0.3217
 5261SOL    HW216565   2.864   7.560   6.897 -0.8320  0.0860 -0.5723
 5262SOL     OW16566   7.555   7.671   6.883  0.3648 -0.4329  0.1523
 5262SOL    HW116567   7.592   7.677   6.971  1.0546 -0.9783 -0.0880
 5262SOL    HW216568   7.631   7.662   6.826 -0.0360  0.6596 -0.5843
 5263SOL     OW16569   6.279   7.892   6.992  0.1146 -0.5381  0.1069
 5263SOL    HW116570   6.203   7.939   6.957 -0.9561 -0.8633  1.8798
 5263SOL    HW216571   6.349   7.956   6.990  0.3483 -0.6906 -3.1138
 5264SOL     OW16572   1.079   0.769   5.853  0.1762 -0.0164  0.4092
 5264SOL    HW116573   1.072   0.841   5.915 -1.3833 -0.7810  1.1819
 5264SOL    HW216574   1.097   0.811   5.769  2.0926  1.0497  1.2978
 5265SOL     OW16575   4.711   0.463   8.112 -0.5260  0.7201 -0.3493
 5265SOL    HW116576   4.648   0.409   8.161 -0.1137 -0.4287 -1.0446
 5265SOL    HW216577   4.782   0.403   8.091  0.7470  1.9530  0.2715
 5266SOL     OW16578   7.387   3.503   6.781 -0.4497 -0.3342 -0.0378
 5266SOL    HW116579   7.381   3.570   6.849  1.4271 -0.0688 -0.0781
 5266SOL    HW216580   7.329   3.535   6.711 -1.3101  0.0971  0.8480
 5267SOL     OW16581   4.037   7.097   1.269 -0.0317  0.5207  0.7832
 5267SOL    HW116582   3.942   7.092   1.257  0.2738 -2.8755 -1.3275
 5267SOL    HW216583   4.051   7.061   1.357 -0.6628  2.1024  1.5913
 5268SOL     OW16584   3.780   1.541   2.613 -0.0985  0.1435  0.0861
 5268SOL    HW116585   3.838   1.465   2.616 -0.0278  0.1377 -1.2205
 5268SOL    HW216586   3.799   1.588   2.695  1.1524 -0.2921  0.0653
 5269SOL     OW16587   0.897   2.069   4.594 -0.0920 -0.0266  0.2800
 5269SOL    HW116588   0.877   2.072   4.501 -0.4915 -0.6237  0.3368
 5269SOL    HW216589   0.903   1.975   4.614 -1.9474  0.0037  1.2496
 5270SOL     OW16590   6.888   6.233   4.552  0.0793  0.1101  0.0929
 5270SOL    HW116591   6.807   6.226   4.602 -1.5519  2.7651 -1.9485
 5270SOL    HW216592   6.950   6.272   4.614 -0.9845  0.5142  0.9410
 5271SOL     OW16593   4.771   0.746   0.624  0.4381 -0.4341  0.0683
 5271SOL    HW116594   4.765   0.837   0.594 -1.9940 -0.4288  0.3396
 5271SOL    HW216595   4.790   0.696   0.544 -1.7604  0.0073 -0.8028
 5272SOL     OW16596   5.844   5.992   4.108  0.3911 -0.5055  0.2120
 5272SOL    HW116597   5.832   6.077   4.150  0.8014  0.0791 -0.8190
 5272SOL    HW216598   5.939   5.976   4.112  0.2050 -1.4791  1.4392
 5273SOL     OW16599   6.185   3.402   5.697  0.4811 -0.2552 -0.3952
 5273SOL    HW116600   6.244   3.339   5.656  0.5828 -1.6880  1.8099
 5273SOL    HW216601   6.222   3.416   5.785 -1.6662 -0.1009  0.5382
 5274SOL     OW16602   5.116   8.200   7.691  0.2865  0.3320  0.6432
 5274SOL    HW116603   5.209   8.182   7.676  0.5267  1.4258  0.7114
 5274SOL    HW216604   5.112   8.234   7.780 -0.1704  0.3692  0.6116
 5275SOL     OW16605   6.400   3.707   4.802  0.5976  0.0157  0.1250
 5275SOL    HW116606   6.396   3.707   4.898 -1.6829 -0.4395  0.0784
 5275SOL    HW216607   6.365   3.792   4.776 -2.4097 -1.2317 -0.3003
 5276SOL     OW16608   0.793   5.066   0.988 -0.1180  0.0894  0.1750
 5276SOL    HW116609   0.857   5.124   0.946  0.6940 -1.7083 -1.1727
 5276SOL    HW216610   0.708   5.107   0.968  0.3115 -0.0796 -2.3296
 5277SOL     OW16611   7.998   0.470   7.627  0.7674  0.6202  0.2585
 5277SOL    HW116612   8.042   0.474   7.712  0.2297  0.2862  0.5631
 5277SOL    HW216613   8.035   0.542   7.577  2.9326 -0.6585 -0.1347
 5278SOL     OW16614   5.893   2.648   2.402 -0.7347 -0.1847 -0.6471
 5278SOL    HW116615   5.871   2.741   2.409 -0.8938 -0.1896 -1.0575
 5278SOL    HW216616   5.812   2.603   2.425 -0.6001 -0.2303 -0.2400
 5279SOL     OW16617   2.002   0.201   2.800  0.3269 -0.1322  0.1265
 5279SOL    HW116618   2.071   0.135   2.798  0.6473  0.1956  0.2547
 5279SOL    HW216619   1.959   0.187   2.885  0.8690  0.2994  0.4798
 5280SOL     OW16620   7.135   6.233   6.441 -0.0866  0.0227  0.3337
 5280SOL    HW116621   7.230   6.248   6.438  0.0448 -0.5376  1.3388
 5280SOL    HW216622   7.107   6.245   6.350  1.0409 -0.3579 -0.0962
 5281SOL     OW16623   5.999   5.341   2.877  0.4537 -0.2187  0.3392
 5281SOL    HW116624   5.959   5.426   2.894  0.4685 -0.4628  1.7022
 5281SOL    HW216625   5.934   5.293   2.826 -0.3331 -0.0328  1.1438
 5282SOL     OW16626   0.916   3.638   0.544  0.0849  0.1590 -0.4574
 5282SOL    HW116627   0.995   3.592   0.517 -0.0686 -0.1402 -0.4094
 5282SOL    HW216628   0.877   3.581   0.610  0.1037  0.5569 -0.1003
 5283SOL     OW16629   5.798   0.631   5.543  0.2023  0.6846  0.0364
 5283SOL    HW116630   5.772   0.617   5.635  0.7586  0.5521  0.1811
 5283SOL    HW216631   5.721   0.670   5.502  0.0109  0.9285  0.6081
 5284SOL     OW16632   1.010   1.237   5.010 -0.0615  0.0500  0.1076
 5284SOL    HW116633   1.026   1.143   5.003  0.7232  0.2044 -0.1594
 5284SOL    HW216634   1.059   1.264   5.088  0.2277  0.3539 -0.1785
 5285SOL     OW16635   0.753   5.477   6.253  0.3409 -0.3090 -0.0780
 5285SOL    HW116636   0.823   5.449   6.311  0.4188  0.9807  0.4906
 5285SOL    HW216637   0.674   5.440   6.291  0.2113  1.6330  1.6959
 5286SOL     OW16638   7.214   4.457   3.397  0.7376  0.3485 -0.0109
 5286SOL    HW116639   7.287   4.405   3.431  0.7628  1.1886  1.2963
 5286SOL    HW216640   7.144   4.444   3.461  0.2840  0.8244 -0.4065
 5287SOL     OW16641   4.051   4.320   4.176 -0.1626  0.0248  0.3035
 5287SOL    HW116642   4.088   4.236   4.205 -0.3307  0.2323  1.1432
 5287SOL    HW216643   4.115   4.386   4.205 -0.2750  0.2280  0.0893
 5288SOL     OW16644   5.227   5.876   1.148 -1.1716 -0.4951 -0.1557
 5288SOL    HW116645   5.174   5.819   1.092  0.5084 -2.2350 -0.0703
 5288SOL    HW216646   5.261   5.943   1.089 -1.6227 -0.6919 -0.6469
 5289SOL     OW16647   4.861   6.831   1.102 -0.3736 -0.0054  0.2707
 5289SOL    HW116648   4.807   6.804   1.027 -1.6317  0.5488  0.9404
 5289SOL    HW216649   4.879   6.749   1.148 -2.0199 -0.0678  0.8966
 5290SOL     OW16650   3.326   6.409   4.512  0.0361 -0.3511 -0.3628
 5290SOL    HW116651   3.339   6.389   4.420  0.2274 -0.1490 -0.3806
 5290SOL    HW216652   3.260   6.346   4.542 -0.2460 -0.2224 -0.7101
 5291SOL     OW16653   6.242   0.493   7.554 -0.0186  0.6017  0.0281
 5291SOL    HW116654   6.202   0.572   7.591  0.1440  0.3065  0.8335
 5291SOL    HW216655   6.224   0.424   7.617  0.1003  0.0507 -0.5311
 5292SOL     OW16656   5.772   7.813   6.155  0.1147  0.2966 -0.1009
 5292SOL    HW116657   5.809   7.897   6.126  1.5373 -0.1377  0.3722
 5292SOL    HW216658   5.685   7.836   6.188  1.1441  1.9316  1.7118
 5293SOL     OW16659   2.796   2.144   8.109  0.3398 -0.0347  0.3895
 5293SOL    HW116660   2.800   2.117   8.201  1.9048 -0.5755  0.1863
 5293SOL    HW216661   2.765   2.067   8.062  0.2387  0.0200  0.3643
 5294SOL     OW16662   3.714   5.434   4.811 -0.2222  0.3691  0.3538
 5294SOL    HW116663   3.795   5.396   4.844 -1.6562 -0.7580  2.8895
 5294SOL    HW216664   3.723   5.528   4.828 -0.4444 -0.0412  3.1790
 5295SOL     OW16665   5.803   4.928   5.274 -0.1126 -0.1593  0.5533
 5295SOL    HW116666   5.852   5.009   5.267 -0.3749  0.0242  0.8395
 5295SOL    HW216667   5.866   4.860   5.250 -0.6528  0.3238 -2.7502
 5296SOL     OW16668   0.976   2.151   5.271 -0.2313  0.1955 -0.1287
 5296SOL    HW116669   0.960   2.057   5.273 -0.8446  0.2611 -1.1290
 5296SOL    HW216670   0.919   2.184   5.201 -1.2199  1.5426  1.2331
 5297SOL     OW16671   6.326   5.737   4.549  0.0085 -0.1167  0.0516
 5297SOL    HW116672   6.242   5.700   4.520 -0.0784  0.0781  0.0541
 5297SOL    HW216673   6.391   5.696   4.491 -0.0802 -0.3139  0.0898
 5298SOL     OW16674   3.704   2.001   7.915 -0.0267 -0.0220  0.6725
 5298SOL    HW116675   3.665   1.917   7.939  0.2015 -0.0931  0.7979
 5298SOL    HW216676   3.629   2.056   7.891 -0.3092  0.1841  1.9409
 5299SOL     OW16677   2.840   3.555   3.375 -0.1102  0.5616  0.7208
 5299SOL    HW116678   2.901   3.597   3.316 -0.9777  1.7276  0.6170
 5299SOL    HW216679   2.891   3.487   3.419  0.6457 -0.0618 -1.0552
 5300SOL     OW16680   5.890   7.979   5.695  0.4635 -0.3726 -0.0694
 5300SOL    HW116681   5.816   7.923   5.719  0.6052 -0.5551 -0.0630
 5300SOL    HW216682   5.876   7.998   5.603  0.7289 -0.8951 -0.2219
 5301SOL     OW16683   3.791   7.147   8.077 -0.1069 -0.0255  0.3380
 5301SOL    HW116684   3.823   7.060   8.053 -0.4159 -0.0105 -0.1409
 5301SOL    HW216685   3.865   7.205   8.059  0.7492 -0.4081  2.4107
 5302SOL     OW16686   5.955   2.673   4.120  0.1529  0.3631  0.3328
 5302SOL    HW116687   5.983   2.704   4.034  2.8998  1.3580  1.4663
 5302SOL    HW216688   6.004   2.591   4.133  0.6720  0.8163  1.3722
 5303SOL     OW16689   2.657   3.438   4.229  0.1580  0.6379 -0.1154
 5303SOL    HW116690   2.645   3.532   4.240 -1.7947  0.4735 -0.4841
 5303SOL    HW216691   2.649   3.423   4.135  0.2320  0.0940 -0.0393
 5304SOL     OW16692   1.850   0.962   1.220  0.3790  0.4796 -0.0824
 5304SOL    HW116693   1.815   0.884   1.177  0.4233  0.5734 -0.2879
 5304SOL    HW216694   1.861   0.936   1.311  4.2876 -1.1602 -0.8207
 5305SOL     OW16695   5.498   5.711   2.705 -0.3481  0.3249 -0.4055
 5305SOL    HW116696   5.483   5.786   2.763  0.2717  0.2099 -0.0870
 5305SOL    HW216697   5.479   5.745   2.617 -0.3947  0.7601 -0.2308
 5306SOL     OW16698   0.223   6.672   1.430 -0.4569  0.2785 -0.1262
 5306SOL    HW116699   0.289   6.716   1.376  0.9337 -1.1336  0.3550
 5306SOL    HW216700   0.172   6.620   1.367 -0.4590  0.5894 -0.3855
 5307SOL     OW16701   4.740   5.335   5.015  0.5725 -0.2961 -0.3097
 5307SOL    HW116702   4.836   5.329   5.009  0.6709  1.0507 -0.3461
 5307SOL    HW216703   4.723   5.424   5.045 -0.7049 -0.1735 -1.2862
 5308SOL     OW16704   0.110   7.926   7.924 -0.4698  0.4326  0.3444
 5308SOL    HW116705   0.027   7.972   7.934  0.3096  1.5810  2.0377
 5308SOL    HW216706   0.096   7.866   7.851 -2.0897  2.1118 -0.8116
 5309SOL     OW16707   0.714   6.727   1.743 -0.1673  0.8077  0.1826
 5309SOL    HW116708   0.632   6.763   1.710 -0.3983  0.2856  0.1831
 5309SOL    HW216709   0.691   6.639   1.773  0.3442  0.7452  0.3910
 5310SOL     OW16710   6.152   1.691   7.187  0.5083 -0.3708  0.3533
 5310SOL    HW116711   6.058   1.683   7.174  0.8234 -2.0730 -1.4476
 5310SOL    HW216712   6.179   1.604   7.218  1.7472 -0.6859 -1.4532
 5311SOL     OW16713   6.985   2.490   7.025  0.0931 -0.5107  0.5315
 5311SOL    HW116714   7.053   2.510   6.961 -0.2867 -1.3901 -0.1712
 5311SOL    HW216715   7.026   2.426   7.084  0.7451  0.9772  1.7478
 5312SOL     OW16716   3.945   6.865   3.157 -0.6189 -0.0404 -0.4568
 5312SOL    HW116717   3.978   6.813   3.230 -3.7347  0.2165  1.3260
 5312SOL    HW216718   3.965   6.955   3.180  0.1973 -0.0796 -0.9751
 5313SOL     OW16719   4.938   6.636   6.661  0.2383  0.0692  0.1785
 5313SOL    HW116720   4.873   6.682   6.606  2.5020  0.7910 -2.0966
 5313SOL    HW216721   4.908   6.545   6.662 -2.2169  0.7926  1.4841
 5314SOL     OW16722   0.898   0.420   6.558 -0.3044  0.5079 -0.3777
 5314SOL    HW116723   0.916   0.326   6.555  1.4894  0.7562  1.0315
 5314SOL    HW216724   0.815   0.427   6.606 -0.4628 -0.3497 -0.5185
 5315SOL     OW16725   3.085   6.545   0.367  0.2366 -0.6577  0.1614
 5315SOL    HW116726   3.098   6.517   0.458 -1.1527  2.8034  1.5735
 5315SOL    HW216727   3.174   6.551   0.331  0.8276 -1.8227  1.3066
 5316SOL     OW16728   6.635   2.467   4.442 -0.4049  0.6621 -0.4082
 5316SOL    HW116729   6.719   2.513   4.445  0.0624 -0.1398 -0.7741
 5316SOL    HW216730   6.600   2.486   4.355  0.1291 -0.2291 -0.8357
 5317SOL     OW16731   2.958   4.356   6.413 -0.3084 -0.1662  0.0782
 5317SOL    HW116732   2.896   4.333   6.482 -0.8111  0.2109 -0.2383
 5317SOL    HW216733   2.908   4.346   6.332  0.5588 -1.5975 -0.3317
 5318SOL     OW16734   7.871   3.540   7.792  0.2815 -0.5518  0.7163
 5318SOL    HW116735   7.868   3.473   7.861 -0.2123 -0.8945  0.3724
 5318SOL    HW216736   7.962   3.569   7.790  0.1226  0.1566  2.1744
 5319SOL     OW16737   0.045   8.146   3.074  0.6712  0.2973  0.3941
 5319SOL    HW116738   0.055   8.169   3.167 -1.7721 -1.5514  1.2184
 5319SOL    HW216739   0.075   8.055   3.069 -0.3353 -0.0106 -0.3460
 5320SOL     OW16740   2.547   1.112   7.508  0.5836  0.5405 -0.2273
 5320SOL    HW116741   2.522   1.195   7.549 -0.9507  1.1135 -2.1782
 5320SOL    HW216742   2.464   1.072   7.481  1.3918 -0.8893 -0.6974
 5321SOL     OW16743   4.923   0.287   3.541  0.2248  0.0082 -0.2565
 5321SOL    HW116744   5.000   0.254   3.587  0.0874 -1.0685 -0.7728
 5321SOL    HW216745   4.959   0.349   3.477  0.5485  0.3472  0.2415
 5322SOL     OW16746   5.905   7.247   0.354  0.6277  0.4249  0.5194
 5322SOL    HW116747   5.836   7.266   0.418  0.0550 -1.4738  0.5376
 5322SOL    HW216748   5.986   7.257   0.403  0.4514  3.1225  0.3830
 5323SOL     OW16749   0.412   0.427   1.729  0.4798  0.2023  0.3771
 5323SOL    HW116750   0.388   0.514   1.762  0.6608  0.9929 -1.4535
 5323SOL    HW216751   0.366   0.366   1.788  0.1053  1.5233  1.5194
 5324SOL     OW16752   4.161   2.024   3.018  0.2851  0.3470 -0.1236
 5324SOL    HW116753   4.216   1.993   3.090  2.9613  1.7248 -1.4519
 5324SOL    HW216754   4.211   2.004   2.939 -0.9209  2.0176 -1.3820
 5325SOL     OW16755   5.242   5.997   6.202 -0.3746 -0.0610  0.6012
 5325SOL    HW116756   5.313   6.054   6.230  1.1790 -1.5550 -0.0895
 5325SOL    HW216757   5.242   5.926   6.266 -0.3143 -0.7658 -0.1594
 5326SOL     OW16758   4.813   0.209   1.049 -0.3522  0.2117 -0.1311
 5326SOL    HW116759   4.794   0.250   0.964  1.2731 -1.4382 -1.3708
 5326SOL    HW216760   4.799   0.115   1.034 -1.3144 -0.0158  1.8412
 5327SOL     OW16761   6.578   1.055   3.683 -0.4466 -0.5942  0.4303
 5327SOL    HW116762   6.643   1.123   3.668  0.3385 -0.7961  2.5555
 5327SOL    HW216763   6.506   1.101   3.728  0.3392 -1.1988  2.4101
 5328SOL     OW16764   2.438   2.467   7.332 -0.8334 -0.4853  0.5248
 5328SOL    HW116765   2.389   2.515   7.399 -1.4749  1.5289 -1.2686
 5328SOL    HW216766   2.375   2.455   7.261  0.6638  0.3305 -1.0021
 5329SOL     OW16767   5.919   0.582   1.950  0.0046 -0.1207 -0.1315
 5329SOL    HW116768   5.830   0.617   1.947  0.2338  0.6292  1.3163
 5329SOL    HW216769   5.911   0.493   1.915 -0.8135  0.8477 -2.6510
 5330SOL     OW16770   7.295   5.830   5.685  0.5930 -0.1525 -0.3172
 5330SOL    HW116771   7.301   5.739   5.714 -0.0966 -0.3527 -0.7845
 5330SOL    HW216772   7.374   5.871   5.720  0.0112 -0.4766  1.4863
 5331SOL     OW16773   8.287   1.375   2.087  0.1567  0.6159 -0.4098
 5331SOL    HW116774   8.271   1.281   2.090 -0.9547  0.8171  1.2106
 5331SOL    HW216775   8.370   1.386   2.133  1.0011  0.3198 -1.8182
 5332SOL     OW16776   0.199   0.103   6.660  0.3659 -0.1822  0.4262
 5332SOL    HW116777   0.135   0.170   6.685  0.5209 -0.5936  2.0648
 5332SOL    HW216778   0.186   0.033   6.723  2.2893 -0.3625  0.6871
 5333SOL     OW16779   0.776   6.323   6.662  0.6431  0.4095  0.2061
 5333SOL    HW116780   0.858   6.349   6.619  1.7892  0.6950  2.4187
 5333SOL    HW216781   0.800   6.314   6.754 -0.9195 -3.2736  0.4170
 5334SOL     OW16782   1.254   0.327   6.965  0.1682 -0.0335  0.7256
 5334SOL    HW116783   1.289   0.254   6.913  1.0630  0.8924 -0.0181
 5334SOL    HW216784   1.161   0.331   6.941  0.6905  0.8202 -1.4556
 5335SOL     OW16785   5.825   6.780   6.497  0.3247 -0.6924  0.1283
 5335SOL    HW116786   5.908   6.785   6.448  0.0700  0.0865 -0.2442
 5335SOL    HW216787   5.828   6.695   6.540  1.6447 -0.3732  0.7092
 5336SOL     OW16788   3.665   1.912   4.335 -0.6123  0.1686  0.2680
 5336SOL    HW116789   3.674   1.984   4.272  0.9904 -0.3749 -0.1800
 5336SOL    HW216790   3.637   1.837   4.282  0.5023 -0.2299  0.2126
 5337SOL     OW16791   0.566   7.730   7.957  0.0701  0.2561  0.0502
 5337SOL    HW116792   0.569   7.668   8.030 -0.0085 -0.0396 -0.1949
 5337SOL    HW216793   0.527   7.680   7.885  1.1498  0.2037 -0.5242
 5338SOL     OW16794   5.108   1.155   0.159 -0.0654 -0.3922 -0.3192
 5338SOL    HW116795   5.169   1.084   0.176  0.9162  0.0595 -1.7967
 5338SOL    HW216796   5.163   1.234   0.156 -0.9237  0.2280 -0.1943
 5339SOL     OW16797   4.768   1.919   7.568  0.8196  0.4848 -0.0425
 5339SOL    HW116798   4.776   1.977   7.492 -2.0897  2.0154  0.6956
 5339SOL    HW216799   4.690   1.866   7.550  2.6184 -2.4271 -0.0674
 5340SOL     OW16800   4.125   5.319   2.447 -0.1782  0.1106  0.0565
 5340SOL    HW116801   4.118   5.295   2.354  1.0496 -2.2294  0.4869
 5340SOL    HW216802   4.065   5.259   2.491 -0.6427  1.1089  0.8078
 5341SOL     OW16803   5.134   0.795   7.758 -0.3002 -0.0882  0.0864
 5341SOL    HW116804   5.154   0.888   7.750 -0.7113 -0.0736 -0.9874
 5341SOL    HW216805   5.148   0.760   7.670  0.9501 -1.2759  0.7173
 5342SOL     OW16806   1.285   7.726   4.696  0.1392 -0.2804  0.0503
 5342SOL    HW116807   1.343   7.662   4.736  0.3374  0.1641  0.4846
 5342SOL    HW216808   1.321   7.811   4.722 -1.2385  0.0076  1.1096
 5343SOL     OW16809   2.595   0.124   2.331  0.2126 -0.2979  0.0906
 5343SOL    HW116810   2.579   0.136   2.238 -2.7336 -0.3195  0.4921
 5343SOL    HW216811   2.592   0.212   2.368 -1.6002 -0.4589  0.4658
 5344SOL     OW16812   1.895   5.641   7.708  0.5871 -0.3137 -0.2883
 5344SOL    HW116813   1.862   5.648   7.798  1.7929  0.1167  0.1478
 5344SOL    HW216814   1.884   5.729   7.672 -0.2315 -0.5777 -0.6907
 5345SOL     OW16815   4.910   2.286   0.293 -0.1946  0.3140  0.2637
 5345SOL    HW116816   4.945   2.318   0.376 -0.6375  0.6851  0.3128
 5345SOL    HW216817   4.976   2.310   0.227  0.9588 -1.4415  0.7068
 5346SOL     OW16818   4.698   5.538   7.042  0.6944  0.3072 -0.6925
 5346SOL    HW116819   4.667   5.497   6.962  1.0251  1.7861 -1.6264
 5346SOL    HW216820   4.620   5.577   7.081  0.7278  0.6776 -0.9845
 5347SOL     OW16821   6.570   1.858   5.436 -0.0311  0.1459 -0.5177
 5347SOL    HW116822   6.535   1.799   5.504 -1.4058 -0.2294 -1.5009
 5347SOL    HW216823   6.524   1.941   5.451 -0.0379  0.1805 -0.7377
 5348SOL     OW16824   6.640   5.335   7.080 -0.1469 -0.8389  0.0839
 5348SOL    HW116825   6.552   5.329   7.043 -1.1417 -1.9723  2.3952
 5348SOL    HW216826   6.656   5.429   7.090 -1.8944 -0.6326  1.2968
 5349SOL     OW16827   4.402   6.231   4.228 -0.7258  0.8077  0.5675
 5349SOL    HW116828   4.471   6.296   4.239 -1.6367  2.2321 -1.5032
 5349SOL    HW216829   4.340   6.250   4.299 -0.2058  1.0997  0.9563
 5350SOL     OW16830   1.661   1.044   1.565  0.1487  0.4155  0.1814
 5350SOL    HW116831   1.574   1.008   1.552 -0.3153  1.1176  1.2282
 5350SOL    HW216832   1.720   0.970   1.552 -0.7390 -0.5930  1.6501
 5351SOL     OW16833   7.175   3.086   5.662 -0.6657 -0.2050 -0.6487
 5351SOL    HW116834   7.222   3.127   5.590  0.0051 -1.3682 -0.9061
 5351SOL    HW216835   7.149   3.000   5.628 -0.1877 -0.8363  0.5366
 5352SOL     OW16836   2.517   1.324   1.860 -0.7743 -0.0838 -0.1562
 5352SOL    HW116837   2.530   1.395   1.797 -2.1035  0.3603  0.0502
 5352SOL    HW216838   2.493   1.367   1.942  1.5729 -0.6243  0.8883
 5353SOL     OW16839   6.971   7.655   7.713  0.1464  0.1714 -0.4689
 5353SOL    HW116840   6.959   7.636   7.620 -0.1858  1.9111 -0.8205
 5353SOL    HW216841   7.061   7.686   7.720  0.1481  0.1144 -0.2223
 5354SOL     OW16842   1.864   2.231   4.591 -0.2774 -0.3028 -0.1181
 5354SOL    HW116843   1.926   2.267   4.527  0.5074 -0.0330  0.7701
 5354SOL    HW216844   1.783   2.219   4.541  0.7774 -1.7271 -1.6179
 5355SOL     OW16845   6.884   6.604   3.201 -0.3623 -0.4551  0.5628
 5355SOL    HW116846   6.854   6.685   3.242 -2.3490 -1.5551  1.4178
 5355SOL    HW216847   6.818   6.584   3.135 -0.1552 -1.5952  0.6668
 5356SOL     OW16848   8.296   4.390   7.822  0.0721  0.3770  0.3890
 5356SOL    HW116849   8.354   4.320   7.851  0.3806  1.0862  1.5365
 5356SOL    HW216850   8.244   4.350   7.752 -0.0189 -1.1083  1.2519
 5357SOL     OW16851   7.197   7.980   1.078 -0.1846  0.1969  0.4397
 5357SOL    HW116852   7.251   7.913   1.035 -1.1270 -0.9690  1.0107
 5357SOL    HW216853   7.252   8.012   1.150  0.1372 -0.2384  0.3912
 5358SOL     OW16854   3.906   6.279   7.923 -0.1407  0.3086  0.1625
 5358SOL    HW116855   3.819   6.240   7.935 -1.7533  3.5394  0.0456
 5358SOL    HW216856   3.954   6.255   8.002 -1.7283 -0.1141  1.0414
 5359SOL     OW16857   1.045   5.987   6.655  0.5356  1.0171  0.0604
 5359SOL    HW116858   1.027   6.022   6.567  1.3900 -0.6545 -0.8177
 5359SOL    HW216859   1.138   5.965   6.653  0.1381 -0.8594  0.7143
 5360SOL     OW16860   7.525   0.583   7.724 -0.0030  0.2263 -0.4415
 5360SOL    HW116861   7.559   0.622   7.804  0.1440 -0.1596 -0.3100
 5360SOL    HW216862   7.566   0.632   7.653  0.0476  0.4148 -0.2822
 5361SOL     OW16863   3.352   1.220   6.944 -0.3457 -0.1548  0.2584
 5361SOL    HW116864   3.399   1.221   7.027 -0.3834  1.9649  0.3152
 5361SOL    HW216865   3.419   1.201   6.879 -0.4791 -2.7885  0.8002
 5362SOL     OW16866   1.153   8.012   5.180 -0.4044 -0.3225  0.2025
 5362SOL    HW116867   1.085   8.054   5.128  0.2778 -0.5102 -0.8916
 5362SOL    HW216868   1.170   8.072   5.252  0.5583  1.3375 -1.3208
 5363SOL     OW16869   1.483   0.545   6.739  0.0023 -0.1509 -0.5813
 5363SOL    HW116870   1.445   0.553   6.826  1.1746  2.4453 -0.2198
 5363SOL    HW216871   1.411   0.564   6.679 -0.3342  0.1407 -0.0884
 5364SOL     OW16872   2.937   6.054   2.275  0.2998 -0.3437 -0.3792
 5364SOL    HW116873   3.031   6.065   2.282  0.4097 -1.0617 -0.6742
 5364SOL    HW216874   2.906   6.057   2.365  0.4646  0.9422 -0.3357
 5365SOL     OW16875   5.973   2.170   1.696  0.1498  0.3490 -0.3686
 5365SOL    HW116876   5.940   2.102   1.638  1.9900 -0.9575  0.0120
 5365SOL    HW216877   5.945   2.252   1.656  1.1476 -0.4858 -2.9949
 5366SOL     OW16878   3.887   2.731   3.432 -0.5572 -0.0760 -0.0490
 5366SOL    HW116879   3.977   2.725   3.400 -0.8302 -0.4303 -0.7638
 5366SOL    HW216880   3.884   2.814   3.479  0.1928 -0.1517  0.1505
 5367SOL     OW16881   0.275   3.430   4.277  0.4001  0.7067  0.3276
 5367SOL    HW116882   0.260   3.356   4.337 -2.9818 -0.7796 -2.0142
 5367SOL    HW216883   0.270   3.507   4.333  1.2019 -0.6870  2.4796
 5368SOL     OW16884   7.417   4.296   3.626  0.1211 -0.3051 -0.1871
 5368SOL    HW116885   7.397   4.234   3.697  1.3277 -0.8231 -0.2804
 5368SOL    HW216886   7.368   4.375   3.649 -2.2640 -1.5609 -0.5587
 5369SOL     OW16887   4.404   2.839   3.532  0.1588 -0.1821 -0.1226
 5369SOL    HW116888   4.318   2.867   3.564 -0.5138 -0.5524 -1.5259
 5369SOL    HW216889   4.439   2.915   3.486  0.8123  0.1178  0.8303
 5370SOL     OW16890   4.144   7.262   2.584  0.7978  0.2888  0.1469
 5370SOL    HW116891   4.108   7.269   2.495  1.0458 -0.3693 -0.0097
 5370SOL    HW216892   4.165   7.353   2.608  1.3480  0.4072 -0.7329
 5371SOL     OW16893   2.425   8.244   6.367 -0.3028 -0.0904  0.4985
 5371SOL    HW116894   2.509   8.245   6.321 -0.4693  0.7418  0.2095
 5371SOL    HW216895   2.449   8.260   6.459 -0.2091  0.9713  0.2994
 5372SOL     OW16896   7.669   8.000   4.622  0.2283 -0.2418  0.1419
 5372SOL    HW116897   7.719   8.081   4.610 -1.0488  1.2283  3.3709
 5372SOL    HW216898   7.735   7.932   4.632  1.3686  0.5970 -1.3211
 5373SOL     OW16899   3.946   4.383   3.552 -0.3633  0.5272  0.0631
 5373SOL    HW116900   3.884   4.341   3.492 -0.7784  2.2596 -0.7790
 5373SOL    HW216901   3.894   4.450   3.596  0.1263 -0.2125  1.8658
 5374SOL     OW16902   5.370   0.145   7.971 -0.6075 -0.0733 -0.0583
 5374SOL    HW116903   5.345   0.055   7.949 -1.1464  0.3095 -1.1190
 5374SOL    HW216904   5.434   0.136   8.041 -0.2836 -1.3098 -0.4826
 5375SOL     OW16905   0.961   6.075   1.055  0.0308  0.2292  0.0951
 5375SOL    HW116906   0.965   6.107   1.145  1.0894 -0.5919  0.3659
 5375SOL    HW216907   1.035   6.014   1.048 -1.6837 -1.9500 -0.4448
 5376SOL     OW16908   7.241   7.596   6.223 -0.5719  0.3572  0.2521
 5376SOL    HW116909   7.250   7.502   6.238 -0.8982  0.3969  0.7319
 5376SOL    HW216910   7.275   7.636   6.302  0.4514  0.6830 -0.3380
 5377SOL     OW16911   3.360   4.855   1.634 -0.2190  0.4731 -0.1166
 5377SOL    HW116912   3.301   4.785   1.607 -0.7229  0.0765  1.8356
 5377SOL    HW216913   3.437   4.810   1.668 -0.7998  0.7761  1.7310
 5378SOL     OW16914   0.028   8.195   2.791  0.4906  0.1499 -0.3846
 5378SOL    HW116915   0.105   8.141   2.772  0.1223 -0.6474  0.2976
 5378SOL    HW216916   0.027   8.202   2.887  1.0414  2.1675 -0.4828
 5379SOL     OW16917   7.128   0.970   7.706  0.3140  0.0796 -0.4072
 5379SOL    HW116918   7.205   0.916   7.723  0.0583 -0.7214 -1.6705
 5379SOL    HW216919   7.149   1.017   7.625 -0.3689  0.1393 -0.5572
 5380SOL     OW16920   1.671   3.281   6.317  0.2526  0.0192 -0.1101
 5380SOL    HW116921   1.657   3.374   6.333 -2.2022 -0.6148  2.1235
 5380SOL    HW216922   1.754   3.261   6.360  0.0454  0.8944  0.7239
 5381SOL     OW16923   1.282   5.596   7.166  0.1912 -0.3203  0.5540
 5381SOL    HW116924   1.291   5.521   7.107 -1.5652 -1.1730  1.3065
 5381SOL    HW216925   1.334   5.665   7.124  0.7446 -1.5355 -0.8622
 5382SOL     OW16926   2.797   6.697   5.010  0.6419  0.5080  0.2723
 5382SOL    HW116927   2.821   6.728   4.922  3.1006  0.8361  0.9658
 5382SOL    HW216928   2.809   6.602   5.005 -0.2893  0.4009 -0.0282
 5383SOL     OW16929   6.304   1.666   3.424 -0.3696  0.4477  0.1551
 5383SOL    HW116930   6.340   1.616   3.350 -2.5211  0.5264 -1.0472
 5383SOL    HW216931   6.372   1.728   3.446  0.2580  0.6387 -2.0258
 5384SOL     OW16932   5.658   5.917   4.526  0.1713 -0.4439  0.4114
 5384SOL    HW116933   5.600   5.864   4.582  1.4040 -0.3686  1.8346
 5384SOL    HW216934   5.662   6.002   4.570 -0.0842  0.1561 -0.6901
 5385SOL     OW16935   3.699   1.506   6.165 -0.0321 -0.2137 -0.0720
 5385SOL    HW116936   3.633   1.440   6.145  0.3009  0.1122 -2.5566
 5385SOL    HW216937   3.654   1.590   6.156  0.2999 -0.0217  0.0131
 5386SOL     OW16938   2.267   5.841   3.173 -0.0468  0.1276  0.0001
 5386SOL    HW116939   2.250   5.909   3.239  0.4101 -0.4487  0.7172
 5386SOL    HW216940   2.251   5.885   3.089 -2.6988  0.3196  0.5091
 5387SOL     OW16941   2.870   8.251   2.714 -0.5378 -0.4229 -0.8140
 5387SOL    HW116942   2.837   8.315   2.778 -0.9233 -2.4503  1.1471
 5387SOL    HW216943   2.926   8.303   2.656 -0.2076  1.5908  1.1162
 5388SOL     OW16944   8.201   6.843   2.047 -0.2449 -0.0458  1.0151
 5388SOL    HW116945   8.140   6.861   2.118  0.6396  0.7288  1.5995
 5388SOL    HW216946   8.261   6.777   2.082 -0.5847 -0.6120  0.5378
 5389SOL     OW16947   3.628   5.519   5.630 -0.5301 -0.6456 -0.3551
 5389SOL    HW116948   3.621   5.442   5.687 -4.0423 -0.8835 -0.8754
 5389SOL    HW216949   3.569   5.500   5.557 -0.3115  1.9093 -1.2869
 5390SOL     OW16950   1.009   4.841   1.321  0.9929 -0.1802 -0.3429
 5390SOL    HW116951   0.985   4.907   1.386  0.2714 -0.6311 -0.1428
 5390SOL    HW216952   1.049   4.891   1.250  0.9378  0.4147  0.0349
 5391SOL     OW16953   7.450   6.546   0.066 -0.1001  0.1069 -0.6309
 5391SOL    HW116954   7.487   6.460   0.050  2.9880  0.8953  1.4317
 5391SOL    HW216955   7.368   6.529   0.112  0.8424 -1.7412  0.4489
 5392SOL     OW16956   7.201   5.870   5.061  0.1393  0.0950  0.1306
 5392SOL    HW116957   7.153   5.824   5.129 -0.5990 -1.0747 -1.1397
 5392SOL    HW216958   7.214   5.805   4.992 -0.0445  1.5075 -1.2962
 5393SOL     OW16959   3.632   1.580   7.118  0.1640  0.1505 -0.5353
 5393SOL    HW116960   3.547   1.623   7.118 -0.2915 -0.7226 -0.0910
 5393SOL    HW216961   3.621   1.505   7.176  1.1575 -0.1285 -0.6898
 5394SOL     OW16962   0.145   2.932   5.360 -0.2505  0.1283  0.3203
 5394SOL    HW116963   0.171   2.952   5.450  0.1422 -1.2521  0.5289
 5394SOL    HW216964   0.222   2.891   5.321 -1.4869 -2.5182  0.4505
 5395SOL     OW16965   7.102   2.854   3.437 -0.0894  0.7971  0.3549
 5395SOL    HW116966   7.096   2.936   3.389 -1.8097  1.3720  1.4828
 5395SOL    HW216967   7.154   2.874   3.514  0.6312  0.4787 -0.0427
 5396SOL     OW16968   0.344   7.827   6.967  0.4443  0.4353  0.4553
 5396SOL    HW116969   0.358   7.921   6.961 -0.6582  0.5787 -0.2889
 5396SOL    HW216970   0.337   7.810   7.061  0.0885  1.2027  0.5791
 5397SOL     OW16971   5.846   7.686   7.854 -0.1848 -0.6721  0.3888
 5397SOL    HW116972   5.847   7.744   7.778 -0.8875 -1.8409 -0.5526
 5397SOL    HW216973   5.920   7.627   7.839 -0.4299 -1.0149  0.5221
 5398SOL     OW16974   8.009   7.165   7.098 -0.1822  0.0226 -0.4901
 5398SOL    HW116975   8.010   7.069   7.091  0.5370 -0.1658  1.4842
 5398SOL    HW216976   7.960   7.194   7.021  0.1468 -1.8884 -1.4852
 5399SOL     OW16977   2.711   1.290   7.411  0.0386  0.0935  0.5966
 5399SOL    HW116978   2.666   1.215   7.451  2.5845 -1.7293  0.3021
 5399SOL    HW216979   2.687   1.286   7.318  2.5996 -2.4747 -0.0980
 5400SOL     OW16980   4.736   1.104   2.294 -0.2426  0.2653 -0.3437
 5400SOL    HW116981   4.711   1.179   2.347  2.1006  0.8334  0.0876
 5400SOL    HW216982   4.755   1.035   2.358 -1.7376 -0.5329 -0.7094
 5401SOL     OW16983   3.692   6.499   4.167  0.2947  0.4616  0.1352
 5401SOL    HW116984   3.598   6.504   4.183 -0.1247 -2.1669 -0.9993
 5401SOL    HW216985   3.704   6.542   4.082 -0.0963 -0.2280 -0.2801
 5402SOL     OW16986   2.236   2.616   2.846 -0.2467 -0.1330  0.6601
 5402SOL    HW116987   2.299   2.687   2.863 -0.3553 -0.2609  1.6707
 5402SOL    HW216988   2.162   2.636   2.903 -0.5973 -0.6626  0.3928
 5403SOL     OW16989   8.154   1.119   1.046 -0.2801 -0.0004 -0.5873
 5403SOL    HW116990   8.182   1.197   1.095  1.2427  1.6600 -3.7592
 5403SOL    HW216991   8.235   1.074   1.025 -0.9320 -0.9662 -1.0844
 5404SOL     OW16992   5.548   2.905   1.786 -0.4296 -0.4214 -0.1423
 5404SOL    HW116993   5.515   2.942   1.868  2.1306 -0.9983  1.2760
 5404SOL    HW216994   5.517   2.815   1.786  1.7198 -1.2464  1.6462
 5405SOL     OW16995   6.987   3.525   3.258  0.0844 -0.0907  0.3574
 5405SOL    HW116996   7.065   3.503   3.309 -0.9169  0.1057  2.0665
 5405SOL    HW216997   6.975   3.619   3.272 -0.1861 -0.0277 -0.2840
 5406SOL     OW16998   6.737   6.566   4.211 -0.5995  0.4248  0.1489
 5406SOL    HW116999   6.730   6.632   4.142 -0.2493 -2.0570 -2.4855
 5406SOL    HW217000   6.665   6.505   4.194  1.5881 -2.2466 -0.4681
 5407SOL     OW17001   1.558   3.440   1.252 -0.0878  0.2228  0.0389
 5407SOL    HW117002   1.549   3.350   1.219  0.7911  0.2007 -0.1579
 5407SOL    HW217003   1.534   3.495   1.178 -0.6282  0.1578  0.1590
 5408SOL     OW17004   5.722   5.504   0.175  0.7436  0.5014 -0.5259
 5408SOL    HW117005   5.639   5.539   0.206  0.4859  0.3485 -1.0245
 5408SOL    HW217006   5.718   5.411   0.197  0.0129  0.1326 -2.1278
 5409SOL     OW17007   0.375   7.776   5.997 -0.4127 -0.2958 -0.6081
 5409SOL    HW117008   0.315   7.726   5.941 -0.1044 -0.7472 -0.5350
 5409SOL    HW217009   0.431   7.710   6.038 -0.7427  0.0125  0.3760
 5410SOL     OW17010   1.375   0.100   1.089 -0.2084 -0.0033  0.0114
 5410SOL    HW117011   1.294   0.145   1.111  0.0734  1.1413 -1.2046
 5410SOL    HW217012   1.359   0.059   1.004  0.7042  0.8310 -0.5815
 5411SOL     OW17013   2.067   4.229   0.987  0.1892 -0.0343  0.4300
 5411SOL    HW117014   2.082   4.295   1.055  0.8300 -1.3115  1.5644
 5411SOL    HW217015   2.139   4.167   0.997  0.8775  0.2348 -2.0819
 5412SOL     OW17016   6.101   0.911   1.191  0.0973 -0.1859  0.6432
 5412SOL    HW117017   6.049   0.971   1.245 -1.6481 -1.1139  0.0938
 5412SOL    HW217018   6.191   0.926   1.218 -0.2766  2.5088  0.6830
 5413SOL     OW17019   4.348   7.855   4.667  0.3616 -0.3464  0.0632
 5413SOL    HW117020   4.410   7.816   4.728  0.3683  1.0723  1.0048
 5413SOL    HW217021   4.335   7.787   4.600  0.4922 -1.8836  1.5163
 5414SOL     OW17022   1.328   5.390   5.062  0.2437  0.8534  0.5881
 5414SOL    HW117023   1.241   5.356   5.086  0.2935  0.1333 -0.2201
 5414SOL    HW217024   1.386   5.357   5.130  0.3394 -0.9615 -0.3248
 5415SOL     OW17025   5.040   6.014   1.280 -0.3073 -0.1842 -0.2590
 5415SOL    HW117026   5.100   5.961   1.227  0.2432  0.2689 -0.1004
 5415SOL    HW217027   5.022   6.091   1.225 -1.4950 -0.7510 -0.6946
 5416SOL     OW17028   6.015   4.528   5.435  0.2758  0.0032 -0.1237
 5416SOL    HW117029   6.003   4.508   5.527 -2.0121  1.0572 -0.1166
 5416SOL    HW217030   5.954   4.601   5.418  0.4225 -0.3458 -2.5092
 5417SOL     OW17031   2.860   6.602   0.117  0.0601 -0.4839 -0.1355
 5417SOL    HW117032   2.946   6.644   0.114 -0.4456  0.5171 -1.3363
 5417SOL    HW217033   2.872   6.519   0.071  0.9055 -1.4474  1.6905
 5418SOL     OW17034   3.065   0.004   1.717  0.3158  0.1981 -0.2521
 5418SOL    HW117035   3.126  -0.019   1.787 -0.2664  0.8386  0.4859
 5418SOL    HW217036   3.033  -0.081   1.685  0.4069 -0.0975  0.4216
 5419SOL     OW17037   0.086   8.274   0.858 -0.6831 -0.5130 -0.2178
 5419SOL    HW117038   0.149   8.244   0.792  1.8451  2.1963  0.7221
 5419SOL    HW217039   0.016   8.316   0.808  0.0326 -0.5332 -1.2677
 5420SOL     OW17040   6.504   7.813   5.966 -0.0728 -0.1208 -0.1560
 5420SOL    HW117041   6.505   7.720   5.946 -3.6581 -0.6028  1.2092
 5420SOL    HW217042   6.413   7.840   5.954  0.4857  2.8051  1.1811
 5421SOL     OW17043   2.534   4.934   6.077  0.0025  0.0484  0.5946
 5421SOL    HW117044   2.529   4.993   6.152  0.7224  0.7996  0.0741
 5421SOL    HW217045   2.533   4.846   6.115  1.5722  0.4214  1.5756
 5422SOL     OW17046   4.131   8.030   0.412  0.5362 -0.2385  0.5030
 5422SOL    HW117047   4.101   8.060   0.326  0.3391 -0.6970  0.4109
 5422SOL    HW217048   4.165   7.942   0.396  0.0251 -0.5285  0.9889
 5423SOL     OW17049   1.778   2.773   1.859  0.1060 -0.5664  0.1715
 5423SOL    HW117050   1.848   2.838   1.864  0.0026 -0.4668  0.2971
 5423SOL    HW217051   1.703   2.821   1.825  0.3805 -0.8946 -0.9552
 5424SOL     OW17052   1.038   2.532   3.429 -0.4423 -0.0273 -0.1468
 5424SOL    HW117053   1.038   2.511   3.522  0.6572 -2.1454 -0.5558
 5424SOL    HW217054   0.955   2.495   3.397  0.3010 -1.5615 -0.3990
 5425SOL     OW17055   0.042   0.704   2.284 -0.4410 -0.0278  0.3052
 5425SOL    HW117056  -0.033   0.644   2.287  0.0956 -0.7381 -0.2192
 5425SOL    HW217057   0.114   0.653   2.322 -0.1931  0.6065  0.6936
 5426SOL     OW17058   4.734   7.684   2.562  0.3284 -0.3303 -0.2193
 5426SOL    HW117059   4.694   7.768   2.539 -2.8636 -1.7360 -0.2747
 5426SOL    HW217060   4.722   7.629   2.485  2.6024 -0.8354 -0.2746
 5427SOL     OW17061   5.139   1.000   5.821  0.0858 -0.2500 -0.3557
 5427SOL    HW117062   5.069   1.060   5.847  1.9366  1.6936  0.4134
 5427SOL    HW217063   5.144   1.008   5.725  1.3368  2.1592 -0.1616
 5428SOL     OW17064   5.791   3.427   4.958 -0.0028 -0.5175  0.3207
 5428SOL    HW117065   5.789   3.496   5.024  1.9251  0.9028 -0.9847
 5428SOL    HW217066   5.883   3.420   4.933 -0.1633 -3.3636  0.1317
 5429SOL     OW17067   3.733   5.469   2.925  0.6653  0.2455 -0.0606
 5429SOL    HW117068   3.777   5.399   2.877  1.4083 -0.6026  1.7313
 5429SOL    HW217069   3.675   5.510   2.862  0.7687 -1.5111 -1.3580
 5430SOL     OW17070   3.147   0.438   5.826  0.2986  0.0419 -0.3081
 5430SOL    HW117071   3.055   0.412   5.825 -0.4115  2.0585  2.1516
 5430SOL    HW217072   3.186   0.386   5.897  0.8532 -0.1616 -0.7562
 5431SOL     OW17073   6.515   3.305   0.604 -0.1709  0.5510 -0.6897
 5431SOL    HW117074   6.443   3.271   0.550 -0.0622  3.0197 -2.6129
 5431SOL    HW217075   6.521   3.244   0.677 -0.8441 -2.6373 -3.0475
 5432SOL     OW17076   4.485   7.509   0.672  0.3285 -0.4412 -0.1814
 5432SOL    HW117077   4.525   7.595   0.659  0.7767 -0.5430  0.4993
 5432SOL    HW217078   4.550   7.447   0.641  0.3577 -0.5711  0.1328
 5433SOL     OW17079   2.662   7.938   0.008  0.1443  0.4734  0.0336
 5433SOL    HW117080   2.712   7.859   0.028 -0.2967  0.4633  1.1346
 5433SOL    HW217081   2.727   7.999  -0.028  0.7868  0.1638  0.6479
 5434SOL     OW17082   5.286   4.354   5.534 -0.5482 -0.1091  0.0327
 5434SOL    HW117083   5.235   4.357   5.453  2.9690 -0.3380 -2.4320
 5434SOL    HW217084   5.333   4.271   5.530  3.0974  1.7487 -0.1332
 5435SOL     OW17085   6.486   5.522   6.115  0.5058  0.8459  0.1005
 5435SOL    HW117086   6.411   5.563   6.072 -0.0116 -1.3791 -1.2792
 5435SOL    HW217087   6.559   5.535   6.054  0.0068 -1.4160 -1.0700
 5436SOL     OW17088   2.404   6.643   3.001  0.0542 -0.1603  0.7184
 5436SOL    HW117089   2.372   6.707   3.066  0.3260  0.6754  0.0498
 5436SOL    HW217090   2.392   6.687   2.917  1.0379 -0.6526  0.3067
 5437SOL     OW17091   8.170   2.291   2.401  0.3569  0.2662 -0.6068
 5437SOL    HW117092   8.104   2.307   2.333  0.3920  0.9877 -0.4849
 5437SOL    HW217093   8.119   2.280   2.482  0.2760 -1.2621 -0.8456
 5438SOL     OW17094   1.024   6.780   6.622 -0.5303  0.0281  0.0636
 5438SOL    HW117095   1.042   6.749   6.533  0.0768 -0.3136  0.3046
 5438SOL    HW217096   0.976   6.862   6.609  0.8961  0.7974 -0.6008
 5439SOL     OW17097   5.773   8.043   3.569 -0.6523  0.2514 -0.2661
 5439SOL    HW117098   5.731   8.074   3.649  0.9218 -0.9425  1.0914
 5439SOL    HW217099   5.732   7.958   3.552  1.3752 -1.1829  1.3754
 5440SOL     OW17100   2.709   5.899   2.615  0.4491 -0.0869 -0.4288
 5440SOL    HW117101   2.695   5.979   2.563  3.2834  2.0355  1.7532
 5440SOL    HW217102   2.638   5.899   2.679  0.8079  1.1343 -0.0034
 5441SOL     OW17103   7.307   5.090   5.240 -0.3090 -0.1822 -0.0398
 5441SOL    HW117104   7.262   5.145   5.176  1.3662  0.2010 -0.9280
 5441SOL    HW217105   7.305   5.002   5.203  0.4433 -0.0039 -0.5249
 5442SOL     OW17106   2.087   1.753   7.751  0.4100 -0.0208  0.2514
 5442SOL    HW117107   2.051   1.787   7.833  2.2884  1.4925  0.5146
 5442SOL    HW217108   2.169   1.711   7.776 -0.8050 -3.0128 -0.3866
 5443SOL     OW17109   3.475   1.102   4.619  0.4267  0.0034 -0.5131
 5443SOL    HW117110   3.533   1.168   4.580 -0.7062  1.0756 -0.4447
 5443SOL    HW217111   3.513   1.018   4.593  1.1058  0.6869 -1.7997
 5444SOL     OW17112   0.109   1.106   3.022  0.4500  0.1335  0.4462
 5444SOL    HW117113   0.094   1.162   2.946  1.2317  0.8168  0.7758
 5444SOL    HW217114   0.193   1.064   3.004  0.5533  0.1633  0.8463
 5445SOL     OW17115   4.586   1.677   0.037  0.2024  0.8088 -0.3095
 5445SOL    HW117116   4.532   1.738   0.087  0.0761  0.6921 -0.3027
 5445SOL    HW217117   4.676   1.695   0.066  0.2308  1.3889 -0.7235
 5446SOL     OW17118   4.988   1.374   5.037  0.1488  0.1242 -0.1996
 5446SOL    HW117119   4.959   1.319   5.110  0.8818  0.3279  0.2629
 5446SOL    HW217120   4.914   1.434   5.021  0.0406  0.1797  0.4845
 5447SOL     OW17121   1.599   0.592   3.066 -0.4012  0.2006  0.1627
 5447SOL    HW117122   1.642   0.650   3.003  1.0782 -1.3735 -0.3488
 5447SOL    HW217123   1.640   0.506   3.052 -1.3258 -0.6047  2.0413
 5448SOL     OW17124   6.334   4.280   5.598 -0.4085  0.6813  0.0745
 5448SOL    HW117125   6.337   4.265   5.504  0.5489  2.8039 -0.2844
 5448SOL    HW217126   6.418   4.320   5.618 -0.1852 -0.6215  2.0422
 5449SOL     OW17127   6.871   7.122   6.595  0.0223 -0.8294 -0.1793
 5449SOL    HW117128   6.948   7.127   6.652  0.7054 -1.8298 -0.9779
 5449SOL    HW217129   6.871   7.031   6.563 -1.9294 -1.0857  0.3987
 5450SOL     OW17130   0.951   5.987   4.359  0.1620  0.1950  0.3355
 5450SOL    HW117131   0.959   6.082   4.359  0.4790  0.1721  1.1514
 5450SOL    HW217132   0.857   5.971   4.370 -0.3417  0.4077 -2.7324
 5451SOL     OW17133   4.359   3.004   3.852 -0.4129 -0.3825 -0.0018
 5451SOL    HW117134   4.287   2.988   3.792  0.0365  3.2210 -1.7979
 5451SOL    HW217135   4.420   3.058   3.802  1.6127  0.0134  2.6813
 5452SOL     OW17136   3.614   0.857   5.824 -0.3619 -0.3501  0.1842
 5452SOL    HW117137   3.524   0.830   5.805 -0.0365 -0.9259 -0.5723
 5452SOL    HW217138   3.614   0.952   5.810 -0.2888 -0.6553 -2.2355
 5453SOL     OW17139   5.548   5.112   1.312  0.1524  0.3476 -0.3608
 5453SOL    HW117140   5.473   5.055   1.327  0.7305 -0.8225 -1.6905
 5453SOL    HW217141   5.553   5.121   1.217  0.0344  2.7334 -0.1877
 5454SOL     OW17142   3.044   4.083   0.963 -0.5766  0.1620 -0.4461
 5454SOL    HW117143   3.004   4.078   0.876  0.1640  0.4283 -0.8109
 5454SOL    HW217144   3.130   4.123   0.948  0.0016 -0.7628  0.2587
 5455SOL     OW17145   3.648   4.178   4.235  0.0043 -0.3990 -0.4813
 5455SOL    HW117146   3.673   4.261   4.193  0.3692  0.3226  1.0815
 5455SOL    HW217147   3.553   4.183   4.245 -0.0983 -0.6135 -1.2463
 5456SOL     OW17148   0.917   6.849   6.092  0.2265  0.0951  1.6029
 5456SOL    HW117149   0.852   6.779   6.090  1.0312 -0.6713  1.7319
 5456SOL    HW217150   0.886   6.913   6.028 -0.0119 -0.8397  0.7635
 5457SOL     OW17151   0.550   5.451   7.073 -0.0588 -1.1601 -0.1332
 5457SOL    HW117152   0.534   5.476   6.982 -2.1800  0.0554  0.5083
 5457SOL    HW217153   0.621   5.508   7.102 -0.4134 -0.4820 -0.5846
 5458SOL     OW17154   6.557   5.365   0.262 -0.3732  0.0819 -0.5162
 5458SOL    HW117155   6.489   5.364   0.195 -1.6206 -0.0052  0.7058
 5458SOL    HW217156   6.615   5.437   0.237 -1.9963  1.4397 -0.5630
 5459SOL     OW17157   7.771   4.670   0.430  0.4589  0.0860 -0.4184
 5459SOL    HW117158   7.809   4.582   0.439 -0.3203 -0.3472 -1.2662
 5459SOL    HW217159   7.823   4.724   0.490  0.8558 -0.9762  0.2316
 5460SOL     OW17160   6.849   4.569   3.715  0.1790  0.2086 -0.3516
 5460SOL    HW117161   6.784   4.498   3.712  0.6153 -0.1941 -0.3209
 5460SOL    HW217162   6.866   4.583   3.808 -0.4998  0.9102 -0.3185
 5461SOL     OW17163   2.882   4.775   4.861 -0.3155  0.1269 -0.0249
 5461SOL    HW117164   2.832   4.825   4.925 -0.4246  0.2619 -0.2134
 5461SOL    HW217165   2.854   4.810   4.776 -1.0008 -0.8092 -0.2031
 5462SOL     OW17166   7.555   2.990   4.384 -0.5573  0.5267 -0.0504
 5462SOL    HW117167   7.543   2.912   4.438  0.6224  0.6770  0.4749
 5462SOL    HW217168   7.574   2.956   4.297 -0.1754  0.2149  0.1487
 5463SOL     OW17169   1.354   6.641   0.063  0.0756  0.4641  0.4181
 5463SOL    HW117170   1.432   6.694   0.080 -0.0628  0.9755 -0.5147
 5463SOL    HW217171   1.294   6.663   0.135  1.0338 -0.4843  1.5705
 5464SOL     OW17172   2.858   7.072   6.056  0.0849  0.0667 -0.2738
 5464SOL    HW117173   2.881   6.989   6.097  0.9149  0.4160 -0.0176
 5464SOL    HW217174   2.829   7.048   5.968 -1.9104 -0.7165  0.5378
 5465SOL     OW17175   7.681   0.306   2.329  0.2570  0.4616 -0.1670
 5465SOL    HW117176   7.647   0.222   2.297 -0.0474  0.6218 -0.2725
 5465SOL    HW217177   7.617   0.371   2.298  0.9727  0.8459 -0.8896
 5466SOL     OW17178   0.868   4.351   3.495  0.2870  0.0573  0.0017
 5466SOL    HW117179   0.899   4.280   3.439 -1.3551 -2.4442  2.0008
 5466SOL    HW217180   0.928   4.352   3.569 -2.0203 -2.3846  2.1220
 5467SOL     OW17181   3.564   1.977   4.966 -0.6865  0.2683 -0.3326
 5467SOL    HW117182   3.481   1.981   5.014 -1.4639 -1.3521 -1.4653
 5467SOL    HW217183   3.628   2.018   5.025 -2.0869  0.6272  0.9877
 5468SOL     OW17184   4.783   4.544   6.318 -0.3254 -0.1146  0.0247
 5468SOL    HW117185   4.780   4.471   6.379 -0.7279 -0.4150 -0.3482
 5468SOL    HW217186   4.723   4.519   6.248 -0.9427  0.8508  0.1929
 5469SOL     OW17187   6.584   7.324   3.338  0.8416  0.1713 -0.1301
 5469SOL    HW117188   6.667   7.362   3.308  1.6149 -1.4972 -0.2402
 5469SOL    HW217189   6.605   7.283   3.422 -0.4871  1.8005  1.0687
 5470SOL     OW17190   6.408   7.539   6.706  0.3227  0.2966  0.3728
 5470SOL    HW117191   6.389   7.445   6.714 -0.5371  0.2878 -1.3318
 5470SOL    HW217192   6.390   7.559   6.614 -0.3225  2.3170  0.8877
 5471SOL     OW17193   4.685   4.689   4.324 -0.2494 -0.1117 -0.9001
 5471SOL    HW117194   4.706   4.655   4.411 -0.7132 -0.1210 -0.7902
 5471SOL    HW217195   4.734   4.632   4.264 -0.6441 -0.6827 -0.6917
 5472SOL     OW17196   5.478   6.252   0.429  0.2740  0.6536 -0.3376
 5472SOL    HW117197   5.467   6.160   0.404  3.0451  0.3148 -0.6730
 5472SOL    HW217198   5.395   6.277   0.469 -1.4409 -1.2333 -2.4999
 5473SOL     OW17199   1.203   1.823   1.996 -0.2672  0.3110  0.1500
 5473SOL    HW117200   1.201   1.785   2.084  2.4299  1.8186  1.0082
 5473SOL    HW217201   1.296   1.838   1.979 -0.7598  0.6221 -2.7535
 5474SOL     OW17202   1.076   2.560   4.076  0.2015 -0.2392  0.2590
 5474SOL    HW117203   1.063   2.470   4.105  1.2029 -0.1082  1.1645
 5474SOL    HW217204   0.987   2.595   4.065 -0.2530 -0.5400  2.4469
 5475SOL     OW17205   3.070   1.764   5.436 -0.3012 -0.1057 -0.1174
 5475SOL    HW117206   3.092   1.824   5.508 -3.0810  1.6669 -0.6091
 5475SOL    HW217207   3.019   1.694   5.478  1.6628 -1.4221  0.2113
 5476SOL     OW17208   5.012   3.489   3.011 -0.6699 -0.2054 -0.3127
 5476SOL    HW117209   5.049   3.556   3.068  0.5110 -1.2259  0.1597
 5476SOL    HW217210   4.940   3.533   2.966 -1.3242  0.7847  1.5807
 5477SOL     OW17211   3.846   4.463   2.429  0.1913 -0.0213 -0.7205
 5477SOL    HW117212   3.814   4.552   2.446  0.0791 -0.2922  0.5676
 5477SOL    HW217213   3.892   4.470   2.345 -0.2854  1.1278 -0.9082
 5478SOL     OW17214   7.037   5.538   5.955  0.1531  0.1803 -0.2912
 5478SOL    HW117215   7.080   5.566   6.036 -0.3462 -0.0138  0.0422
 5478SOL    HW217216   7.020   5.619   5.908 -1.8784  0.5496  0.9615
 5479SOL     OW17217   1.804   0.478   5.619 -0.1562 -0.0955 -0.0505
 5479SOL    HW117218   1.838   0.394   5.587 -0.9645 -0.5195  0.1800
 5479SOL    HW217219   1.827   0.541   5.550 -0.0585 -0.6082 -0.4929
 5480SOL     OW17220   2.788   2.723   4.659 -0.4853  0.2871  0.0931
 5480SOL    HW117221   2.726   2.673   4.712  0.5537 -0.4494  0.6465
 5480SOL    HW217222   2.834   2.779   4.721  1.2351 -1.0907  0.1460
 5481SOL     OW17223   4.912   1.444   5.481 -0.4735  0.0811  0.7023
 5481SOL    HW117224   4.967   1.385   5.430 -1.2012 -0.6237  0.7089
 5481SOL    HW217225   4.844   1.471   5.420  0.0023  1.1415  0.6215
 5482SOL     OW17226   7.814   3.323   4.668 -0.2856 -0.8233 -0.2340
 5482SOL    HW117227   7.794   3.310   4.576 -0.2783 -1.0123 -0.2096
 5482SOL    HW217228   7.910   3.319   4.673 -0.2815 -0.7229 -0.2321
 5483SOL     OW17229   4.819   1.459   4.494  0.3425  0.1242 -0.0168
 5483SOL    HW117230   4.748   1.440   4.555  1.0172  1.1977  1.1655
 5483SOL    HW217231   4.867   1.531   4.535  0.4676  1.3256 -2.1194
 5484SOL     OW17232   7.814   7.601   6.274  0.3608  0.6157 -0.7663
 5484SOL    HW117233   7.878   7.617   6.343 -0.3264  1.4982 -0.3037
 5484SOL    HW217234   7.865   7.599   6.193  1.0511  0.6190 -0.3352
 5485SOL     OW17235   7.457   1.398   4.328  0.2907  0.1194  0.7179
 5485SOL    HW117236   7.489   1.427   4.242 -2.2388  1.1694  0.0344
 5485SOL    HW217237   7.534   1.402   4.384  1.6189  1.3188 -1.0543
 5486SOL     OW17238   7.125   0.604   0.718 -0.2037  0.0314 -0.5419
 5486SOL    HW117239   7.151   0.559   0.798 -1.4662  2.3388  1.3323
 5486SOL    HW217240   7.112   0.535   0.653  1.8429 -1.8449  0.9154
 5487SOL     OW17241   6.934   5.604   8.165  0.5013 -0.1203 -0.1792
 5487SOL    HW117242   6.920   5.530   8.106  0.6835  0.6957 -1.2897
 5487SOL    HW217243   7.004   5.655   8.124  1.2870 -0.0007  1.2323
 5488SOL     OW17244   0.766   5.526   2.593 -0.2961  0.2207  0.6346
 5488SOL    HW117245   0.678   5.537   2.556  0.0171  1.8017  0.2893
 5488SOL    HW217246   0.758   5.557   2.683 -0.4224 -1.0700  1.0880
 5489SOL     OW17247   6.947   5.372   5.274  0.2041 -0.4472 -0.3099
 5489SOL    HW117248   6.971   5.348   5.363 -0.1126 -0.3870 -0.2067
 5489SOL    HW217249   7.031   5.387   5.230  0.3463  0.4996  0.2452
 5490SOL     OW17250   8.292   4.689   7.597 -0.3088  0.4606 -0.0188
 5490SOL    HW117251   8.376   4.726   7.625  0.6220 -0.8639 -0.9303
 5490SOL    HW217252   8.284   4.714   7.505 -0.2562 -0.5257 -0.3038
 5491SOL     OW17253   1.387   5.387   7.030  0.0252 -0.3127 -0.4049
 5491SOL    HW117254   1.329   5.322   6.991  1.4145 -1.6291 -0.3307
 5491SOL    HW217255   1.453   5.336   7.076  1.8723  1.1096 -1.3685
 5492SOL     OW17256   1.216   6.834   4.294  0.1908  0.1724  0.7545
 5492SOL    HW117257   1.260   6.912   4.330 -1.8375  0.6419  2.3988
 5492SOL    HW217258   1.148   6.813   4.358 -0.0779 -2.2821 -0.2446
 5493SOL     OW17259   1.095   4.361   5.051 -0.3134  0.2390 -0.0135
 5493SOL    HW117260   1.113   4.268   5.036 -1.4117  0.0550 -0.3109
 5493SOL    HW217261   1.026   4.382   4.987 -1.6086  0.7056  1.4671
 5494SOL     OW17262   1.441   2.998   5.973  0.1273  0.1364  0.0070
 5494SOL    HW117263   1.454   2.936   6.044 -2.6145  0.7608  1.1945
 5494SOL    HW217264   1.476   3.080   6.006 -1.6639  0.5668  0.9883
 5495SOL     OW17265   7.974   6.778   7.434  0.6161 -0.1491  0.0121
 5495SOL    HW117266   7.980   6.835   7.358  0.3457 -1.3284 -0.9379
 5495SOL    HW217267   7.882   6.754   7.439  0.6373 -0.0920  0.6985
 5496SOL     OW17268   1.855   1.931   8.131 -0.7228 -0.4239  0.1280
 5496SOL    HW117269   1.860   1.935   8.227  1.4385 -2.1078  0.1508
 5496SOL    HW217270   1.852   2.023   8.103 -1.1942  0.0967  1.7645
 5497SOL     OW17271   5.654   1.701   1.887  0.4365  0.3805 -0.0191
 5497SOL    HW117272   5.703   1.619   1.902  0.2580  0.3756  0.5260
 5497SOL    HW217273   5.664   1.750   1.968  1.6683  1.4954 -0.8025
 5498SOL     OW17274   7.840   8.135   0.219 -0.7944 -0.3882  0.3933
 5498SOL    HW117275   7.746   8.128   0.234 -0.6852 -0.9748  0.8542
 5498SOL    HW217276   7.859   8.228   0.226 -1.0398 -0.4309  2.2116
 5499SOL     OW17277   1.752   1.820   7.866  0.1896 -0.1527 -0.4715
 5499SOL    HW117278   1.777   1.910   7.885  0.4980 -0.3323 -0.0070
 5499SOL    HW217279   1.764   1.773   7.949 -1.0958 -0.3763 -0.3945
 5500SOL     OW17280   6.605   7.647   7.017 -0.3143  0.3369 -0.0699
 5500SOL    HW117281   6.513   7.628   7.037 -0.5454  0.4201 -0.9832
 5500SOL    HW217282   6.652   7.571   7.051 -0.6738  0.4725  0.7533
 5501SOL     OW17283   5.164   7.527   2.245  0.5749  0.4391 -0.2168
 5501SOL    HW117284   5.202   7.611   2.268 -0.5005  0.9957 -0.4039
 5501SOL    HW217285   5.104   7.507   2.317  0.7340 -0.1134 -0.2311
 5502SOL     OW17286   3.324   0.109   0.992 -0.6479 -0.2033 -0.8536
 5502SOL    HW117287   3.283   0.086   1.075 -0.1430 -1.7010 -0.9885
 5502SOL    HW217288   3.263   0.078   0.925 -0.7789  0.4662 -1.0522
 5503SOL     OW17289   4.917   6.137   4.696 -0.3448  0.5035 -0.1659
 5503SOL    HW117290   5.006   6.104   4.707 -0.3547 -0.1559 -1.7458
 5503SOL    HW217291   4.919   6.184   4.612 -1.7685 -0.6752 -0.9138
 5504SOL     OW17292   1.933   8.227   3.516  0.6287  0.3541  0.7323
 5504SOL    HW117293   2.013   8.279   3.517  0.6455  0.3417  0.2156
 5504SOL    HW217294   1.918   8.204   3.608  1.0775  0.5678  0.8599
 5505SOL     OW17295   1.840   4.567   4.250  0.7506  0.2837  0.0318
 5505SOL    HW117296   1.864   4.529   4.165  0.8860 -0.5130  0.4120
 5505SOL    HW217297   1.759   4.614   4.234  1.7057  1.6981 -0.9457
 5506SOL     OW17298   1.998   3.670   4.611 -0.1557  0.4972  0.2963
 5506SOL    HW117299   2.040   3.721   4.681  2.6558 -1.3355  0.0962
 5506SOL    HW217300   2.059   3.676   4.538 -0.9532 -1.1219 -0.5432
 5507SOL     OW17301   2.062   7.108   0.388 -0.4123  0.2197  0.1288
 5507SOL    HW117302   1.976   7.095   0.427  0.5097 -1.4121  1.7215
 5507SOL    HW217303   2.085   7.198   0.412 -1.0386  0.1713  0.9485
 5508SOL     OW17304   0.323   0.718   6.258  0.3622  0.4653  0.4614
 5508SOL    HW117305   0.306   0.654   6.190  0.5727  1.3873 -0.4780
 5508SOL    HW217306   0.382   0.673   6.319  1.6889  0.2370 -0.9391
 5509SOL     OW17307   8.169   7.811   2.611  0.7934  0.3232  0.2063
 5509SOL    HW117308   8.188   7.758   2.689  1.2748  0.5550  0.2485
 5509SOL    HW217309   8.094   7.767   2.570  2.5239 -1.7435 -0.9925
 5510SOL     OW17310   1.590   0.232   3.882  0.0250  0.7285 -0.4999
 5510SOL    HW117311   1.528   0.169   3.919  0.1374  0.1840 -1.2195
 5510SOL    HW217312   1.536   0.303   3.848 -0.1575  0.5990 -0.4784
 5511SOL     OW17313   6.352   0.917   0.554  0.0861 -0.5495  0.1594
 5511SOL    HW117314   6.323   1.008   0.556 -1.7583 -1.0436 -0.8952
 5511SOL    HW217315   6.433   0.918   0.503  1.4091  0.7469  2.1500
 5512SOL     OW17316   5.615   2.052   2.034 -0.0096  0.3214 -0.2910
 5512SOL    HW117317   5.582   2.111   2.102  0.0476  0.0584 -0.0360
 5512SOL    HW217318   5.653   1.978   2.082  0.4810  0.3689 -0.5923
 5513SOL     OW17319   2.475   1.241   6.171 -0.0206 -0.4030 -0.1517
 5513SOL    HW117320   2.486   1.332   6.198  0.6564 -0.7910  0.9260
 5513SOL    HW217321   2.553   1.222   6.118  0.3725 -0.6511  0.4979
 5514SOL     OW17322   5.969   5.701   1.860  0.0112  0.6333 -0.5890
 5514SOL    HW117323   6.040   5.765   1.850 -1.9491  3.0619 -0.1513
 5514SOL    HW217324   5.921   5.705   1.777  0.1111 -0.6578 -0.7259
 5515SOL     OW17325   2.523   4.549   4.460 -0.4005 -0.0940 -0.5576
 5515SOL    HW117326   2.522   4.568   4.554 -0.1004  1.2039 -0.8012
 5515SOL    HW217327   2.448   4.491   4.447  0.2992 -1.3580  0.6850
 5516SOL     OW17328   8.084   3.364   3.261 -0.6187 -0.0374 -0.3392
 5516SOL    HW117329   8.169   3.332   3.232  0.1347  0.2142  1.4430
 5516SOL    HW217330   8.024   3.290   3.248  0.2121 -0.7539 -0.1746
 5517SOL     OW17331   1.389   6.284   2.656  0.9563 -0.4719  0.1373
 5517SOL    HW117332   1.358   6.293   2.746  0.6442 -0.0233 -0.0135
 5517SOL    HW217333   1.410   6.373   2.629  1.6140 -0.6772 -0.0347
 5518SOL     OW17334   5.216   5.984   2.753 -0.0909 -0.2931  0.0195
 5518SOL    HW117335   5.227   5.904   2.701  0.3321  0.1751 -0.6230
 5518SOL    HW217336   5.297   5.991   2.804 -1.0099 -1.4376  1.7494
 5519SOL     OW17337   2.045   6.945   3.259  0.8397 -0.3310  0.0588
 5519SOL    HW117338   2.111   6.994   3.308  0.5851 -0.4182  0.4976
 5519SOL    HW217339   2.014   7.007   3.192  1.9617 -0.5701 -0.6938
 5520SOL     OW17340   6.291   1.596   6.576  0.2690 -0.4072  0.6772
 5520SOL    HW117341   6.262   1.571   6.664  1.1850  1.2141  1.4897
 5520SOL    HW217342   6.216   1.641   6.538  0.6977  1.2558  1.6900
 5521SOL     OW17343   7.019   2.002   4.985  0.1757  0.0192  0.3293
 5521SOL    HW117344   6.934   2.045   4.972  0.0965  0.0705  0.9778
 5521SOL    HW217345   7.036   1.957   4.902  0.3290  1.4096 -0.4321
 5522SOL     OW17346   6.813   1.957   5.431 -0.0471 -0.1698 -0.3637
 5522SOL    HW117347   6.726   1.917   5.429 -0.3752  0.1652  2.6875
 5522SOL    HW217348   6.807   2.025   5.499  2.3298  0.5145 -0.7431
 5523SOL     OW17349   7.697   7.480   5.677 -0.2116 -0.0795  0.0951
 5523SOL    HW117350   7.628   7.547   5.682  0.0206  0.0699  2.3964
 5523SOL    HW217351   7.671   7.424   5.604 -0.5201  2.3547 -1.8284
 5524SOL     OW17352   0.093   1.835   7.932 -0.2632 -0.2705  0.3799
 5524SOL    HW117353   0.170   1.867   7.979  1.4472  1.1634 -3.0531
 5524SOL    HW217354   0.117   1.746   7.905 -0.1621 -0.1306  0.0102
 5525SOL     OW17355   0.524   5.374   8.097  0.3569  0.5556  0.3846
 5525SOL    HW117356   0.541   5.447   8.156  2.2082  0.8629 -0.4639
 5525SOL    HW217357   0.448   5.403   8.046  1.1347  2.0010 -0.0356
 5526SOL     OW17358   1.980   4.812   2.277  0.3486 -0.3833 -0.2369
 5526SOL    HW117359   2.066   4.791   2.241  1.3669  0.9195  1.3069
 5526SOL    HW217360   1.989   4.902   2.309 -1.3160 -0.5438  0.7709
 5527SOL     OW17361   5.353   3.036   0.106 -0.2455  0.5712  0.2023
 5527SOL    HW117362   5.365   3.131   0.094  3.5419  0.7271  3.2612
 5527SOL    HW217363   5.302   3.029   0.187  0.4636  0.0160  0.6022
 5528SOL     OW17364   5.830   4.297   6.100  0.5145 -0.0210 -0.0729
 5528SOL    HW117365   5.892   4.293   6.173  2.1463  2.5828 -1.1729
 5528SOL    HW217366   5.875   4.253   6.028 -0.6584 -1.6571  0.1395
 5529SOL     OW17367   5.644   8.191   0.786 -0.3307  0.4039 -0.3944
 5529SOL    HW117368   5.721   8.219   0.736 -1.2871  0.0681 -2.1479
 5529SOL    HW217369   5.581   8.163   0.719 -0.8485 -2.3277  1.0876
 5530SOL     OW17370   3.030   6.774   3.141  0.2181  0.0931 -0.4900
 5530SOL    HW117371   3.105   6.715   3.134 -1.1805 -2.0913  1.4474
 5530SOL    HW217372   2.989   6.771   3.055 -0.2259 -2.4350 -0.2537
 5531SOL     OW17373   6.461   4.594   5.488  0.6754 -0.1762 -0.1609
 5531SOL    HW117374   6.553   4.584   5.466  1.0706  2.3874 -0.0351
 5531SOL    HW217375   6.448   4.689   5.493 -1.8359 -0.4759  0.4094
 5532SOL     OW17376   7.029   4.006   3.536 -0.3029 -0.4821  0.0581
 5532SOL    HW117377   7.018   3.985   3.628  1.5255  0.1596  0.4711
 5532SOL    HW217378   7.068   3.928   3.498  0.4668 -0.1767  0.2001
 5533SOL     OW17379   6.400   7.671   0.972 -0.4895 -0.2710  0.0623
 5533SOL    HW117380   6.451   7.591   0.986 -1.1719 -0.5805  0.8838
 5533SOL    HW217381   6.313   7.650   1.005 -0.6863  0.8150  0.2815
 5534SOL     OW17382   7.379   5.023   6.610 -0.1330  0.1315 -0.7098
 5534SOL    HW117383   7.424   4.939   6.611 -0.6075 -0.1538  1.8606
 5534SOL    HW217384   7.295   5.007   6.653 -0.8423  1.6319 -1.4381
 5535SOL     OW17385   6.015   4.803   3.575 -0.5976 -0.1581 -0.0837
 5535SOL    HW117386   6.095   4.762   3.607  0.1795  0.9775 -0.5298
 5535SOL    HW217387   5.967   4.731   3.532 -0.2232 -1.0205  0.9017
 5536SOL     OW17388   2.051   1.829   3.677  0.3199  0.3712  0.1025
 5536SOL    HW117389   2.037   1.781   3.759  0.7434  0.2904  0.1296
 5536SOL    HW217390   2.066   1.761   3.612  0.1639  0.4426 -0.0089
 5537SOL     OW17391   3.922   6.473   0.674 -0.2319  0.0236  0.2754
 5537SOL    HW117392   3.992   6.510   0.729  1.1863 -0.5090 -1.1086
 5537SOL    HW217393   3.893   6.396   0.723 -1.1374  1.2019  1.7164
 5538SOL     OW17394   1.919   4.834   3.502 -0.8456 -0.1211 -0.0481
 5538SOL    HW117395   1.895   4.810   3.413 -1.8280 -0.0879  0.1971
 5538SOL    HW217396   1.901   4.928   3.507  2.4798  0.7232 -0.8512
 5539SOL     OW17397   7.162   5.004   6.763  0.0353 -0.5533  0.1481
 5539SOL    HW117398   7.085   4.957   6.731 -0.1340  0.0944 -0.4134
 5539SOL    HW217399   7.133   5.095   6.771  1.0939 -0.0561 -1.3075
 5540SOL     OW17400   4.311   5.856   7.330 -0.5956 -0.5697  0.1198
 5540SOL    HW117401   4.264   5.935   7.303 -0.5524 -0.4537  0.3821
 5540SOL    HW217402   4.264   5.784   7.286 -2.4149 -0.6935  2.0813
 5541SOL     OW17403   7.575   7.112   1.535  0.9236  0.4361  0.1752
 5541SOL    HW117404   7.668   7.132   1.523  0.7834  0.6802 -0.6014
 5541SOL    HW217405   7.536   7.195   1.564  0.7292  0.7201 -0.8351
 5542SOL     OW17406   0.227   7.839   3.855 -0.4956  0.0171 -0.3527
 5542SOL    HW117407   0.156   7.901   3.846  0.1174  0.9492  0.8947
 5542SOL    HW217408   0.184   7.756   3.876 -1.2456  0.3413 -0.5871
 5543SOL     OW17409   6.550   8.199   5.047  0.2026 -0.2313 -0.0657
 5543SOL    HW117410   6.623   8.172   4.991  0.8277 -1.1799  1.1412
 5543SOL    HW217411   6.473   8.191   4.991  0.9439  0.1195 -1.1667
 5544SOL     OW17412   0.026   4.662   5.351  0.1233 -0.3693  0.0306
 5544SOL    HW117413   0.106   4.711   5.330  0.1073 -0.7268 -0.9012
 5544SOL    HW217414  -0.037   4.730   5.374  0.1219  0.0744 -1.1845
 5545SOL     OW17415   7.307   1.228   0.071  0.4237 -0.1924  0.0645
 5545SOL    HW117416   7.279   1.309   0.115 -1.1276 -1.0236  0.6760
 5545SOL    HW217417   7.365   1.258   0.001  1.3939  1.3113  1.4409
 5546SOL     OW17418   3.927   3.452   2.546 -0.0651  0.1963  0.4507
 5546SOL    HW117419   3.911   3.383   2.611  0.7684 -1.1857 -0.7304
 5546SOL    HW217420   3.859   3.516   2.562 -1.5792 -1.4341  0.8994
 5547SOL     OW17421   5.663   2.771   3.073  1.1614  0.0804  0.3583
 5547SOL    HW117422   5.672   2.677   3.090 -0.4896 -0.7968 -2.8000
 5547SOL    HW217423   5.597   2.800   3.136 -0.3036 -1.5668 -0.3165
 5548SOL     OW17424   1.092   7.443   0.987 -0.4107  0.1151  0.1466
 5548SOL    HW117425   1.169   7.414   1.036 -0.8760 -2.4166 -0.4455
 5548SOL    HW217426   1.119   7.441   0.896 -0.5982  1.2655  0.0545
 5549SOL     OW17427   0.265   5.646   5.238  0.0250 -0.3336  0.0780
 5549SOL    HW117428   0.199   5.685   5.181 -1.1570  0.1509  1.6963
 5549SOL    HW217429   0.248   5.685   5.324  2.0582 -0.6441  0.6743
 5550SOL     OW17430   7.129   2.670   5.147 -0.0600 -0.0130  0.0355
 5550SOL    HW117431   7.100   2.735   5.211  1.5729  0.9841 -0.1920
 5550SOL    HW217432   7.107   2.707   5.062  0.3395 -0.0255 -0.0746
 5551SOL     OW17433   7.571   3.651   1.010 -0.0493 -0.1843 -1.3616
 5551SOL    HW117434   7.496   3.711   1.011  0.4226  0.4312 -1.8688
 5551SOL    HW217435   7.646   3.707   0.989  0.7210 -0.6286  0.1093
 5552SOL     OW17436   7.646   4.082   7.792 -0.1031  0.5978 -0.7714
 5552SOL    HW117437   7.579   4.022   7.762  1.6183 -1.8077 -0.1317
 5552SOL    HW217438   7.675   4.046   7.876  0.9312  2.4024 -0.2838
 5553SOL     OW17439   0.181   2.846   5.073  0.1321 -0.0309 -0.0241
 5553SOL    HW117440   0.225   2.927   5.097  0.0222  0.1406 -0.3936
 5553SOL    HW217441   0.098   2.874   5.035 -1.1571 -0.4027  2.3339
 5554SOL     OW17442   1.699   4.843   3.931  0.0347 -0.2294 -0.2331
 5554SOL    HW117443   1.718   4.853   4.024 -1.3213  0.4540 -0.0097
 5554SOL    HW217444   1.749   4.913   3.889 -0.4143  0.3315  0.1418
 5555SOL     OW17445   3.867   2.349   5.132  0.5279 -0.3781 -0.0309
 5555SOL    HW117446   3.848   2.274   5.188  0.8198  0.2930  1.0236
 5555SOL    HW217447   3.850   2.319   5.043 -0.9589 -1.1745  0.4952
 5556SOL     OW17448   1.746   0.863   3.936  0.3247 -0.1664 -0.5395
 5556SOL    HW117449   1.808   0.836   4.004  1.0194  1.8568 -0.3092
 5556SOL    HW217450   1.705   0.781   3.907  1.6150 -1.3196  0.7461
 5557SOL     OW17451   0.843   3.980   5.063 -0.4501  0.0910 -0.2546
 5557SOL    HW117452   0.847   4.032   4.983 -1.2704  0.2717 -0.1881
 5557SOL    HW217453   0.906   4.022   5.122 -1.8374  1.7118  0.1827
 5558SOL     OW17454   7.287   2.050   6.091 -0.5631  0.3427  0.0476
 5558SOL    HW117455   7.358   2.010   6.142  0.0543  1.9674  0.4987
 5558SOL    HW217456   7.211   1.996   6.111  0.2590 -0.6712  0.5564
 5559SOL     OW17457   3.960   1.662   5.900  0.4283 -0.4207 -0.2878
 5559SOL    HW117458   3.996   1.747   5.922 -1.0856  0.2302 -0.1811
 5559SOL    HW217459   3.992   1.604   5.969  1.8791 -0.0719 -0.6427
 5560SOL     OW17460   5.605   4.827   7.575  0.3786 -0.5357 -0.2037
 5560SOL    HW117461   5.676   4.795   7.519  0.8578  0.0670  0.0466
 5560SOL    HW217462   5.544   4.868   7.514  1.0151  0.3285 -0.2878
 5561SOL     OW17463   0.526   6.801   6.465 -0.3365  0.0923  0.1553
 5561SOL    HW117464   0.540   6.720   6.514 -1.2134 -0.6290 -0.7353
 5561SOL    HW217465   0.437   6.829   6.490  0.5534  1.7194  1.7281
 5562SOL     OW17466   5.427   4.586   5.432  0.1866  0.4004  0.0093
 5562SOL    HW117467   5.341   4.604   5.395 -0.0092  2.2693  1.2435
 5562SOL    HW217468   5.415   4.506   5.484 -1.2970  1.6099  1.6202
 5563SOL     OW17469   7.919   4.147   3.174 -0.5010  0.4295  0.1454
 5563SOL    HW117470   7.910   4.065   3.126 -0.0369  0.6248 -0.2835
 5563SOL    HW217471   7.972   4.125   3.250  1.2349  0.6988 -0.9429
 5564SOL     OW17472   3.604   0.542   5.982 -0.5989  0.4913  0.6384
 5564SOL    HW117473   3.691   0.516   6.012 -0.6286 -1.0532 -0.5027
 5564SOL    HW217474   3.606   0.638   5.983  0.8206  0.4757  1.4144
 5565SOL     OW17475   2.033   8.058   8.168  0.7190  0.7395  0.0712
 5565SOL    HW117476   1.958   8.076   8.224  0.3971  0.0341 -0.1204
 5565SOL    HW217477   2.037   8.134   8.109  0.7698  1.2534  0.7285
 5566SOL     OW17478   0.370   7.971   1.919  0.6224 -0.3222  0.0542
 5566SOL    HW117479   0.400   8.054   1.882  0.2331 -0.8724 -1.6010
 5566SOL    HW217480   0.365   7.987   2.013 -0.0263  1.7061 -0.2719
 5567SOL     OW17481   3.315   0.854   6.544  0.2029  0.1714  0.0244
 5567SOL    HW117482   3.387   0.823   6.489 -0.4023 -0.0411 -0.6560
 5567SOL    HW217483   3.358   0.883   6.625  1.0306 -0.1391 -0.2920
 5568SOL     OW17484   0.250   5.281   7.625  0.1184 -0.3096  0.3237
 5568SOL    HW117485   0.183   5.268   7.692  1.1464  0.6953  1.5965
 5568SOL    HW217486   0.251   5.199   7.576 -0.8712 -0.9576  1.3445
 5569SOL     OW17487   0.326   6.953   4.167  0.1636 -0.6875 -0.9475
 5569SOL    HW117488   0.269   7.027   4.144  0.3245 -0.1908  0.1819
 5569SOL    HW217489   0.415   6.988   4.159  0.2870 -1.1457 -1.6571
 5570SOL     OW17490   6.012   7.600   0.722  0.4008  0.3893 -0.0525
 5570SOL    HW117491   6.008   7.514   0.765 -0.6031  0.8361  0.7917
 5570SOL    HW217492   6.096   7.637   0.750  2.1572 -1.3676 -2.5851
 5571SOL     OW17493   6.402   2.250   3.139 -0.5552 -0.3338  0.0128
 5571SOL    HW117494   6.419   2.289   3.053  0.1208 -1.3519 -0.3316
 5571SOL    HW217495   6.476   2.277   3.193  0.6634 -2.2242 -0.6193
 5572SOL     OW17496   3.347   4.162   7.448  0.2676  1.0182 -0.3247
 5572SOL    HW117497   3.355   4.184   7.540 -0.1033 -1.2129  0.2970
 5572SOL    HW217498   3.418   4.210   7.405  2.4200 -0.2877  1.5955
 5573SOL     OW17499   6.459   5.677   0.076  0.4127  0.1524  0.0658
 5573SOL    HW117500   6.409   5.756   0.054  0.9831  0.6836  0.5953
 5573SOL    HW217501   6.439   5.661   0.168  0.2118 -0.3955 -0.0706
 5574SOL     OW17502   7.129   2.287   2.444 -0.0412 -0.9450  0.2071
 5574SOL    HW117503   7.073   2.357   2.479  0.1268 -0.8844  0.3538
 5574SOL    HW217504   7.152   2.317   2.356  2.6885  0.7586  1.3743
 5575SOL     OW17505   6.999   0.582   7.421 -0.3517  0.0062 -0.0063
 5575SOL    HW117506   6.949   0.644   7.368  1.0805  0.2097 -1.1971
 5575SOL    HW217507   6.949   0.575   7.503  0.0319  3.7539  0.7619
 5576SOL     OW17508   0.618   2.672   1.759 -0.2979  0.4352 -0.3651
 5576SOL    HW117509   0.630   2.600   1.820 -0.8732  1.5717  1.1506
 5576SOL    HW217510   0.532   2.654   1.719 -0.1561 -0.0388 -0.4673
 5577SOL     OW17511   5.504   2.727   6.776 -0.2427  0.7256  0.0202
 5577SOL    HW117512   5.451   2.749   6.699 -1.3104  0.4949  0.6754
 5577SOL    HW217513   5.453   2.757   6.850 -0.2979 -1.0722  0.7743
 5578SOL     OW17514   1.791   2.836   4.224  0.5565  0.4962  0.3980
 5578SOL    HW117515   1.857   2.776   4.257 -0.7023 -0.6109  0.9626
 5578SOL    HW217516   1.736   2.856   4.300 -0.7146  0.1236 -0.4038
 5579SOL     OW17517   0.034   2.513   3.828  0.3661 -0.1931  0.2301
 5579SOL    HW117518   0.012   2.529   3.736  2.6335 -2.8741 -0.9604
 5579SOL    HW217519  -0.029   2.448   3.857 -0.7711  1.1458  0.8458
 5580SOL     OW17520   2.840   7.186   4.054 -0.3415 -0.2210  0.0051
 5580SOL    HW117521   2.821   7.155   3.965 -0.2512  0.5215 -0.2814
 5580SOL    HW217522   2.909   7.253   4.041 -0.8559  0.4261  0.5542
 5581SOL     OW17523   5.829   1.726   5.022  0.2933  0.1372  0.1709
 5581SOL    HW117524   5.765   1.790   4.991 -0.5451 -0.2165  1.1134
 5581SOL    HW217525   5.785   1.681   5.093  1.6215 -0.0743  0.8972
 5582SOL     OW17526   7.112   3.614   1.330 -0.2254 -0.7505  0.3652
 5582SOL    HW117527   7.060   3.595   1.408  0.9663 -0.4731  1.2518
 5582SOL    HW217528   7.061   3.681   1.283 -0.7944 -0.6830  1.0618
 5583SOL     OW17529   1.245   5.290   0.651  0.5282 -0.4749 -0.1239
 5583SOL    HW117530   1.268   5.219   0.712 -0.8993 -1.0310 -0.1950
 5583SOL    HW217531   1.241   5.248   0.565 -0.5993 -0.3922 -0.1301
 5584SOL     OW17532   2.229   0.084   8.260 -0.3247 -0.1371  0.1952
 5584SOL    HW117533   2.278   0.146   8.206  0.5198 -0.9647  0.0107
 5584SOL    HW217534   2.159   0.052   8.203 -0.2482 -0.0000  0.0262
 5585SOL     OW17535   2.476   0.807   2.948  0.2601 -0.1693 -0.4026
 5585SOL    HW117536   2.437   0.720   2.954  1.4439 -0.7746 -1.1151
 5585SOL    HW217537   2.408   0.866   2.982 -0.1324 -1.4646  1.1836
 5586SOL     OW17538   1.094   2.094   2.025 -0.5541 -0.1090  0.2223
 5586SOL    HW117539   1.094   1.999   2.009  0.9631 -0.5167  2.2889
 5586SOL    HW217540   1.034   2.129   1.959 -0.4059 -2.3839 -1.2384
 5587SOL     OW17541   6.967   1.001   1.265 -0.9168  0.7326  1.0980
 5587SOL    HW117542   6.895   0.945   1.239  1.4770 -2.4721  0.7252
 5587SOL    HW217543   6.992   1.048   1.186  0.7252 -2.2804 -0.3211
 5588SOL     OW17544   3.624   0.604   8.138  0.0002 -0.1685  0.0141
 5588SOL    HW117545   3.588   0.601   8.049  0.2911  1.0338 -0.1649
 5588SOL    HW217546   3.700   0.545   8.135  0.2759  0.2132 -0.6693
 5589SOL     OW17547   0.101   3.299   1.432 -0.3261 -0.0975  0.1995
 5589SOL    HW117548   0.196   3.297   1.428 -0.3472  0.3064 -1.0273
 5589SOL    HW217549   0.073   3.228   1.374 -0.7828 -0.6294  1.0414
 5590SOL     OW17550   3.537   6.973   5.684 -0.1292 -0.3756  0.7727
 5590SOL    HW117551   3.584   7.037   5.738 -1.0602 -0.3522  1.5840
 5590SOL    HW217552   3.471   6.936   5.743 -0.7555 -0.8108 -0.1769
 5591SOL     OW17553   5.987   2.033   5.047 -0.0365 -0.0918  0.4904
 5591SOL    HW117554   5.982   1.966   5.115  0.4006 -0.4224  0.2054
 5591SOL    HW217555   6.073   2.074   5.060 -0.4051  0.5944  0.8253
 5592SOL     OW17556   3.856   6.945   2.511  0.3821  0.3011  0.2258
 5592SOL    HW117557   3.829   7.021   2.563 -1.7607 -1.1241  1.3517
 5592SOL    HW217558   3.845   6.972   2.420  1.0784  1.7925  0.5614
 5593SOL     OW17559   4.392   5.974   6.973 -0.1814  0.5761 -0.5686
 5593SOL    HW117560   4.365   5.953   6.883 -0.4201  1.0125 -0.6012
 5593SOL    HW217561   4.359   5.902   7.026 -0.4811  0.5743 -0.7611
 5594SOL     OW17562   4.481   3.478   3.857 -0.1977 -0.5870  0.0409
 5594SOL    HW117563   4.497   3.505   3.766 -2.2882 -0.9569 -0.4881
 5594SOL    HW217564   4.555   3.512   3.905  0.1214  1.1065 -1.5360
 5595SOL     OW17565   3.197   7.594   0.633 -0.4772  0.1079 -0.1270
 5595SOL    HW117566   3.213   7.513   0.682  2.1302  0.3760 -0.4302
 5595SOL    HW217567   3.149   7.565   0.556  0.9498 -1.2978 -0.5536
 5596SOL     OW17568   6.239   2.102   5.061  0.1922  0.3008  0.2438
 5596SOL    HW117569   6.293   2.179   5.080  0.6611  0.1283 -0.3758
 5596SOL    HW217570   6.301   2.029   5.062 -0.4307 -0.2425  1.9673
 5597SOL     OW17571   3.912   5.074   1.873 -0.0544  0.2893 -0.6625
 5597SOL    HW117572   3.921   5.156   1.921  0.7231 -0.4807  0.5685
 5597SOL    HW217573   3.978   5.079   1.804  0.2036  0.5638 -0.3966
 5598SOL     OW17574   3.150   1.029   3.755  0.0216 -0.1748 -0.0250
 5598SOL    HW117575   3.152   1.112   3.707 -1.6328 -0.4440 -0.6271
 5598SOL    HW217576   3.228   0.982   3.725  1.0083  1.1452  0.3587
 5599SOL     OW17577   7.542   4.770   4.580 -0.1148 -0.1132 -0.1286
 5599SOL    HW117578   7.538   4.849   4.526  0.0507  1.5023  2.0698
 5599SOL    HW217579   7.560   4.802   4.669  1.0833 -2.7313  0.6754
 5600SOL     OW17580   8.260   6.827   6.493  0.0916 -0.0840  0.1121
 5600SOL    HW117581   8.312   6.863   6.565 -1.4103  1.0666  0.6749
 5600SOL    HW217582   8.241   6.737   6.520  1.7260 -0.5351 -0.1070
 5601SOL     OW17583   0.827   7.914   8.081  0.1644  0.3622 -0.3821
 5601SOL    HW117584   0.802   7.822   8.075 -0.3877  0.4051  0.9105
 5601SOL    HW217585   0.837   7.930   8.175  0.6530  1.5211 -0.6130
 5602SOL     OW17586   8.307   7.128   3.922  0.2005  0.4805  0.5861
 5602SOL    HW117587   8.267   7.042   3.917 -1.7446  1.3949 -1.9735
 5602SOL    HW217588   8.401   7.112   3.917 -0.1652 -1.4684 -0.8716
 5603SOL     OW17589   1.071   0.914   1.676 -0.5031 -0.1799  0.0918
 5603SOL    HW117590   1.053   0.829   1.716 -2.5122  0.6572  1.1522
 5603SOL    HW217591   1.138   0.953   1.732  0.1746 -0.9127 -0.1941
 5604SOL     OW17592   8.204   4.805   2.304 -0.4748 -0.6366  0.4179
 5604SOL    HW117593   8.281   4.858   2.326 -1.0721  0.1807  0.6339
 5604SOL    HW217594   8.235   4.715   2.305  1.0040 -0.2264 -1.7192
 5605SOL     OW17595   2.452   5.257   7.606  0.3969  0.0578 -0.0214
 5605SOL    HW117596   2.526   5.249   7.546  0.2484 -2.8243  0.0508
 5605SOL    HW217597   2.375   5.244   7.551  0.1833 -1.0660  0.5207
 5606SOL     OW17598   0.678   6.975   1.860 -0.1816  0.2753 -0.0758
 5606SOL    HW117599   0.682   6.882   1.840  0.1122  0.1185  0.6578
 5606SOL    HW217600   0.722   7.018   1.787  3.9266 -0.5029  1.7092
 5607SOL     OW17601   0.373   3.591   2.118  0.2968  0.0988  0.3243
 5607SOL    HW117602   0.357   3.667   2.175 -1.5786  1.0768 -1.3629
 5607SOL    HW217603   0.343   3.516   2.169 -0.8021  0.8775  0.8675
 5608SOL     OW17604   0.148   3.569   7.007  0.6719 -0.7046  0.2028
 5608SOL    HW117605   0.226   3.520   6.980  2.4052  0.8968  1.9734
 5608SOL    HW217606   0.102   3.509   7.065  1.0152 -1.3940 -0.2260
 5609SOL     OW17607   1.279   2.111   2.692  0.3566  0.2676  0.0461
 5609SOL    HW117608   1.246   2.149   2.610  0.4253 -0.0425 -0.1248
 5609SOL    HW217609   1.373   2.106   2.679  0.4622  0.9814  0.4632
 5610SOL     OW17610   6.679   7.071   5.146 -0.6250 -0.6753  0.4194
 5610SOL    HW117611   6.703   7.158   5.114 -0.4117 -0.8567  0.0802
 5610SOL    HW217612   6.695   7.075   5.241  1.9816 -1.1596  0.0934
 5611SOL     OW17613   1.852   4.766   8.095  0.1233  0.0784  0.5367
 5611SOL    HW117614   1.783   4.824   8.127 -0.8428 -0.4696 -0.5185
 5611SOL    HW217615   1.850   4.775   8.000 -1.0562 -2.7255  0.1955
 5612SOL     OW17616   2.147   3.400   7.194  0.7254 -0.4321 -0.4394
 5612SOL    HW117617   2.097   3.398   7.276  1.0214  2.9813 -0.0478
 5612SOL    HW217618   2.212   3.331   7.205 -1.1485 -2.1323  0.8299
 5613SOL     OW17619   3.560   6.618   5.674  0.3815  0.2816 -0.7950
 5613SOL    HW117620   3.639   6.602   5.724 -0.0866 -0.5643 -0.2970
 5613SOL    HW217621   3.590   6.655   5.592  1.2666  0.2975 -0.4694
 5614SOL     OW17622   5.322   0.376   2.475 -0.4037 -0.5382  0.0189
 5614SOL    HW117623   5.256   0.443   2.455  0.2653 -0.4263 -2.0413
 5614SOL    HW217624   5.273   0.294   2.481 -0.7393 -0.5518 -2.0693
 5615SOL     OW17625   7.336   7.168   6.618 -0.2843  0.5363  0.4593
 5615SOL    HW117626   7.378   7.144   6.701 -0.7200 -0.5118  0.3957
 5615SOL    HW217627   7.250   7.126   6.622  0.6039 -1.7694 -1.5897
 5616SOL     OW17628   8.322   2.578   1.899 -0.2449  0.1713 -0.1118
 5616SOL    HW117629   8.405   2.530   1.891 -1.3624 -1.7781 -0.7292
 5616SOL    HW217630   8.278   2.563   1.816 -0.0893  3.5839 -0.9448
 5617SOL     OW17631   1.071   5.602   6.886 -0.4657  0.1050  0.2804
 5617SOL    HW117632   1.037   5.642   6.806 -0.3221  1.0502  0.6744
 5617SOL    HW217633   1.164   5.626   6.887 -0.0292 -1.4121 -0.1655
 5618SOL     OW17634   7.234   3.405   4.875  0.1322 -0.1278 -0.0547
 5618SOL    HW117635   7.221   3.500   4.880 -2.3354 -0.3666 -0.2912
 5618SOL    HW217636   7.315   3.394   4.826  0.3636  1.8732 -0.1979
 5619SOL     OW17637   3.675   0.233   1.704 -0.4783 -0.0278  0.6071
 5619SOL    HW117638   3.769   0.249   1.693 -0.3618 -1.1026 -0.1684
 5619SOL    HW217639   3.638   0.318   1.726  0.4790  0.7258 -0.5760
 5620SOL     OW17640   3.401   2.036   5.319 -0.0120 -0.5710  0.0448
 5620SOL    HW117641   3.358   1.969   5.266 -0.8031 -1.4138  1.6750
 5620SOL    HW217642   3.329   2.093   5.348  0.2515 -0.7303  1.0398
 5621SOL     OW17643   7.657   2.263   3.602 -0.1088  0.0359 -0.1360
 5621SOL    HW117644   7.664   2.169   3.582 -0.6324  0.0454 -0.3734
 5621SOL    HW217645   7.604   2.299   3.531 -1.8754  0.1062  1.1464
 5622SOL     OW17646   0.214   3.063   0.938 -0.0008 -0.3623 -0.4070
 5622SOL    HW117647   0.213   2.975   0.978  2.4053 -0.7821 -1.1487
 5622SOL    HW217648   0.267   3.115   0.997 -1.1323  0.5562 -0.1600
 5623SOL     OW17649   7.716   6.943   6.408  0.1829 -0.1444 -0.8216
 5623SOL    HW117650   7.700   7.026   6.453 -1.2442 -1.2099  0.7500
 5623SOL    HW217651   7.669   6.878   6.460  1.7934 -2.0562 -1.6307
 5624SOL     OW17652   3.580   6.428   6.172 -0.0696 -0.0640  0.5942
 5624SOL    HW117653   3.581   6.423   6.076  0.5352  0.5270  0.5604
 5624SOL    HW217654   3.551   6.341   6.200  1.0012 -0.6759 -0.1073
 5625SOL     OW17655   2.506   5.285   3.239  0.0147 -0.4544  0.4488
 5625SOL    HW117656   2.540   5.298   3.151  1.1251  0.5338  0.9891
 5625SOL    HW217657   2.439   5.352   3.250  0.3934 -0.0912  0.5932
 5626SOL     OW17658   2.592   2.118   4.408 -0.1971 -0.2072  0.0222
 5626SOL    HW117659   2.579   2.181   4.338  0.0849 -0.5678 -0.3589
 5626SOL    HW217660   2.511   2.067   4.410 -1.5337  1.7868  2.0404
 5627SOL     OW17661   7.626   0.852   0.872  0.2912  0.7404 -0.4583
 5627SOL    HW117662   7.702   0.799   0.849  0.7940  1.3254 -0.1683
 5627SOL    HW217663   7.566   0.790   0.914  0.3404  0.1478 -1.2274
 5628SOL     OW17664   1.312   2.032   8.266  0.3714 -0.3665 -0.1965
 5628SOL    HW117665   1.374   2.032   8.194  1.1433 -0.3657  0.4573
 5628SOL    HW217666   1.251   1.961   8.245 -0.4285  0.6807 -1.6694
 5629SOL     OW17667   2.525   1.797   6.594 -0.0900  0.1552 -0.3553
 5629SOL    HW117668   2.449   1.852   6.613 -0.2944 -0.7352  1.6846
 5629SOL    HW217669   2.491   1.727   6.538 -0.8228 -0.2511  0.5586
 5630SOL     OW17670   5.594   0.995   1.652  0.5563 -0.3236 -0.1469
 5630SOL    HW117671   5.626   1.026   1.568  1.9009 -1.3678 -0.0475
 5630SOL    HW217672   5.506   0.961   1.634  0.1397  1.0267 -0.7666
 5631SOL     OW17673   4.904   4.285   4.963 -0.7461 -0.5190  0.6700
 5631SOL    HW117674   4.843   4.289   4.890 -0.4799 -0.5682  0.4425
 5631SOL    HW217675   4.990   4.299   4.923 -0.5613 -0.9231  0.9210
 5632SOL     OW17676   1.669   8.134   3.686  0.3339 -0.0108  0.1910
 5632SOL    HW117677   1.666   8.173   3.773 -0.0496 -1.8314  1.0302
 5632SOL    HW217678   1.584   8.154   3.648 -0.6271 -1.6424  1.3757
 5633SOL     OW17679   5.946   1.928   3.838 -0.0369  0.4599  0.2447
 5633SOL    HW117680   5.898   1.988   3.781  0.4251  0.2461 -0.3792
 5633SOL    HW217681   6.017   1.894   3.783  0.4486  0.2910  0.9654
 5634SOL     OW17682   6.302   8.259   2.844  0.8820  0.4610  0.2147
 5634SOL    HW117683   6.237   8.209   2.794  0.8504  0.5133  0.2027
 5634SOL    HW217684   6.386   8.226   2.813  0.8750  0.9986 -0.4054
 5635SOL     OW17685   3.461   6.533   2.618  0.4889  0.1271  0.6174
 5635SOL    HW117686   3.445   6.454   2.670 -0.5517  0.1069  0.3014
 5635SOL    HW217687   3.380   6.584   2.627  0.2147  0.0626 -1.0573
 5636SOL     OW17688   5.936   8.127   3.359 -0.4111  0.2912 -0.2315
 5636SOL    HW117689   5.914   8.220   3.361 -1.2014  0.1220 -0.4174
 5636SOL    HW217690   5.879   8.088   3.425  0.4163  0.0335  0.3355
 5637SOL     OW17691   7.530   2.254   7.293  0.0372 -0.3746  0.5707
 5637SOL    HW117692   7.623   2.263   7.314 -0.0344 -1.6537  1.5660
 5637SOL    HW217693   7.529   2.217   7.205  0.4605  0.0917  0.3660
 5638SOL     OW17694   1.234   1.572   0.624 -0.0496  0.1262 -0.0437
 5638SOL    HW117695   1.305   1.567   0.560  0.8881  0.2869  0.9522
 5638SOL    HW217696   1.186   1.489   0.614  0.7761 -0.3461 -0.1774
 5639SOL     OW17697   5.761   2.049   8.038 -0.1780 -0.1610 -0.4745
 5639SOL    HW117698   5.718   2.021   8.119 -1.2979  0.4298 -0.8380
 5639SOL    HW217699   5.817   2.122   8.065 -3.0602  2.2833 -0.6761
 5640SOL     OW17700   8.247   4.317   8.217  1.0238 -0.0474 -0.0179
 5640SOL    HW117701   8.273   4.406   8.240  0.5035  0.7893 -2.3194
 5640SOL    HW217702   8.190   4.288   8.288  0.9337  1.5876  0.6035
 5641SOL     OW17703   4.659   6.327   2.574  0.2754  0.0577 -0.1130
 5641SOL    HW117704   4.716   6.294   2.504 -1.1985 -1.6907 -0.5669
 5641SOL    HW217705   4.680   6.272   2.649 -1.3863 -1.2590 -0.5446
 5642SOL     OW17706   6.569   3.225   2.428 -0.8110 -0.1845  0.0248
 5642SOL    HW117707   6.493   3.167   2.421 -0.6282 -0.4664  0.3723
 5642SOL    HW217708   6.580   3.240   2.522  1.1682 -2.2802  0.1986
 5643SOL     OW17709   1.422   3.223   7.834  0.3019 -0.1381  0.1971
 5643SOL    HW117710   1.368   3.164   7.782 -0.7168  0.3826  0.6224
 5643SOL    HW217711   1.386   3.310   7.816  1.6109  0.3261 -0.2251
 5644SOL     OW17712   6.363   5.121   1.370 -0.2919 -0.2842  0.1380
 5644SOL    HW117713   6.451   5.124   1.405 -0.1329  1.2128 -0.3082
 5644SOL    HW217714   6.366   5.054   1.302  0.8869  0.6839 -0.8102
 5645SOL     OW17715   3.897   0.216   4.009  0.6907 -0.3600 -0.9927
 5645SOL    HW117716   3.952   0.186   4.081  1.1342  0.8033 -0.8146
 5645SOL    HW217717   3.925   0.307   3.994  0.9236 -0.7044 -2.9270
 5646SOL     OW17718   0.121   3.394   4.004  0.0207  0.2785 -0.0400
 5646SOL    HW117719   0.106   3.328   4.072  0.7386  0.6912  0.5261
 5646SOL    HW217720   0.033   3.416   3.973 -0.2804 -0.2898  0.3966
 5647SOL     OW17721   4.445   8.262   4.025  0.6323 -0.5156 -0.0351
 5647SOL    HW117722   4.439   8.210   3.945 -0.3164 -0.1092 -0.2454
 5647SOL    HW217723   4.368   8.318   4.022  0.4087 -0.7190  1.3248
 5648SOL     OW17724   3.093   7.790   5.243 -0.3480  0.6442 -0.0860
 5648SOL    HW117725   3.159   7.767   5.307 -1.1064 -1.5040 -0.0134
 5648SOL    HW217726   3.136   7.778   5.158 -1.2793 -3.5434 -0.1692
 5649SOL     OW17727   5.404   1.291   0.787 -0.1749 -0.3403  0.7153
 5649SOL    HW117728   5.449   1.372   0.761 -0.2314 -0.1229  1.2757
 5649SOL    HW217729   5.315   1.319   0.809 -0.0532 -0.4718  1.3944
 5650SOL     OW17730   3.920   6.263   7.655  0.1555  0.3067 -0.4115
 5650SOL    HW117731   4.015   6.257   7.655  0.0645 -1.5949 -0.6369
 5650SOL    HW217732   3.897   6.271   7.748  0.5045  0.2448 -0.3177
 5651SOL     OW17733   2.266   1.340   6.968 -0.1542  0.5315 -0.3679
 5651SOL    HW117734   2.328   1.406   7.000  1.0552 -0.7792  0.1267
 5651SOL    HW217735   2.321   1.275   6.923 -1.0850 -0.8680  0.4161
 5652SOL     OW17736   3.769   4.917   4.529  0.1421 -0.1117  0.1153
 5652SOL    HW117737   3.746   4.934   4.438 -1.9315  1.0842  0.8175
 5652SOL    HW217738   3.857   4.953   4.538 -0.2387  1.1967 -1.0242
 5653SOL     OW17739   0.941   5.374   4.144  0.2537  0.5371 -0.0859
 5653SOL    HW117740   0.965   5.369   4.237  1.3138 -1.7174 -0.4141
 5653SOL    HW217741   0.911   5.285   4.123  0.3481  0.9271 -1.9964
 5654SOL     OW17742   1.886   6.487   1.563  0.1258  0.1087 -0.0691
 5654SOL    HW117743   1.808   6.504   1.615  1.3620  1.6456  1.3865
 5654SOL    HW217744   1.929   6.414   1.608  0.5295  0.5788  0.3174
 5655SOL     OW17745   1.589   0.098   5.038 -0.7103 -0.1551  0.2566
 5655SOL    HW117746   1.533   0.033   5.080 -1.2134  0.7002  0.9154
 5655SOL    HW217747   1.608   0.060   4.951  0.1938 -1.8589  1.1290
 5656SOL     OW17748   8.092   6.918   0.587 -0.1618 -0.0475 -0.5074
 5656SOL    HW117749   8.100   6.951   0.497  0.2073  0.1572 -0.4017
 5656SOL    HW217750   8.112   6.994   0.642  0.4268 -0.3802 -0.2580
 5657SOL     OW17751   5.307   4.178   7.570  0.1118  0.1228 -0.1778
 5657SOL    HW117752   5.367   4.197   7.498  0.5206 -0.2225  0.0690
 5657SOL    HW217753   5.356   4.203   7.649 -0.0950 -0.0938  0.0195
 5658SOL     OW17754   6.182   5.056   0.586  0.0079 -0.1506 -0.6146
 5658SOL    HW117755   6.188   5.046   0.491 -0.7783  1.3387 -0.8474
 5658SOL    HW217756   6.210   5.146   0.603  2.1618 -0.9995  0.8147
 5659SOL     OW17757   2.483   5.647   5.015  0.2585 -0.2014 -0.3069
 5659SOL    HW117758   2.445   5.640   4.927  0.1690 -1.8409 -0.1711
 5659SOL    HW217759   2.415   5.692   5.067 -0.2147 -0.3471 -0.7914
 5660SOL     OW17760   3.410   0.196   4.257  0.6349 -0.1857 -0.6961
 5660SOL    HW117761   3.474   0.245   4.309  2.1863  0.9771 -3.4656
 5660SOL    HW217762   3.327   0.212   4.301  1.7064  1.4740  0.9007
 5661SOL     OW17763   5.315   6.598   4.008 -0.5265  0.3036 -0.2576
 5661SOL    HW117764   5.260   6.676   3.994 -2.3915 -0.9529 -0.3658
 5661SOL    HW217765   5.252   6.526   4.011  1.2256 -1.3532 -1.3099
 5662SOL     OW17766   5.717   3.361   6.186 -0.6261 -0.2298  0.3261
 5662SOL    HW117767   5.694   3.330   6.098 -0.6675 -1.3970  0.7239
 5662SOL    HW217768   5.777   3.294   6.219 -0.0504  0.5711  0.9247
 5663SOL     OW17769   1.958   5.297   0.703  0.5898  0.2930 -0.4032
 5663SOL    HW117770   2.036   5.351   0.688  1.0210 -0.5470 -1.3560
 5663SOL    HW217771   1.945   5.298   0.797  0.4581  2.2169 -0.4016
 5664SOL     OW17772   5.281   5.643   0.614  0.2819  0.2589 -0.3635
 5664SOL    HW117773   5.187   5.654   0.627  0.5136 -0.5136  2.6097
 5664SOL    HW217774   5.321   5.692   0.685  2.0138 -1.4114 -0.0983
 5665SOL     OW17775   1.128   7.481   0.450 -0.4805  0.3235 -0.1763
 5665SOL    HW117776   1.123   7.386   0.462 -1.5442 -0.2311 -3.6953
 5665SOL    HW217777   1.217   7.496   0.418 -0.1417  0.6236  0.8757
 5666SOL     OW17778   1.879   0.150   5.819 -0.0905 -0.6048 -0.2795
 5666SOL    HW117779   1.795   0.167   5.861 -0.1974 -0.5750 -0.5002
 5666SOL    HW217780   1.940   0.210   5.861  0.6464 -3.0722  2.4750
 5667SOL     OW17781   2.029   6.017   5.739 -0.2335  0.2073  0.5767
 5667SOL    HW117782   2.032   6.014   5.834 -0.4576 -2.4558  0.5674
 5667SOL    HW217783   1.954   5.964   5.715 -0.2285  0.8829 -1.1117
 5668SOL     OW17784   0.712   0.080   7.731  0.1209 -0.7060  0.3132
 5668SOL    HW117785   0.698  -0.014   7.736 -1.1716 -0.4691  1.8736
 5668SOL    HW217786   0.672   0.105   7.647  0.1750 -1.4929  0.0411
 5669SOL     OW17787   6.985   6.973   4.334 -0.4428 -0.2347 -0.2321
 5669SOL    HW117788   7.024   6.889   4.307 -0.7638 -0.7177  0.7713
 5669SOL    HW217789   7.040   7.003   4.406  0.2464  0.9106 -1.2099
 5670SOL     OW17790   3.021   7.550   2.558  0.3975 -0.2472  0.2607
 5670SOL    HW117791   3.020   7.645   2.571  0.7998 -0.0269 -1.1666
 5670SOL    HW217792   3.011   7.539   2.464 -0.2496 -1.6535  0.4671
 5671SOL     OW17793   7.760   1.068   4.793  0.1128  0.4419 -0.3198
 5671SOL    HW117794   7.733   1.118   4.870 -0.0273  0.4382 -0.3657
 5671SOL    HW217795   7.806   0.992   4.829  1.3267  1.1708 -0.2806
 5672SOL     OW17796   7.588   5.966   0.764 -0.0297 -0.3453  0.2240
 5672SOL    HW117797   7.537   6.029   0.713  2.5604  1.4314 -0.3639
 5672SOL    HW217798   7.605   5.894   0.703 -0.3170 -0.1126 -0.1327
 5673SOL     OW17799   5.286   0.376   1.988  0.4834 -0.2975 -0.2502
 5673SOL    HW117800   5.329   0.320   2.053  1.6365 -0.1524 -0.8448
 5673SOL    HW217801   5.304   0.465   2.018  0.4405 -0.2366 -0.4039
 5674SOL     OW17802   6.178   6.324   2.731  0.9274  0.7249  0.5511
 5674SOL    HW117803   6.167   6.312   2.826 -1.0037 -0.8680  0.1879
 5674SOL    HW217804   6.261   6.281   2.711  0.7466 -0.0103  1.3470
 5675SOL     OW17805   3.794   2.074   0.643 -0.0966 -0.4277  0.5502
 5675SOL    HW117806   3.854   2.042   0.576  0.2741 -1.1197  1.1998
 5675SOL    HW217807   3.726   2.121   0.594  1.0728  0.5466 -0.1851
 5676SOL     OW17808   7.930   2.141   1.007 -0.2279 -0.0075  0.6960
 5676SOL    HW117809   7.900   2.110   0.922 -0.5514 -0.0306  0.8158
 5676SOL    HW217810   7.864   2.109   1.069  0.7306 -1.2220  1.1450
 5677SOL     OW17811   7.720   7.413   6.967 -0.4024 -0.4074  0.6244
 5677SOL    HW117812   7.732   7.431   7.061 -1.2701  0.1406  0.6381
 5677SOL    HW217813   7.777   7.476   6.923 -0.4992 -0.2197  0.7666
 5678SOL     OW17814   3.313   2.439   3.340 -0.0954 -0.1715 -0.1290
 5678SOL    HW117815   3.345   2.483   3.261 -0.9404  0.8605  0.0729
 5678SOL    HW217816   3.266   2.508   3.388  1.1731 -0.5385  1.7363
 5679SOL     OW17817   2.065   3.076   3.893 -0.4620 -0.0409 -0.5010
 5679SOL    HW117818   2.005   3.101   3.823 -1.2313  0.0162  0.1639
 5679SOL    HW217819   2.151   3.072   3.851 -0.7339  1.0535 -1.2137
 5680SOL     OW17820   1.899   5.211   6.220  0.4554  0.0083 -0.3314
 5680SOL    HW117821   1.951   5.150   6.169  1.1746  0.1708  0.1924
 5680SOL    HW217822   1.957   5.286   6.236  0.0483  0.2232  0.1970
 5681SOL     OW17823   3.762   7.136   7.715 -0.2651  0.4151 -0.0522
 5681SOL    HW117824   3.829   7.188   7.670  0.4571 -0.9753 -0.6356
 5681SOL    HW217825   3.742   7.065   7.655 -0.7305 -0.3741  0.9986
 5682SOL     OW17826   4.560   4.244   2.563  0.7367 -0.2426  0.6067
 5682SOL    HW117827   4.538   4.255   2.655 -2.3642  0.5451 -0.0755
 5682SOL    HW217828   4.533   4.326   2.522 -1.1192 -1.7084 -1.4035
 5683SOL     OW17829   1.294   2.953   4.479  0.0561 -0.1901  0.5514
 5683SOL    HW117830   1.268   2.986   4.566  1.1600  2.9082 -0.1705
 5683SOL    HW217831   1.217   2.969   4.424 -0.0287 -0.5266  0.5691
 5684SOL     OW17832   4.158   3.699   1.748  0.0684 -0.3165  0.4172
 5684SOL    HW117833   4.252   3.686   1.754 -0.0221 -1.4045 -0.2963
 5684SOL    HW217834   4.141   3.778   1.800  1.7363  1.5559 -1.6680
 5685SOL     OW17835   4.547   1.019   1.313 -0.0182  0.2577  0.2390
 5685SOL    HW117836   4.501   1.012   1.397 -3.9269 -0.2635 -1.6845
 5685SOL    HW217837   4.515   1.101   1.275 -0.5608 -0.8418 -1.8365
 5686SOL     OW17838   1.398   6.115   7.066 -0.0547  0.0267 -0.1673
 5686SOL    HW117839   1.472   6.176   7.055  0.6811 -1.0958 -1.8759
 5686SOL    HW217840   1.325   6.159   7.023  0.0245  0.4314  0.0980
 5687SOL     OW17841   8.165   5.732   6.539  0.1333 -0.2469 -0.6482
 5687SOL    HW117842   8.187   5.803   6.600  2.2245  1.1455 -2.8389
 5687SOL    HW217843   8.238   5.671   6.546 -0.6346 -1.1391 -0.2964
 5688SOL     OW17844   1.578   3.633   2.310  0.1286  0.7446 -0.0993
 5688SOL    HW117845   1.525   3.649   2.388  1.4482  0.1946  0.9625
 5688SOL    HW217846   1.602   3.541   2.315  2.3301  1.2815  0.2525
 5689SOL     OW17847   6.655   2.448   6.012  0.3804  0.1807 -0.1573
 5689SOL    HW117848   6.609   2.509   6.069  1.7950  0.6778  0.5158
 5689SOL    HW217849   6.735   2.427   6.060  0.0450 -2.0526 -0.4556
 5690SOL     OW17850   0.604   4.812   2.939  0.2535 -0.1805 -0.2697
 5690SOL    HW117851   0.605   4.907   2.927  0.4084 -0.0548  0.6446
 5690SOL    HW217852   0.609   4.800   3.034 -0.1686 -1.0981 -0.3524
 5691SOL     OW17853   6.691   8.015   3.312  0.0168 -0.1554  0.0682
 5691SOL    HW117854   6.695   8.075   3.386  0.8840 -0.8046  0.5726
 5691SOL    HW217855   6.627   8.053   3.252 -1.7169 -0.3122  1.7509
 5692SOL     OW17856   3.617   0.324   1.293 -0.0786 -0.3490  0.2314
 5692SOL    HW117857   3.666   0.259   1.344  1.8450  0.9561  0.1595
 5692SOL    HW217858   3.536   0.337   1.342  0.7671 -0.7233  1.8056
 5693SOL     OW17859   4.616   7.006   0.708  0.3241  0.3053 -0.0067
 5693SOL    HW117860   4.668   6.993   0.629 -1.8388 -1.9349 -1.2102
 5693SOL    HW217861   4.526   6.990   0.681 -0.7179  1.1873  2.5746
 5694SOL     OW17862   1.436   7.410   6.964  0.0645  0.0163  0.5645
 5694SOL    HW117863   1.478   7.476   6.909  1.0637 -0.5371  0.6147
 5694SOL    HW217864   1.364   7.377   6.911  0.7299 -0.1850 -0.2479
 5695SOL     OW17865   1.987   3.260   2.829  0.1527  0.8970  0.2417
 5695SOL    HW117866   1.923   3.327   2.851 -0.2481  0.1500  1.4032
 5695SOL    HW217867   2.015   3.224   2.913  1.0491  0.2378 -0.3171
 5696SOL     OW17868   6.494   1.013   1.762  0.3302 -0.5775 -0.2586
 5696SOL    HW117869   6.456   1.099   1.748 -0.9899 -1.0007  0.6164
 5696SOL    HW217870   6.588   1.025   1.745  0.1762  1.0318 -0.0769
 5697SOL     OW17871   6.134   3.935   7.927 -0.0139  0.1496  0.4845
 5697SOL    HW117872   6.186   3.893   7.858 -1.7111  0.1304 -0.8382
 5697SOL    HW217873   6.198   3.960   7.993  1.9774  1.9632 -1.9521
 5698SOL     OW17874   3.727   4.221   5.777 -0.3441  0.0913 -0.1067
 5698SOL    HW117875   3.799   4.178   5.731 -1.0957 -1.2801 -0.0473
 5698SOL    HW217876   3.769   4.294   5.823  0.5469  1.0355 -2.2959
 5699SOL     OW17877   2.910   7.619   1.418 -0.1801  0.3536 -0.1265
 5699SOL    HW117878   2.838   7.601   1.357  0.6907 -2.3496 -0.5179
 5699SOL    HW217879   2.882   7.579   1.500  0.3868  0.3315  0.0593
 5700SOL     OW17880   7.907   3.795   4.505 -0.5756 -0.1334  0.5151
 5700SOL    HW117881   7.877   3.840   4.584 -0.4325 -1.9495  1.6498
 5700SOL    HW217882   7.981   3.848   4.474 -1.4733  1.3486  0.7832
 5701SOL     OW17883   5.123   5.610   7.735 -0.1736 -0.6985 -0.1260
 5701SOL    HW117884   5.121   5.603   7.830 -2.0122 -1.4864 -0.1914
 5701SOL    HW217885   5.196   5.554   7.708  0.0963 -0.7983  0.7863
 5702SOL     OW17886   3.880   2.648   0.074 -0.0538 -0.3562 -0.4256
 5702SOL    HW117887   3.879   2.599  -0.008 -1.8791 -1.7428  0.3712
 5702SOL    HW217888   3.969   2.634   0.109  0.2043 -1.1329 -1.3560
 5703SOL     OW17889   1.603   2.582   1.905 -0.4437 -0.2430  0.0507
 5703SOL    HW117890   1.671   2.644   1.881  1.1438 -0.9309  2.3879
 5703SOL    HW217891   1.593   2.593   2.000 -1.7640 -1.9309  0.1530
 5704SOL     OW17892   5.090   4.763   4.930  0.1700 -0.3664 -0.0449
 5704SOL    HW117893   5.002   4.748   4.964  0.4122  0.4260  1.0029
 5704SOL    HW217894   5.125   4.832   4.987  1.0659  0.0982 -1.1345
 5705SOL     OW17895   1.158   6.373   6.993 -0.2268 -0.2647  0.5231
 5705SOL    HW117896   1.075   6.415   6.970 -0.5507 -1.2969 -0.2636
 5705SOL    HW217897   1.217   6.398   6.922 -0.8288 -2.2799 -0.7626
 5706SOL     OW17898   5.947   7.438   0.152 -1.0354  0.1331 -0.0926
 5706SOL    HW117899   5.935   7.360   0.206  0.6400 -0.2378 -0.1969
 5706SOL    HW217900   5.939   7.511   0.213  0.0963 -0.2515  0.5422
 5707SOL     OW17901   0.324   4.104   3.306  0.4307  0.1845 -0.0564
 5707SOL    HW117902   0.368   4.041   3.249 -0.0184  0.5154 -0.7798
 5707SOL    HW217903   0.306   4.055   3.386  0.8918 -0.3457 -0.2681
 5708SOL     OW17904   1.414   5.700   0.724 -0.5506 -0.7343  0.3465
 5708SOL    HW117905   1.441   5.611   0.744 -0.5671 -0.4338  1.8035
 5708SOL    HW217906   1.409   5.744   0.809 -2.7898  0.0301 -0.1168
 5709SOL     OW17907   5.147   4.375   7.584  0.0308 -0.0001  0.1293
 5709SOL    HW117908   5.209   4.304   7.568  1.7864  1.0214  1.9522
 5709SOL    HW217909   5.092   4.378   7.505  0.9577 -2.2811 -0.6675
 5710SOL     OW17910   7.792   2.437   5.830 -0.2549 -0.2571  0.1870
 5710SOL    HW117911   7.796   2.345   5.805  1.3539 -0.4714  1.1059
 5710SOL    HW217912   7.700   2.461   5.819 -0.1875 -1.0949 -3.0076
 5711SOL     OW17913   6.189   3.172   3.096 -0.2977 -0.3015  0.3615
 5711SOL    HW117914   6.189   3.138   3.006 -0.6596  0.5487  0.0265
 5711SOL    HW217915   6.246   3.112   3.144  1.7436  0.4582 -0.9362
 5712SOL     OW17916   4.493   5.862   3.891 -0.7077 -0.6582  0.0942
 5712SOL    HW117917   4.491   5.777   3.934 -0.2268 -0.6827  0.0813
 5712SOL    HW217918   4.587   5.882   3.883 -0.8127  0.4703  1.2845
 5713SOL     OW17919   3.019   3.113   7.294 -0.1085  0.0819 -0.2595
 5713SOL    HW117920   2.929   3.144   7.299 -0.1000  0.0724 -0.0273
 5713SOL    HW217921   3.040   3.114   7.201 -0.1544  0.6305 -0.2673
 5714SOL     OW17922   6.965   7.175   2.835 -0.1518  0.4252 -0.1705
 5714SOL    HW117923   6.889   7.126   2.868 -0.4031  1.1156  0.3206
 5714SOL    HW217924   6.931   7.222   2.759 -0.5277  1.5614  0.6639
 5715SOL     OW17925   5.967   3.292   1.067 -0.4267  0.1735 -0.4511
 5715SOL    HW117926   5.969   3.272   1.161 -0.5237 -0.3592 -0.5564
 5715SOL    HW217927   5.896   3.355   1.057 -0.3579  0.3012 -0.1547
 5716SOL     OW17928   3.500   7.634   2.519 -0.1001  0.2794  0.3931
 5716SOL    HW117929   3.512   7.539   2.513  0.4978  0.4228 -1.2855
 5716SOL    HW217930   3.447   7.656   2.442 -1.7950  1.1118  1.7121
 5717SOL     OW17931   5.738   5.536   6.508 -0.5191  0.8041  0.2864
 5717SOL    HW117932   5.822   5.491   6.522 -2.1537 -2.1401  1.5560
 5717SOL    HW217933   5.700   5.543   6.596 -0.7966  3.9624  0.0006
 5718SOL     OW17934   5.867   1.597   5.351 -0.0072  0.0704 -0.7821
 5718SOL    HW117935   5.890   1.686   5.378 -1.4698 -0.5331  3.1616
 5718SOL    HW217936   5.782   1.606   5.308  0.0698  0.6278 -0.8154
 5719SOL     OW17937   3.946   5.651   1.595 -0.2109  0.4614 -0.3470
 5719SOL    HW117938   3.981   5.717   1.655 -1.3222 -1.2774  2.3800
 5719SOL    HW217939   3.869   5.693   1.555 -1.2958  0.6914  1.8404
 5720SOL     OW17940   1.282   7.153   4.813  0.0073  0.3457 -0.6200
 5720SOL    HW117941   1.186   7.158   4.812  0.0433  2.1393  0.6341
 5720SOL    HW217942   1.309   7.226   4.867  2.0897 -0.6234 -0.2634
 5721SOL     OW17943   3.951   3.260   5.341 -0.1799  0.1378  0.0715
 5721SOL    HW117944   4.046   3.272   5.350 -0.2757  0.8621  0.1467
 5721SOL    HW217945   3.934   3.176   5.385  0.5558 -0.4769 -0.7881
 5722SOL     OW17946   4.353   3.107   4.234  0.8813  0.3255  0.0341
 5722SOL    HW117947   4.283   3.122   4.298  0.2727  0.8589 -0.7446
 5722SOL    HW217948   4.333   3.167   4.162  1.0225 -0.9468 -1.0933
 5723SOL     OW17949   7.726   4.180   5.734  0.0162  0.0029  0.9234
 5723SOL    HW117950   7.655   4.118   5.715 -0.2109 -0.1982  2.3309
 5723SOL    HW217951   7.795   4.125   5.772  1.1872  0.1069 -0.9060
 5724SOL     OW17952   0.129   7.147   4.245 -0.0216 -0.2023  0.0150
 5724SOL    HW117953   0.212   7.193   4.257 -0.1990 -0.0841  0.8607
 5724SOL    HW217954   0.066   7.197   4.297 -0.6478 -0.2335 -0.6924
 5725SOL     OW17955   0.432   4.894   5.808  0.2574  0.2225  0.0128
 5725SOL    HW117956   0.456   4.898   5.900  0.0174  0.4639  0.0648
 5725SOL    HW217957   0.352   4.946   5.801 -0.3618 -0.7141 -0.1196
 5726SOL     OW17958   6.524   8.250   1.638  0.3615 -0.4312 -0.0929
 5726SOL    HW117959   6.598   8.212   1.686 -0.5023 -0.8830  0.9335
 5726SOL    HW217960   6.508   8.334   1.682  0.6467 -0.0485 -0.7106
 5727SOL     OW17961   3.626   4.846   3.476 -0.9454 -0.4370 -0.4987
 5727SOL    HW117962   3.658   4.818   3.562 -1.3033  2.2685  0.5962
 5727SOL    HW217963   3.537   4.878   3.493 -1.0025  0.1872 -1.8664
 5728SOL     OW17964   4.769   0.893   6.018 -0.6077 -0.0953  0.5870
 5728SOL    HW117965   4.694   0.933   5.974  1.1089  0.0878 -2.4259
 5728SOL    HW217966   4.754   0.799   6.011 -1.1628 -0.0493  1.1441
 5729SOL     OW17967   1.272   2.749   2.111 -0.1439 -0.4235  0.3307
 5729SOL    HW117968   1.264   2.832   2.156  0.5019 -0.5395  0.6756
 5729SOL    HW217969   1.257   2.682   2.178  1.4498 -0.6041  0.5422
 5730SOL     OW17970   5.119   0.660   7.069  0.1192 -0.4396  0.0198
 5730SOL    HW117971   5.092   0.614   6.990  1.7293 -0.6858 -0.4286
 5730SOL    HW217972   5.064   0.739   7.071 -0.0850 -0.5287 -1.2347
 5731SOL     OW17973   6.769   5.465   3.164 -0.0412  0.5268  0.1423
 5731SOL    HW117974   6.742   5.414   3.240 -0.6370 -0.0933 -0.4639
 5731SOL    HW217975   6.706   5.537   3.159  1.7399  2.3380  1.9388
 5732SOL     OW17976   5.104   3.967   4.171 -0.2851 -0.0571  0.2109
 5732SOL    HW117977   5.013   3.975   4.202 -0.1425  1.2561  0.3433
 5732SOL    HW217978   5.109   3.879   4.135 -1.7151 -0.0358 -0.1113
 5733SOL     OW17979   4.579   2.297   4.878 -0.8233 -0.0316 -0.2636
 5733SOL    HW117980   4.617   2.348   4.949  1.7874 -1.1586 -0.7271
 5733SOL    HW217981   4.546   2.218   4.920 -3.0741  1.0299  0.1670
 5734SOL     OW17982   7.120   1.658   0.988 -0.9506  0.4349  0.0000
 5734SOL    HW117983   7.214   1.658   0.970 -0.5864  1.5862  1.7061
 5734SOL    HW217984   7.096   1.565   0.990 -0.0810  0.1440 -1.3669
 5735SOL     OW17985   3.352   4.879   1.027  0.7484 -0.2759 -0.3265
 5735SOL    HW117986   3.438   4.838   1.037  1.4127  1.3877  1.4976
 5735SOL    HW217987   3.343   4.934   1.104 -0.6287  2.0012 -1.9881
 5736SOL     OW17988   8.105   0.668   2.084 -0.4341 -0.1861  0.5436
 5736SOL    HW117989   8.076   0.660   1.993  0.5230 -2.1732  0.3553
 5736SOL    HW217990   8.027   0.648   2.136 -0.3120 -2.0599  0.0868
 5737SOL     OW17991   2.588   5.778   4.364 -0.2008 -0.4192 -0.0164
 5737SOL    HW117992   2.652   5.801   4.432  0.3342 -0.1865 -0.5928
 5737SOL    HW217993   2.530   5.855   4.359 -0.4606 -0.5823  0.4221
 5738SOL     OW17994   0.564   7.926   3.092 -0.1806  0.2602 -0.1016
 5738SOL    HW117995   0.621   7.857   3.127  0.6822  1.9753  2.0626
 5738SOL    HW217996   0.580   7.923   2.997  2.2974 -0.4032  0.2529
 5739SOL     OW17997   5.848   2.297   5.057 -0.5343  0.1393 -0.0976
 5739SOL    HW117998   5.754   2.288   5.076 -0.7941 -1.8780 -1.9207
 5739SOL    HW217999   5.886   2.215   5.087  0.8901  1.3116  1.4967
 5740SOL     OW18000   0.243   0.798   7.904  0.3523 -1.1221 -0.1929
 5740SOL    HW118001   0.295   0.785   7.825  0.2354 -0.2506 -0.4282
 5740SOL    HW218002   0.217   0.890   7.901 -0.6400 -1.3684  0.2607
 5741SOL     OW18003   2.814   6.264   7.895 -0.1663  0.1838  0.7446
 5741SOL    HW118004   2.830   6.169   7.895  1.4396  0.4100 -0.7121
 5741SOL    HW218005   2.776   6.282   7.809  0.1055  0.9324  0.7757
 5742SOL     OW18006   0.778   1.684   4.861  0.1907  0.2070  0.3361
 5742SOL    HW118007   0.798   1.777   4.871  0.5508  0.1109  0.5528
 5742SOL    HW218008   0.845   1.640   4.914  0.5162 -0.2090 -0.4026
 5743SOL     OW18009   2.890   7.538   5.554  0.5019 -0.0001  0.0730
 5743SOL    HW118010   2.924   7.450   5.570  0.2336 -0.1623 -0.2184
 5743SOL    HW218011   2.826   7.552   5.624 -2.2024 -1.5255 -1.8537
 5744SOL     OW18012   3.494   0.888   2.914  0.2789  0.8523 -0.7075
 5744SOL    HW118013   3.516   0.795   2.908 -0.6768  0.5544  0.2165
 5744SOL    HW218014   3.405   0.889   2.947 -0.1294  2.0847 -1.7739
 5745SOL     OW18015   0.133   2.760   2.691 -0.3790  0.3344  0.3020
 5745SOL    HW118016   0.056   2.806   2.727 -0.3703  0.6705 -0.1076
 5745SOL    HW218017   0.108   2.738   2.602  0.4563  1.5692 -0.2744
 5746SOL     OW18018   8.180   3.388   3.615 -0.2364 -0.3319 -0.3758
 5746SOL    HW118019   8.276   3.385   3.625  0.3254  3.7180 -2.5275
 5746SOL    HW218020   8.160   3.315   3.556  1.5177 -1.1684 -0.0055
 5747SOL     OW18021   7.092   2.264   6.553 -0.1250  0.1078  0.2975
 5747SOL    HW118022   7.138   2.347   6.540  0.9262 -0.7773 -2.4258
 5747SOL    HW218023   7.123   2.232   6.637  1.7797  1.1005  0.0276
 5748SOL     OW18024   4.426   4.655   6.851  0.1140  0.6532  0.0320
 5748SOL    HW118025   4.356   4.613   6.900 -1.2316  1.0696 -1.4231
 5748SOL    HW218026   4.456   4.589   6.789 -0.3551  1.0726 -0.6547
 5749SOL     OW18027   2.577   4.094   7.480 -0.1511 -0.0399  0.1051
 5749SOL    HW118028   2.576   4.032   7.407 -0.5982  2.2130 -1.9387
 5749SOL    HW218029   2.485   4.110   7.499 -0.0361 -0.3083  0.9238
 5750SOL     OW18030   1.346   7.579   0.285 -0.3370  0.5768 -0.2744
 5750SOL    HW118031   1.335   7.660   0.334 -0.5377 -0.1929  0.9992
 5750SOL    HW218032   1.418   7.596   0.225 -1.7428  2.3845 -1.5597
 5751SOL     OW18033   0.444   7.391   5.595 -0.1695 -0.3704  0.7850
 5751SOL    HW118034   0.353   7.367   5.609 -0.0014 -0.4945  1.8009
 5751SOL    HW218035   0.491   7.345   5.665  0.8456 -1.3833 -0.5199
 5752SOL     OW18036   4.219   0.517   5.053 -0.1641 -0.3137  0.2831
 5752SOL    HW118037   4.178   0.434   5.078  1.3327 -1.2131 -0.1183
 5752SOL    HW218038   4.228   0.566   5.135 -0.4688 -0.8203  0.6216
 5753SOL     OW18039   2.146   6.022   6.444 -0.0587 -0.3775 -0.2832
 5753SOL    HW118040   2.201   6.057   6.514 -1.5521  0.8985  0.3149
 5753SOL    HW218041   2.058   6.054   6.465 -0.3603  1.2015 -3.4569
 5754SOL     OW18042   4.984   5.926   2.154 -0.3045  0.1365  0.4432
 5754SOL    HW118043   5.009   5.924   2.061  0.2013 -0.7961  0.5890
 5754SOL    HW218044   4.915   5.992   2.158 -1.6801 -1.1277 -0.9490
 5755SOL     OW18045   5.376   7.894   4.629  0.6361  0.4001  0.2217
 5755SOL    HW118046   5.341   7.905   4.540  1.4307  0.2876 -0.1100
 5755SOL    HW218047   5.300   7.907   4.686 -0.5055 -2.2101 -0.5616
 5756SOL     OW18048   7.534   8.173   6.961 -0.0045 -0.0143 -0.6668
 5756SOL    HW118049   7.474   8.205   6.894 -1.2779 -0.3656  0.2815
 5756SOL    HW218050   7.499   8.088   6.986  1.2703 -0.5267 -0.5654
 5757SOL     OW18051   3.095   6.153   3.672  0.5876 -0.3033 -0.3582
 5757SOL    HW118052   3.155   6.133   3.600  0.0087  1.4692 -1.3982
 5757SOL    HW218053   3.058   6.238   3.649  0.3349  0.2962  2.0324
 5758SOL     OW18054   5.426   8.045   5.621  0.2474 -0.1674 -0.0767
 5758SOL    HW118055   5.454   7.957   5.595  0.2936 -0.5300  1.1411
 5758SOL    HW218056   5.437   8.097   5.542 -0.3784 -1.3812 -1.0114
 5759SOL     OW18057   5.026   3.809   6.736 -0.6047 -0.2009 -0.2502
 5759SOL    HW118058   5.040   3.717   6.712 -0.2081 -0.7739  1.9585
 5759SOL    HW218059   4.968   3.805   6.812  0.4559  1.2649  0.6829
 5760SOL     OW18060   6.598   7.994   4.778  0.0236 -0.1195 -0.3386
 5760SOL    HW118061   6.528   8.059   4.782  0.0243 -0.1638  0.7281
 5760SOL    HW218062   6.676   8.042   4.807 -0.1343 -0.7784  1.2802
 5761SOL     OW18063   0.151   7.188   0.839  0.4435 -0.3722  0.1132
 5761SOL    HW118064   0.116   7.271   0.807 -2.3149 -1.5111 -0.0598
 5761SOL    HW218065   0.142   7.127   0.766  1.4299 -1.1069  0.5711
 5762SOL     OW18066   3.824   4.291   7.692 -0.0429  0.2240 -0.6161
 5762SOL    HW118067   3.845   4.198   7.700 -1.6308 -0.0943  0.1579
 5762SOL    HW218068   3.752   4.294   7.629 -0.0104  0.9215 -0.6226
 5763SOL     OW18069   3.969   6.376   4.789  0.2225  0.9486 -0.0768
 5763SOL    HW118070   3.918   6.435   4.846 -1.8455  0.2980 -1.1530
 5763SOL    HW218071   3.905   6.341   4.728  1.8365 -0.7025 -0.9057
 5764SOL     OW18072   3.985   3.528   7.897 -0.7720  0.3840  0.1991
 5764SOL    HW118073   4.029   3.572   7.969 -1.2134  1.9590 -0.4501
 5764SOL    HW218074   3.937   3.598   7.852 -0.7110 -0.5883 -1.4576
 5765SOL     OW18075   5.220   3.392   4.495 -0.6309  0.2699  0.0101
 5765SOL    HW118076   5.142   3.406   4.441 -0.3457  2.4032  0.0464
 5765SOL    HW218077   5.229   3.473   4.545  4.3007  2.4116 -3.4926
 5766SOL     OW18078   0.075   2.894   3.031 -0.1899 -0.3873 -0.3879
 5766SOL    HW118079   0.153   2.941   3.004  0.4288 -0.9391  0.3994
 5766SOL    HW218080   0.013   2.906   2.959  1.4045 -1.8699 -2.0900
 5767SOL     OW18081   2.409   0.799   7.412  0.0034  0.3218 -0.0156
 5767SOL    HW118082   2.382   0.887   7.388 -0.0543 -0.0349 -1.3911
 5767SOL    HW218083   2.383   0.789   7.503  1.4058  2.2429  0.6478
 5768SOL     OW18084   0.952   2.558   7.090 -0.2292 -0.4751  0.4411
 5768SOL    HW118085   1.024   2.507   7.128 -0.5483 -0.7191  0.7251
 5768SOL    HW218086   0.963   2.645   7.127  0.4332 -0.2814 -0.1941
 5769SOL     OW18087   7.089   2.528   0.447 -0.1404  0.5849 -0.2042
 5769SOL    HW118088   7.104   2.623   0.448 -0.2374  0.6017 -0.4178
 5769SOL    HW218089   7.021   2.515   0.381 -0.8733  0.4727  0.5507
 5770SOL     OW18090   0.420   6.426   3.670 -0.2413 -0.1853 -0.0942
 5770SOL    HW118091   0.494   6.413   3.728 -1.1435 -0.4386  1.0453
 5770SOL    HW218092   0.349   6.454   3.728 -1.2402 -0.6794 -1.0433
 5771SOL     OW18093   5.826   3.751   7.055 -0.3881 -0.1687  0.7090
 5771SOL    HW118094   5.882   3.703   7.117 -0.6190 -2.6737 -0.8999
 5771SOL    HW218095   5.751   3.694   7.042 -0.2506  0.1618 -2.0300
 5772SOL     OW18096   2.779   4.036   1.624 -0.2277 -0.2447 -0.6488
 5772SOL    HW118097   2.769   4.057   1.532  1.4276  0.8016 -0.6368
 5772SOL    HW218098   2.823   3.951   1.624  0.6959  0.2158 -0.8722
 5773SOL     OW18099   8.259   0.301   2.466 -0.7695  0.0862 -0.3648
 5773SOL    HW118100   8.345   0.258   2.469  0.8543  3.1350  1.6193
 5773SOL    HW218101   8.196   0.231   2.484  1.1620 -2.3370 -2.2718
 5774SOL     OW18102   2.175   5.622   2.515 -0.1146  0.7025  0.4030
 5774SOL    HW118103   2.117   5.611   2.591 -1.2087  0.8668 -0.3844
 5774SOL    HW218104   2.200   5.532   2.491 -0.7160  0.5718  0.2488
 5775SOL     OW18105   1.819   2.090   4.306 -0.4745 -0.4516  0.7288
 5775SOL    HW118106   1.747   2.137   4.347 -0.7168 -1.6526  1.7170
 5775SOL    HW218107   1.805   2.103   4.212 -1.7924 -0.3773  0.9127
 5776SOL     OW18108   3.363   4.939   3.561  0.1918 -0.0003 -0.1095
 5776SOL    HW118109   3.405   4.953   3.646 -0.7967 -2.9001  0.9573
 5776SOL    HW218110   3.273   4.971   3.574  0.3554  0.6293 -0.4730
 5777SOL     OW18111   2.838   4.003   2.158  0.0322 -0.0140 -0.4264
 5777SOL    HW118112   2.742   3.994   2.159 -0.2556  2.1276 -2.2012
 5777SOL    HW218113   2.865   3.960   2.077  0.5750 -0.4364 -0.0279
 5778SOL     OW18114   5.816   3.441   6.981  0.2022 -0.0092 -0.4163
 5778SOL    HW118115   5.783   3.351   6.978  1.2093 -0.3793 -0.9045
 5778SOL    HW218116   5.791   3.478   6.896 -2.8086  1.1706  0.8572
 5779SOL     OW18117   0.785   0.444   6.813 -0.3823 -0.2014  0.3090
 5779SOL    HW118118   0.861   0.388   6.828 -0.6069 -1.7981 -3.4552
 5779SOL    HW218119   0.710   0.386   6.822 -0.6871 -0.3431 -2.3159
 5780SOL     OW18120   5.194   3.098   0.340 -0.2046  0.0285  0.1565
 5780SOL    HW118121   5.261   3.136   0.398 -0.2248  0.3015  0.0043
 5780SOL    HW218122   5.147   3.174   0.305 -1.4637 -0.2048  1.2702
 5781SOL     OW18123   6.023   4.423   7.367  0.0745 -0.1456 -0.2985
 5781SOL    HW118124   5.976   4.343   7.390  1.2386 -1.3557 -1.8828
 5781SOL    HW218125   6.000   4.438   7.275  0.5290  0.8754 -0.2600
 5782SOL     OW18126   4.194   7.057   7.960  0.3634  0.2667 -0.6275
 5782SOL    HW118127   4.184   7.074   7.867 -1.9531  0.8387 -0.3376
 5782SOL    HW218128   4.123   6.996   7.981  0.2254  0.9094  0.9202
 5783SOL     OW18129   4.867   0.080   4.274 -0.1573 -0.3357  0.0117
 5783SOL    HW118130   4.854  -0.015   4.282 -1.8866 -0.0689  0.8294
 5783SOL    HW218131   4.780   0.114   4.254  0.2247  1.2029  0.8475
 5784SOL     OW18132   2.340   4.818   4.932 -0.2942  0.3756  0.8098
 5784SOL    HW118133   2.251   4.818   4.896 -0.6960 -3.1833  1.4169
 5784SOL    HW218134   2.337   4.878   5.006 -2.3382  0.0151  1.0665
 5785SOL     OW18135   5.461   4.682   6.925 -0.7376 -0.0418  0.4073
 5785SOL    HW118136   5.373   4.693   6.890 -0.3772  1.7718 -0.0335
 5785SOL    HW218137   5.507   4.630   6.859 -1.4916 -1.1972  0.7428
 5786SOL     OW18138   8.033   5.347   2.876  0.4099  0.7043  0.0993
 5786SOL    HW118139   7.953   5.375   2.831  0.1189 -1.0063 -0.5301
 5786SOL    HW218140   8.070   5.280   2.818  1.6567  0.6156  0.9755
 5787SOL     OW18141   6.602   4.322   5.613  0.4293 -0.0384 -0.0228
 5787SOL    HW118142   6.635   4.402   5.653 -0.6270  0.3610  0.0619
 5787SOL    HW218143   6.643   4.320   5.526  1.7921 -0.3041  0.5928
 5788SOL     OW18144   0.041   0.473   1.458  0.4397  0.6433  0.0929
 5788SOL    HW118145   0.083   0.419   1.390 -0.0949  1.5342 -0.9752
 5788SOL    HW218146   0.090   0.555   1.456 -1.2247  1.6688 -1.1137
 5789SOL     OW18147   7.531   6.405   2.432 -0.5025 -0.4516 -0.5010
 5789SOL    HW118148   7.532   6.343   2.505  1.2582  0.0511 -0.0387
 5789SOL    HW218149   7.593   6.474   2.459 -0.2751  0.0553 -2.2050
 5790SOL     OW18150   7.553   0.794   0.505 -0.5872  0.1817  0.4205
 5790SOL    HW118151   7.630   0.793   0.562  0.7130  0.6731 -1.2377
 5790SOL    HW218152   7.583   0.837   0.425 -2.2368 -0.7574 -0.7620
 5791SOL     OW18153   0.509   7.083   4.973 -0.5757  0.5436 -0.0106
 5791SOL    HW118154   0.523   7.120   4.886 -0.8655  2.1851  0.6054
 5791SOL    HW218155   0.465   6.999   4.957  0.5603  0.1815 -1.4739
 5792SOL     OW18156   3.959   2.394   6.996  0.6432  0.5793  0.7627
 5792SOL    HW118157   3.959   2.310   7.041 -0.5547 -0.0222 -0.2784
 5792SOL    HW218158   3.877   2.435   7.024 -0.6961 -0.2864 -1.6146
 5793SOL     OW18159   7.431   1.696   0.420  0.5693 -0.0319  0.1820
 5793SOL    HW118160   7.388   1.613   0.439  2.1384 -0.7475  0.8083
 5793SOL    HW218161   7.410   1.714   0.329 -0.2553 -0.8116  0.1978
 5794SOL     OW18162   4.371   5.748   2.389 -0.1420 -0.2650  0.1230
 5794SOL    HW118163   4.294   5.704   2.426  0.3307 -0.2221  1.2006
 5794SOL    HW218164   4.386   5.705   2.305 -1.2498 -0.3701 -0.0305
 5795SOL     OW18165   3.902   4.956   7.737 -0.0083 -0.1111 -0.0884
 5795SOL    HW118166   3.908   5.027   7.800  0.7254  2.0639 -2.4120
 5795SOL    HW218167   3.990   4.919   7.733  0.3747  0.8165 -0.8832
 5796SOL     OW18168   2.071   2.787   7.592 -0.8156  0.2684 -0.1728
 5796SOL    HW118169   2.118   2.709   7.620  1.0345  1.9609  1.7986
 5796SOL    HW218170   2.122   2.820   7.518 -0.0974  0.9070  0.5788
 5797SOL     OW18171   7.379   1.346   7.198  1.0671  0.1573 -0.7454
 5797SOL    HW118172   7.302   1.343   7.140  1.2890  1.9306 -1.2061
 5797SOL    HW218173   7.342   1.356   7.286  0.7497  1.0097 -0.9651
 5798SOL     OW18174   3.068   7.083   1.800 -0.5898 -0.5478  0.3539
 5798SOL    HW118175   3.085   7.177   1.796 -0.3803 -0.5367  1.2510
 5798SOL    HW218176   3.078   7.053   1.710 -1.0257  0.3483 -0.0061
 5799SOL     OW18177   5.668   5.930   1.621 -0.4559  0.0065  0.0804
 5799SOL    HW118178   5.728   6.003   1.639  0.4411 -0.6954  0.0006
 5799SOL    HW218179   5.583   5.960   1.653 -0.6044  1.9681 -1.8596
 5800SOL     OW18180   3.396   1.955   5.581 -0.1026 -0.0866  0.2275
 5800SOL    HW118181   3.440   1.994   5.506  1.2070  0.9869  1.4780
 5800SOL    HW218182   3.387   1.863   5.559  0.4133  0.1663 -1.1566
 5801SOL     OW18183   6.308   7.299   6.798 -0.0143 -0.6080  0.3454
 5801SOL    HW118184   6.213   7.303   6.791 -0.1009 -1.2821  1.0236
 5801SOL    HW218185   6.332   7.213   6.763  0.3109 -0.5867  0.5094
 5802SOL     OW18186   2.339   2.741   2.414  0.1549 -0.3324 -0.6043
 5802SOL    HW118187   2.257   2.722   2.369  0.0104  1.0149 -0.9455
 5802SOL    HW218188   2.349   2.836   2.407  1.2394 -0.3596  0.3075
 5803SOL     OW18189   2.974   3.982   6.462 -0.5114 -0.2695 -0.3811
 5803SOL    HW118190   2.900   4.040   6.445 -0.8931 -0.6641 -0.0958
 5803SOL    HW218191   3.003   4.005   6.550  0.0079  0.2063 -0.6720
 5804SOL     OW18192   7.875   6.503   2.335 -0.0451  0.0593  0.5930
 5804SOL    HW118193   7.876   6.597   2.318  0.2580 -0.1992 -0.9778
 5804SOL    HW218194   7.829   6.466   2.259 -0.3313 -1.0399  1.2889
 5805SOL     OW18195   1.454   6.553   2.589  0.2881  0.7265  0.3130
 5805SOL    HW118196   1.519   6.616   2.620 -0.7738  1.6112  0.8122
 5805SOL    HW218197   1.396   6.604   2.533 -1.0060  0.3930  1.2871
 5806SOL     OW18198   4.804   1.382   3.559 -0.2897  0.1537  0.4373
 5806SOL    HW118199   4.768   1.410   3.474  1.2872  0.4680 -0.1687
 5806SOL    HW218200   4.742   1.316   3.590 -1.2186  0.4491 -0.6795
 5807SOL     OW18201   6.128   7.252   4.320  0.3402 -0.2110 -0.1726
 5807SOL    HW118202   6.052   7.204   4.288 -0.2951 -0.0382  1.0211
 5807SOL    HW218203   6.107   7.344   4.305  0.5417 -0.1862 -0.3116
 5808SOL     OW18204   0.118   0.833   8.306  0.7252 -0.4284  0.3211
 5808SOL    HW118205   0.080   0.775   8.373  1.0462  0.8209  1.6484
 5808SOL    HW218206   0.177   0.890   8.356 -0.7309  2.0685 -0.6589
 5809SOL     OW18207   4.239   1.678   7.814  0.1336  0.2379 -0.2615
 5809SOL    HW118208   4.251   1.727   7.895  0.4399 -0.8401  0.3696
 5809SOL    HW218209   4.327   1.650   7.789 -0.1970 -1.4813  0.3749
 5810SOL     OW18210   1.095   5.039   2.306  0.1671 -0.1020 -0.3021
 5810SOL    HW118211   1.114   5.131   2.290 -1.2065  0.4135  0.7679
 5810SOL    HW218212   1.005   5.027   2.275 -0.7205 -0.3150  2.1187
 5811SOL     OW18213   8.035   2.498   5.711  0.2053 -0.1459  0.6635
 5811SOL    HW118214   8.020   2.584   5.671  1.1894  0.1951  0.9986
 5811SOL    HW218215   7.952   2.476   5.752 -0.5494 -0.0852 -0.7704
 5812SOL     OW18216   6.582   7.553   8.302  0.1743  0.0784 -0.4686
 5812SOL    HW118217   6.515   7.486   8.315  0.6619 -0.8940 -2.6459
 5812SOL    HW218218   6.644   7.538   8.374  0.3959 -2.0092 -1.0216
 5813SOL     OW18219   8.222   6.740   6.231 -0.0639  0.2241 -0.0245
 5813SOL    HW118220   8.239   6.786   6.313 -1.5613 -1.9150  1.5672
 5813SOL    HW218221   8.131   6.761   6.209 -0.4095 -1.0435  0.1316
 5814SOL     OW18222   5.778   5.248   5.086 -0.1587 -0.1564 -0.2941
 5814SOL    HW118223   5.767   5.287   5.000 -1.8154  2.7684  1.1021
 5814SOL    HW218224   5.690   5.220   5.112  0.1200 -0.0308  0.8572
 5815SOL     OW18225   3.491   0.542   7.054 -0.0281 -0.2466  0.1782
 5815SOL    HW118226   3.506   0.467   7.112 -0.7119 -1.2157 -0.8762
 5815SOL    HW218227   3.511   0.619   7.109  1.6975 -1.2046  0.9716
 5816SOL     OW18228   3.245   1.874   1.382 -0.3555  0.1092  0.0118
 5816SOL    HW118229   3.237   1.793   1.332 -0.3551  0.4529 -0.5515
 5816SOL    HW218230   3.164   1.881   1.431  0.5093 -1.3582  1.7847
 5817SOL     OW18231   6.534   3.624   3.407 -0.3651 -0.0366  0.3054
 5817SOL    HW118232   6.600   3.685   3.376 -0.4487 -1.4904 -3.1189
 5817SOL    HW218233   6.583   3.550   3.443 -0.1829  0.0778  0.2883
 5818SOL     OW18234   1.022   4.408   3.990 -0.7796 -0.8357 -0.6608
 5818SOL    HW118235   0.973   4.376   4.066 -0.2062 -0.0460  0.0551
 5818SOL    HW218236   1.084   4.337   3.970  0.2288 -0.3639  0.6872
 5819SOL     OW18237   4.667   4.429   8.214 -0.2312 -0.4464 -0.1378
 5819SOL    HW118238   4.603   4.357   8.217 -0.6329 -0.1314 -0.9016
 5819SOL    HW218239   4.750   4.388   8.239 -0.2168 -1.4556 -1.7055
 5820SOL     OW18240   5.962   0.396   7.598 -0.2098  0.4575  0.3976
 5820SOL    HW118241   6.006   0.380   7.681 -1.3344  1.1370  1.1660
 5820SOL    HW218242   5.994   0.482   7.570  0.0041  0.3264  0.2387
 5821SOL     OW18243   5.747   2.378   4.005  0.0282 -0.2239  0.4473
 5821SOL    HW118244   5.767   2.416   3.919 -1.2065  0.0382  0.2470
 5821SOL    HW218245   5.717   2.290   3.986  0.5315 -0.4490  0.6904
 5822SOL     OW18246   5.553   7.852   4.936 -0.1963  0.0575 -0.1339
 5822SOL    HW118247   5.565   7.759   4.951  2.3732  0.0461 -1.6202
 5822SOL    HW218248   5.528   7.859   4.844 -2.3611  0.7867  0.4496
 5823SOL     OW18249   1.505   2.287   0.551 -0.3385  0.0710  0.9327
 5823SOL    HW118250   1.422   2.314   0.590 -0.2353  0.8955  0.6075
 5823SOL    HW218251   1.550   2.238   0.620 -0.7495  0.3211  1.3829
 5824SOL     OW18252   4.614   1.145   4.288 -0.1488 -0.4895  0.1037
 5824SOL    HW118253   4.635   1.211   4.222 -1.0164 -0.2302  0.0707
 5824SOL    HW218254   4.688   1.147   4.348  0.7158 -0.8375 -0.9336
 5825SOL     OW18255   8.315   4.066   2.635  1.0675  0.5915  0.1272
 5825SOL    HW118256   8.230   4.075   2.592  0.3768 -0.4246  1.2120
 5825SOL    HW218257   8.318   4.139   2.697  1.0421  0.6903  0.0146
 5826SOL     OW18258   2.701   5.182   7.449 -0.3736  0.3082  0.1207
 5826SOL    HW118259   2.774   5.233   7.483  0.5808 -0.3435 -0.8798
 5826SOL    HW218260   2.662   5.237   7.381 -1.6786  1.2079  1.5381
 5827SOL     OW18261   2.957   3.193   3.270  0.5905  0.0272  0.3322
 5827SOL    HW118262   3.024   3.216   3.334 -0.6491 -1.2971  2.1963
 5827SOL    HW218263   2.971   3.100   3.253  0.8728  0.3348 -1.3840
 5828SOL     OW18264   7.949   1.665   7.942 -0.2479  0.0296  0.0789
 5828SOL    HW118265   7.866   1.703   7.914 -0.2361 -2.0384 -3.3421
 5828SOL    HW218266   7.924   1.582   7.983  0.0581 -0.1660 -0.1276
 5829SOL     OW18267   2.609   6.220   4.057 -0.3659 -0.3919  0.2647
 5829SOL    HW118268   2.634   6.243   4.147 -0.2619 -0.7529  0.3315
 5829SOL    HW218269   2.611   6.124   4.056  0.9890 -0.3778 -0.5016
 5830SOL     OW18270   1.903   6.126   1.178  0.6217  0.1058  0.5537
 5830SOL    HW118271   1.846   6.204   1.176  2.0906  1.2184 -0.0161
 5830SOL    HW218272   1.855   6.063   1.231 -1.8557  0.4114 -1.1132
 5831SOL     OW18273   0.240   0.497   2.343 -0.3633  0.6698 -0.2311
 5831SOL    HW118274   0.283   0.493   2.428 -0.5942  0.2829 -0.1342
 5831SOL    HW218275   0.230   0.406   2.316 -1.4351  0.7411 -0.0976
 5832SOL     OW18276   0.290   6.734   7.436 -0.2642 -0.0877  0.0164
 5832SOL    HW118277   0.264   6.785   7.513 -0.3538 -0.3464  0.1596
 5832SOL    HW218278   0.253   6.781   7.362  0.7229  0.7609  0.0378
 5833SOL     OW18279   3.834   8.311   7.817 -0.2396  0.6536 -0.3529
 5833SOL    HW118280   3.860   8.331   7.727 -1.1918  1.0359 -0.5522
 5833SOL    HW218281   3.865   8.385   7.869  0.3779  0.3971 -0.3391
 5834SOL     OW18282   6.555   4.597   3.596  0.1102  0.1595  0.0730
 5834SOL    HW118283   6.582   4.635   3.512 -1.1842 -0.6634 -0.7562
 5834SOL    HW218284   6.489   4.657   3.630  0.7422  0.5727  0.6059
 5835SOL     OW18285   4.865   7.953   1.476  0.0534 -0.4767 -0.1459
 5835SOL    HW118286   4.850   8.018   1.545  1.4579  0.9180 -1.1153
 5835SOL    HW218287   4.787   7.959   1.420 -0.0643 -0.0220  0.0644
 5836SOL     OW18288   3.076   5.241   5.469  0.9118 -0.4668  0.2342
 5836SOL    HW118289   3.095   5.290   5.388 -1.3546  0.0232 -0.0958
 5836SOL    HW218290   3.144   5.268   5.530  3.9422 -2.3860 -2.0281
 5837SOL     OW18291   4.403   8.289   4.759  0.0430 -0.0497 -0.1209
 5837SOL    HW118292   4.464   8.301   4.832 -2.4434  1.4206  1.8897
 5837SOL    HW218293   4.411   8.197   4.736  1.5568 -0.3514  1.3925
 5838SOL     OW18294   7.068   2.421   5.323  0.2354 -0.5061 -0.2145
 5838SOL    HW118295   7.091   2.337   5.282 -3.2321 -2.4921  1.4973
 5838SOL    HW218296   7.044   2.477   5.250  1.5945 -1.3094 -1.3412
 5839SOL     OW18297   3.683   6.940   4.360  0.1572 -0.1140 -0.5029
 5839SOL    HW118298   3.604   6.992   4.376 -0.3824 -0.6217 -1.4202
 5839SOL    HW218299   3.721   6.979   4.282  0.5696 -0.1703 -0.3311
 5840SOL     OW18300   5.319   1.478   1.083  0.3480 -0.3546 -0.0423
 5840SOL    HW118301   5.324   1.571   1.105  1.2504 -0.3090 -0.3791
 5840SOL    HW218302   5.331   1.475   0.988  0.5174 -0.8220 -0.0106
 5841SOL     OW18303   4.984   7.074   3.753  0.1653  0.0735 -0.2163
 5841SOL    HW118304   5.075   7.104   3.760 -0.7249  2.7383  1.6251
 5841SOL    HW218305   4.945   7.131   3.687 -0.5008 -0.0917  0.0249
 5842SOL     OW18306   2.267   2.911   7.046  0.4608 -0.3978  0.1566
 5842SOL    HW118307   2.273   2.828   6.999  0.8130 -0.2547 -0.0577
 5842SOL    HW218308   2.176   2.938   7.035  0.0517 -1.3078  1.1950
 5843SOL     OW18309   5.103   8.053   4.185 -0.3732 -0.6125  1.1021
 5843SOL    HW118310   5.008   8.038   4.186 -0.3671 -1.6528 -2.1645
 5843SOL    HW218311   5.112   8.146   4.164 -0.6267 -0.4212  1.8003
 5844SOL     OW18312   7.788   7.633   8.020  0.2375  0.0153  0.2084
 5844SOL    HW118313   7.820   7.721   8.038 -0.4219  0.6802 -1.5738
 5844SOL    HW218314   7.853   7.575   8.058  0.9303  1.2696  1.0117
 5845SOL     OW18315   2.897   1.069   1.556 -0.4817  0.6087  0.0993
 5845SOL    HW118316   2.819   1.029   1.517 -0.3595 -0.3028  0.7591
 5845SOL    HW218317   2.863   1.121   1.629 -0.4884  0.3775  0.2602
 5846SOL     OW18318   7.590   7.385   7.574 -0.0904  0.2989  0.4669
 5846SOL    HW118319   7.562   7.354   7.660 -0.5641 -0.7279 -0.0427
 5846SOL    HW218320   7.663   7.444   7.592 -0.2328  0.1537  1.5702
 5847SOL     OW18321   7.585   5.851   4.969 -0.1210 -0.3743  0.1157
 5847SOL    HW118322   7.518   5.799   4.925  0.6511 -1.6826  0.4525
 5847SOL    HW218323   7.631   5.896   4.898 -0.4372 -0.5709 -0.2146
 5848SOL     OW18324   0.423   2.998   0.271  0.3468  0.0417  0.1417
 5848SOL    HW118325   0.374   2.921   0.300  0.5239 -0.1273 -0.0083
 5848SOL    HW218326   0.366   3.039   0.205 -0.1143  0.4972  0.8066
 5849SOL     OW18327   7.458   5.757   2.897 -0.2983 -0.3067  0.5430
 5849SOL    HW118328   7.391   5.761   2.828 -0.7715  0.0744  1.0136
 5849SOL    HW218329   7.423   5.813   2.967  1.5769  1.8571 -0.1242
 5850SOL     OW18330   5.893   0.594   3.679  0.4977  0.7437 -0.2878
 5850SOL    HW118331   5.836   0.520   3.700  2.0316 -0.3354  0.2739
 5850SOL    HW218332   5.833   0.669   3.674 -0.9905 -0.3611  0.0103
 5851SOL     OW18333   7.413   0.727   7.071  0.0798 -0.1955 -0.2135
 5851SOL    HW118334   7.481   0.781   7.112 -0.5689 -0.0031  0.6438
 5851SOL    HW218335   7.438   0.722   6.979  0.9040  0.4048 -0.0327
 5852SOL     OW18336   4.391   3.463   0.100 -0.7844  0.1742 -0.1550
 5852SOL    HW118337   4.470   3.499   0.061 -1.3041  0.3376 -1.0850
 5852SOL    HW218338   4.343   3.539   0.132 -1.8704  0.3647 -2.0971
 5853SOL     OW18339   0.781   2.495   1.987 -0.0863  0.3533 -0.1528
 5853SOL    HW118340   0.692   2.465   1.969  0.2839 -0.6424 -0.3659
 5853SOL    HW218341   0.825   2.494   1.902  0.8933 -1.8060  0.3124
 5854SOL     OW18342   2.731   5.556   1.779  0.2247  0.2255  0.2778
 5854SOL    HW118343   2.815   5.518   1.801 -0.5174 -1.0396  1.0351
 5854SOL    HW218344   2.685   5.564   1.862 -1.0659 -0.7779 -0.2896
 5855SOL     OW18345   3.635   3.579   7.878 -0.1775 -0.3581  0.7426
 5855SOL    HW118346   3.561   3.535   7.837 -1.6661  0.8873  1.9790
 5855SOL    HW218347   3.642   3.663   7.833  0.8862 -0.7041  0.2350
 5856SOL     OW18348   6.460   7.294   1.950 -0.4851  0.3766  0.0407
 5856SOL    HW118349   6.478   7.253   1.865 -0.5139  0.7524 -0.1473
 5856SOL    HW218350   6.367   7.278   1.966  0.1209 -2.3295  1.4147
 5857SOL     OW18351   1.133   0.288   4.775  0.0458  0.0907 -0.6008
 5857SOL    HW118352   1.100   0.300   4.686  0.7255 -0.0294 -0.8744
 5857SOL    HW218353   1.228   0.299   4.768  0.0875  0.3462  0.1558
 5858SOL     OW18354   1.194   3.248   4.533 -0.0510  0.1920  0.3810
 5858SOL    HW118355   1.229   3.336   4.519 -0.0369  0.1674  0.2614
 5858SOL    HW218356   1.186   3.211   4.445  0.5491 -0.1651  0.4696
 5859SOL     OW18357   1.850   2.231   2.785  0.7198  0.0526 -0.0965
 5859SOL    HW118358   1.864   2.235   2.690  0.8419  1.1946 -0.0463
 5859SOL    HW218359   1.796   2.308   2.804 -0.2818 -0.8017  0.6062
 5860SOL     OW18360   4.188   8.299   4.479 -0.3663  0.7258 -0.4563
 5860SOL    HW118361   4.142   8.370   4.522 -0.5882  1.7358 -2.2877
 5860SOL    HW218362   4.272   8.336   4.454 -0.4572  0.3266 -1.3792
 5861SOL     OW18363   6.330   5.786   2.706 -0.7039 -0.3933 -0.0697
 5861SOL    HW118364   6.345   5.704   2.659  1.5406  0.7078 -1.4443
 5861SOL    HW218365   6.418   5.817   2.730 -1.5643  1.0185  1.5037
 5862SOL     OW18366   3.138   7.423   7.191 -0.2487  0.0325  0.3339
 5862SOL    HW118367   3.224   7.459   7.169 -0.1676 -0.3500 -0.0047
 5862SOL    HW218368   3.119   7.457   7.278  0.2423  0.1297  0.4077
 5863SOL     OW18369   7.708   8.185   6.199  0.9273  0.4503  0.1122
 5863SOL    HW118370   7.666   8.230   6.272  1.2395  0.9165  0.0074
 5863SOL    HW218371   7.685   8.092   6.211 -0.1915  0.7020  0.0110
 5864SOL     OW18372   2.030   2.510   7.488 -0.6454 -0.2699 -0.5974
 5864SOL    HW118373   1.961   2.445   7.502  0.0344 -0.7273  0.8516
 5864SOL    HW218374   2.111   2.461   7.496 -0.1146  0.7308  0.5418
 5865SOL     OW18375   6.631   6.738   0.323 -0.0604 -0.3331 -0.3176
 5865SOL    HW118376   6.617   6.802   0.254  0.6893 -1.1453 -1.2570
 5865SOL    HW218377   6.627   6.653   0.278 -1.3405 -0.9737  0.9382
 5866SOL     OW18378   7.306   4.965   0.379 -0.4573  0.1694  0.3700
 5866SOL    HW118379   7.342   4.877   0.395 -1.5019 -0.2226  0.6520
 5866SOL    HW218380   7.217   4.949   0.349  0.0234  1.0665 -1.7052
 5867SOL     OW18381   7.453   3.766   7.341  0.4791 -0.3273  0.2867
 5867SOL    HW118382   7.468   3.846   7.393 -0.3488 -0.7589  1.2360
 5867SOL    HW218383   7.358   3.761   7.332  0.3323 -2.3241  2.1113
 5868SOL     OW18384   5.139   7.168   1.717 -0.6589 -0.0984  0.2106
 5868SOL    HW118385   5.158   7.198   1.628  1.8644 -2.6922 -0.2640
 5868SOL    HW218386   5.195   7.221   1.772  0.1825 -0.6265 -0.1166
 5869SOL     OW18387   3.224   4.754   7.422 -0.0150  0.1361 -0.0493
 5869SOL    HW118388   3.162   4.731   7.491  0.7159 -2.2624 -0.1236
 5869SOL    HW218389   3.170   4.788   7.351 -0.9167  1.1569  1.0849
 5870SOL     OW18390   0.024   3.685   4.296 -0.7357 -0.0791 -0.1364
 5870SOL    HW118391  -0.024   3.604   4.278  0.2885 -0.3213 -1.9996
 5870SOL    HW218392   0.094   3.658   4.356 -0.8784 -0.4128 -0.1156
 5871SOL     OW18393   4.561   3.340   1.332  0.7424  0.3001 -0.2116
 5871SOL    HW118394   4.564   3.245   1.347  0.3504  0.4476  0.8267
 5871SOL    HW218395   4.468   3.361   1.330  0.8307  0.6862 -0.3311
 5872SOL     OW18396   6.596   7.751   2.994 -0.1837  0.1723  0.5016
 5872SOL    HW118397   6.611   7.845   2.992 -1.0200  0.3099  0.3025
 5872SOL    HW218398   6.503   7.741   3.017  0.1633 -0.6349  1.6840
 5873SOL     OW18399   2.286   6.152   4.553 -0.8745  0.3622  0.2435
 5873SOL    HW118400   2.247   6.115   4.632  1.4762  1.2141  1.9092
 5873SOL    HW218401   2.271   6.246   4.561 -0.2892  0.4909 -0.1177
 5874SOL     OW18402   3.473   3.836   4.829 -0.1738  0.3779 -0.5794
 5874SOL    HW118403   3.512   3.816   4.745  1.5638 -0.1380  0.3108
 5874SOL    HW218404   3.547   3.855   4.887 -1.3298  1.1045  0.7443
 5875SOL     OW18405   1.316   2.759   7.164 -0.0295 -0.5609  0.2961
 5875SOL    HW118406   1.271   2.840   7.187  0.8734 -0.1710  0.7564
 5875SOL    HW218407   1.369   2.781   7.087 -0.8172 -1.0884 -0.4123
 5876SOL     OW18408   8.010   0.226   5.358 -0.1421 -0.0234 -0.1083
 5876SOL    HW118409   7.973   0.184   5.436  0.5318  3.0166  2.0359
 5876SOL    HW218410   8.073   0.162   5.325 -2.2898 -2.4902  0.1957
 5877SOL     OW18411   0.566   5.773   5.350  0.0704  0.2532 -0.1946
 5877SOL    HW118412   0.642   5.817   5.386 -0.8540  1.4222  0.3915
 5877SOL    HW218413   0.501   5.774   5.420 -0.3538 -1.1290 -0.5219
 5878SOL     OW18414   2.527   4.613   3.604 -0.0967  0.2634  0.0684
 5878SOL    HW118415   2.452   4.657   3.645  0.4367  1.2433  0.0045
 5878SOL    HW218416   2.518   4.521   3.631 -1.0206  0.4682  0.4993
 5879SOL     OW18417   2.636   5.128   0.424  0.1842  0.2441 -0.3059
 5879SOL    HW118418   2.668   5.048   0.465 -0.7009 -0.4240 -0.8661
 5879SOL    HW218419   2.599   5.099   0.341  0.1687  1.2905 -0.6825
 5880SOL     OW18420   0.990   6.260   4.374  0.1793 -0.2477  0.1767
 5880SOL    HW118421   1.051   6.325   4.339 -0.5726  1.3786  1.7108
 5880SOL    HW218422   0.904   6.300   4.362 -0.4157 -1.5212  0.0468
 5881SOL     OW18423   5.100   0.422   5.388 -0.2084  0.0966 -0.3660
 5881SOL    HW118424   5.058   0.337   5.405 -0.3914  0.2403 -0.0923
 5881SOL    HW218425   5.194   0.404   5.395 -0.2452 -0.0918 -0.3547
 5882SOL     OW18426   5.166   4.996   5.135 -0.3598 -0.1098  0.6177
 5882SOL    HW118427   5.228   5.024   5.068  0.2219  0.6862  1.4506
 5882SOL    HW218428   5.222   4.969   5.208 -0.9096 -2.6540  0.1959
 5883SOL     OW18429   0.452   3.909   7.857 -0.0878 -0.1224  0.0492
 5883SOL    HW118430   0.455   4.000   7.826 -1.6784 -0.9431 -2.9529
 5883SOL    HW218431   0.389   3.866   7.798  0.3608 -3.1158  1.5646
 5884SOL     OW18432   1.704   5.771   0.253  0.3626 -0.1815 -0.4386
 5884SOL    HW118433   1.660   5.762   0.337 -0.2717 -1.0230 -0.8471
 5884SOL    HW218434   1.693   5.863   0.229  1.5662  0.3666  0.9334
 5885SOL     OW18435   1.221   2.913   3.944 -0.2502  0.0564 -0.0565
 5885SOL    HW118436   1.152   2.889   3.883  0.9013 -0.5153 -1.1934
 5885SOL    HW218437   1.184   2.894   4.031 -1.2114 -1.0548 -0.6746
 5886SOL     OW18438   4.570   4.725   3.538 -0.5939  0.2969  0.2455
 5886SOL    HW118439   4.648   4.670   3.541  0.1415  1.3792  1.7424
 5886SOL    HW218440   4.522   4.692   3.462 -0.7124 -3.0933  1.5947
 5887SOL     OW18441   7.933   7.665   6.912 -0.2869 -0.6762  0.2323
 5887SOL    HW118442   7.944   7.758   6.932 -0.4529 -1.0007  1.9937
 5887SOL    HW218443   7.872   7.664   6.838  0.4951  0.6260 -0.4749
 5888SOL     OW18444   1.218   4.155   1.530 -0.5493 -0.3212  0.5811
 5888SOL    HW118445   1.288   4.202   1.575 -0.8539  1.0672 -0.3189
 5888SOL    HW218446   1.178   4.099   1.597  0.2345  0.2515  1.5377
 5889SOL     OW18447   4.448   0.573   0.122  0.0819  0.2103 -0.3391
 5889SOL    HW118448   4.529   0.622   0.139  0.0334 -0.5352  2.7917
 5889SOL    HW218449   4.400   0.627   0.060  2.4255  1.2946 -1.3431
 5890SOL     OW18450   2.937   0.012   8.126 -0.1038  0.1837  0.3326
 5890SOL    HW118451   3.022  -0.029   8.115 -0.5554 -0.7633  0.2596
 5890SOL    HW218452   2.932   0.077   8.056  0.7195  0.5515  0.6029
 5891SOL     OW18453   2.339   5.186   2.037 -0.6961 -0.0910 -0.7162
 5891SOL    HW118454   2.261   5.131   2.022 -1.3542  0.0449  1.7374
 5891SOL    HW218455   2.306   5.261   2.087  1.0253 -0.1288  0.5703
 5892SOL     OW18456   3.181   6.032   4.700  0.0339  0.1946  0.0249
 5892SOL    HW118457   3.203   5.939   4.707 -0.9681 -0.0499  0.0493
 5892SOL    HW218458   3.114   6.047   4.766  2.9146  1.8739  2.8480
 5893SOL     OW18459   7.081   7.567   3.628  0.3435  0.3303 -0.1791
 5893SOL    HW118460   7.150   7.517   3.670 -1.5048 -0.5003  2.1037
 5893SOL    HW218461   7.109   7.576   3.537  3.7519  0.7198  0.7953
 5894SOL     OW18462   1.030   1.820   4.625  0.2019 -0.0418 -0.3235
 5894SOL    HW118463   1.038   1.725   4.621 -0.2768 -0.0678 -0.8227
 5894SOL    HW218464   1.032   1.841   4.719 -1.0282 -0.6726 -0.1412
 5895SOL     OW18465   0.666   1.039   4.803  0.0679 -0.0831 -0.6759
 5895SOL    HW118466   0.680   1.133   4.793  0.2704 -0.2076 -1.6563
 5895SOL    HW218467   0.745   1.009   4.848 -0.1622  0.2669 -0.0278
 5896SOL     OW18468   0.924   5.568   8.293 -0.0682  0.3865 -0.0349
 5896SOL    HW118469   0.918   5.639   8.357  0.1553  0.2212  0.1719
 5896SOL    HW218470   0.882   5.603   8.215 -0.6528  0.4638  0.3119
 5897SOL     OW18471   7.941   0.235   6.654  0.1589 -0.4891 -0.2067
 5897SOL    HW118472   7.867   0.174   6.662 -0.2246 -0.2228 -1.4048
 5897SOL    HW218473   8.016   0.179   6.636 -0.1371 -0.6506 -1.0059
 5898SOL     OW18474   3.264   1.474   2.637 -0.0546  0.8889 -0.0443
 5898SOL    HW118475   3.229   1.482   2.726  0.0157  2.5706 -0.1387
 5898SOL    HW218476   3.292   1.383   2.630 -3.2404 -0.2641  0.4664
 5899SOL     OW18477   6.736   3.445   5.167 -0.1981  0.0338  0.2680
 5899SOL    HW118478   6.813   3.493   5.198 -0.7584  1.0350  0.1698
 5899SOL    HW218479   6.673   3.514   5.144 -1.0140 -0.7601  0.0727
 5900SOL     OW18480   0.020   7.478   2.582  0.0214  0.4380 -0.0206
 5900SOL    HW118481  -0.023   7.426   2.649 -2.7360  2.3676 -0.1175
 5900SOL    HW218482   0.069   7.544   2.630  1.2480 -0.5109  0.0722
 5901SOL     OW18483   2.046   4.049   6.918 -0.2481  0.0204  0.2213
 5901SOL    HW118484   2.065   4.067   6.826  0.9515 -1.1423  0.2154
 5901SOL    HW218485   1.999   4.127   6.948 -0.4668  0.5129 -1.3092
 5902SOL     OW18486   1.401   4.279   3.255  0.2168 -0.2100  0.4771
 5902SOL    HW118487   1.390   4.285   3.160  1.3657  1.7463  0.4095
 5902SOL    HW218488   1.455   4.201   3.268  0.8321  0.0253 -0.5603
 5903SOL     OW18489   8.181   1.792   2.871 -0.3867  0.0270 -0.7877
 5903SOL    HW118490   8.252   1.730   2.887 -2.0387 -2.0408 -1.0665
 5903SOL    HW218491   8.164   1.832   2.957 -1.5995 -2.5647  0.2838
 5904SOL     OW18492   6.499   5.185   5.765  0.0232  0.1575  0.0857
 5904SOL    HW118493   6.554   5.107   5.772 -0.9534 -0.7011 -1.3146
 5904SOL    HW218494   6.431   5.172   5.832 -0.7889 -0.7758 -0.8896
 5905SOL     OW18495   5.164   6.822   0.142  0.2085 -0.3841 -0.0794
 5905SOL    HW118496   5.176   6.728   0.154 -0.2502 -0.4826 -0.3845
 5905SOL    HW218497   5.175   6.837   0.048  1.5357  0.0599  0.1216
 5906SOL     OW18498   1.674   6.775   7.530  0.0741  0.0437  0.5962
 5906SOL    HW118499   1.603   6.827   7.492  0.9313 -0.2958 -1.6233
 5906SOL    HW218500   1.651   6.684   7.509 -1.0260 -0.5634  3.7884
 5907SOL     OW18501   4.641   1.017   0.760 -0.3289 -0.2789  0.2326
 5907SOL    HW118502   4.649   1.032   0.854  1.7578 -0.4161  0.1056
 5907SOL    HW218503   4.726   1.042   0.724 -1.3166  0.4614 -1.7321
 5908SOL     OW18504   6.983   0.644   6.560 -0.2943 -0.5155 -0.6559
 5908SOL    HW118505   6.892   0.627   6.584 -0.8216  0.8346 -1.5916
 5908SOL    HW218506   6.992   0.739   6.568  0.7938 -0.5447 -1.4079
 5909SOL     OW18507   1.388   8.137   6.917  0.0424  0.0024 -0.1805
 5909SOL    HW118508   1.394   8.135   7.012 -1.0812 -1.9351 -0.1122
 5909SOL    HW218509   1.463   8.086   6.887  0.9722  1.4409 -0.4152
 5910SOL     OW18510   0.162   4.913   5.973  0.8469 -0.7624 -0.3639
 5910SOL    HW118511   0.124   4.995   5.943 -0.3388 -0.5108  1.6700
 5910SOL    HW218512   0.107   4.845   5.934  1.8550 -0.6439 -2.0820
 5911SOL     OW18513   4.748   5.868   0.462 -0.3298 -0.1370  0.2105
 5911SOL    HW118514   4.774   5.960   0.463 -2.3947  0.4924 -0.0798
 5911SOL    HW218515   4.756   5.842   0.370  0.1312 -0.2384  0.2730
 5912SOL     OW18516   6.659   0.311   2.061  0.0918  0.6293 -0.1658
 5912SOL    HW118517   6.628   0.381   2.004  0.3117 -0.7491 -2.0753
 5912SOL    HW218518   6.580   0.280   2.107 -0.6408 -0.0089 -1.7729
 5913SOL     OW18519   1.218   7.979   7.715 -0.0792  0.1148 -0.4696
 5913SOL    HW118520   1.192   7.959   7.625  0.7635 -0.5804 -0.5796
 5913SOL    HW218521   1.314   7.973   7.714 -0.0811 -0.3548  0.5697
 5914SOL     OW18522   5.691   2.717   4.111 -0.4125  0.3922  0.3613
 5914SOL    HW118523   5.784   2.693   4.115 -0.3902  0.4661  0.2808
 5914SOL    HW218524   5.676   2.742   4.020 -0.5883  0.0714  0.2992
 5915SOL     OW18525   1.995   0.804   2.922 -0.0383 -0.8418  0.2497
 5915SOL    HW118526   2.046   0.751   2.862  0.8915  0.1824  0.1016
 5915SOL    HW218527   2.030   0.782   3.009  1.5494  0.7232  0.0643
 5916SOL     OW18528   3.767   4.592   3.636 -0.6594 -0.0685  0.2191
 5916SOL    HW118529   3.792   4.644   3.712 -0.2608 -0.3208  0.2645
 5916SOL    HW218530   3.671   4.593   3.636 -0.6948 -1.0408  1.4113
 5917SOL     OW18531   4.584   5.279   4.783 -0.4473  0.3518 -0.8091
 5917SOL    HW118532   4.619   5.308   4.867 -3.5124  2.2784 -0.0430
 5917SOL    HW218533   4.597   5.353   4.724 -2.7004  0.9817 -0.5941
 5918SOL     OW18534   3.117   5.228   2.010  0.7519  0.9241  0.1052
 5918SOL    HW118535   3.178   5.245   2.081  0.8494  2.5768 -0.3504
 5918SOL    HW218536   3.172   5.202   1.936  0.5713 -2.6205  1.0136
 5919SOL     OW18537   4.623   5.206   4.014  0.3762  0.0068  0.2302
 5919SOL    HW118538   4.609   5.295   3.981  1.1756  0.0324 -0.0830
 5919SOL    HW218539   4.581   5.149   3.950 -1.2844  0.1958  1.1125
 5920SOL     OW18540   5.855   5.361   4.552 -0.1770  0.1212 -0.6688
 5920SOL    HW118541   5.902   5.308   4.487  0.7636 -1.6759  1.3408
 5920SOL    HW218542   5.888   5.449   4.539  0.7735 -0.3774 -1.9135
 5921SOL     OW18543   2.382   6.639   0.358 -0.2585  0.2966 -0.2346
 5921SOL    HW118544   2.364   6.571   0.293 -0.8160  0.2179 -0.0005
 5921SOL    HW218545   2.297   6.661   0.395  0.3860 -2.6658  3.5580
 5922SOL     OW18546   6.322   0.828   4.886 -0.9929 -0.0431  0.4059
 5922SOL    HW118547   6.339   0.769   4.959 -2.0633 -2.1741 -0.9540
 5922SOL    HW218548   6.379   0.903   4.902  0.6870 -1.5609  2.0768
 5923SOL     OW18549   5.216   3.535   4.194  0.3661 -0.0349  0.4836
 5923SOL    HW118550   5.300   3.490   4.189  0.6167  0.1410  2.4235
 5923SOL    HW218551   5.238   3.628   4.187  0.3766  0.0270  1.2773
 5924SOL     OW18552   1.932   7.928   1.080 -0.0926 -0.2682 -0.5291
 5924SOL    HW118553   1.952   7.844   1.121 -0.5673 -0.0645  0.1352
 5924SOL    HW218554   1.923   7.907   0.986  1.9398 -0.5692 -0.6904
 5925SOL     OW18555   5.520   2.568   0.595 -0.1858  0.3620 -0.4389
 5925SOL    HW118556   5.565   2.625   0.533 -0.4409  0.8748 -0.1557
 5925SOL    HW218557   5.589   2.532   0.650  0.3625 -1.9242 -2.4276
 5926SOL     OW18558   0.505   5.468   1.347  0.6030  0.3562  0.5864
 5926SOL    HW118559   0.516   5.426   1.432  0.3121  0.4516  0.6724
 5926SOL    HW218560   0.437   5.534   1.361  0.0213 -0.1287  0.1065
 5927SOL     OW18561   7.844   4.320   5.380  0.0624 -0.3034  0.3775
 5927SOL    HW118562   7.812   4.357   5.298 -0.7414  1.0038  1.2450
 5927SOL    HW218563   7.806   4.232   5.382 -1.1103  0.1748  0.0144
 5928SOL     OW18564   6.160   0.518   1.364  0.0135 -0.4427  0.4774
 5928SOL    HW118565   6.183   0.476   1.281 -1.6475  1.4207 -1.0430
 5928SOL    HW218566   6.233   0.499   1.422  0.6596 -2.8891 -0.9913
 5929SOL     OW18567   3.648   7.772   3.377 -0.2092 -0.4426  0.1544
 5929SOL    HW118568   3.710   7.700   3.369  1.6149  1.0558  0.1710
 5929SOL    HW218569   3.563   7.733   3.356  0.8535 -2.3338 -0.8633
 5930SOL     OW18570   5.018   8.072   6.874 -0.4084 -0.0136 -0.3198
 5930SOL    HW118571   5.083   8.020   6.922 -0.7264 -0.4868 -0.3868
 5930SOL    HW218572   5.067   8.111   6.802  0.1063  0.8350  0.4779
 5931SOL     OW18573   5.333   4.333   0.282 -0.5479  0.2953 -0.6771
 5931SOL    HW118574   5.283   4.345   0.201  0.5206  0.1453 -1.3831
 5931SOL    HW218575   5.411   4.286   0.255 -1.0358 -1.4601  0.7699
 5932SOL     OW18576   2.907   0.309   5.897  0.2096 -0.1915 -0.3560
 5932SOL    HW118577   2.904   0.392   5.944  0.1973  0.0047 -0.7002
 5932SOL    HW218578   2.817   0.295   5.867  0.4892  0.3923 -1.5326
 5933SOL     OW18579   4.412   3.968   2.069  0.3803 -0.1290 -0.5307
 5933SOL    HW118580   4.493   3.940   2.112 -0.7316  0.0544  1.8096
 5933SOL    HW218581   4.440   4.040   2.012  1.7315  0.7140  1.0998
 5934SOL     OW18582   4.554   3.335   2.176 -0.2616  0.2312 -0.5653
 5934SOL    HW118583   4.615   3.266   2.150 -3.0613 -2.5968 -0.1674
 5934SOL    HW218584   4.523   3.373   2.094  0.7742  0.5942 -0.8069
 5935SOL     OW18585   0.975   0.670   3.299 -0.0650  0.7403  0.2168
 5935SOL    HW118586   1.066   0.694   3.315  0.3546  0.2483 -1.3038
 5935SOL    HW218587   0.964   0.678   3.204 -1.5735  0.6616  0.3557
 5936SOL     OW18588   2.611   0.866   1.670 -0.0476  0.1035  0.2127
 5936SOL    HW118589   2.637   0.894   1.582 -0.2545  1.3365  0.5234
 5936SOL    HW218590   2.628   0.772   1.671 -1.4758 -0.2549 -1.6692
 5937SOL     OW18591   0.237   0.017   4.277 -0.2920 -0.5339  0.2628
 5937SOL    HW118592   0.265   0.071   4.203 -1.2831 -0.9484 -0.4424
 5937SOL    HW218593   0.159   0.062   4.311 -0.5562 -0.9951  0.2810
 5938SOL     OW18594   5.373   3.501   3.608  0.1466 -0.3197 -0.0841
 5938SOL    HW118595   5.362   3.558   3.684  0.2952 -2.6176  1.7763
 5938SOL    HW218596   5.467   3.498   3.593  0.1989 -0.6081  0.2786
 5939SOL     OW18597   5.362   6.996   4.515  0.3172  0.6215  0.9874
 5939SOL    HW118598   5.284   7.050   4.508  0.3279  0.4669 -0.6471
 5939SOL    HW218599   5.435   7.059   4.512  0.3070  0.5999 -0.0875
 5940SOL     OW18600   1.054   5.295   6.764  0.2987 -0.1705 -0.3902
 5940SOL    HW118601   1.069   5.302   6.670  0.5014  0.7542 -0.2957
 5940SOL    HW218602   1.036   5.385   6.792 -4.1011 -0.8738 -0.2505
 5941SOL     OW18603   2.822   8.035   6.682 -0.1571 -0.0698  0.1792
 5941SOL    HW118604   2.829   8.105   6.617 -1.4023  0.1034  0.2061
 5941SOL    HW218605   2.773   8.073   6.755  1.6795 -0.1072  1.4830
 5942SOL     OW18606   4.091   7.451   4.823  0.1227 -0.4811 -0.5116
 5942SOL    HW118607   4.046   7.510   4.763 -0.5352 -0.1669  0.2651
 5942SOL    HW218608   4.024   7.388   4.850 -0.1267  0.4657  1.2755
 5943SOL     OW18609   7.014   1.371   4.155 -0.1409  0.1772 -0.3448
 5943SOL    HW118610   7.038   1.456   4.118 -0.7932  0.0256 -1.1459
 5943SOL    HW218611   7.057   1.307   4.099 -1.7955 -0.0760 -1.3937
 5944SOL     OW18612   8.267   2.404   0.323 -0.0849  0.0374  0.2173
 5944SOL    HW118613   8.291   2.478   0.379  0.9687  0.2352 -0.4709
 5944SOL    HW218614   8.273   2.328   0.380  0.3823  0.3087  0.5370
 5945SOL     OW18615   1.186   7.876   7.480 -0.4561 -0.8904 -0.1061
 5945SOL    HW118616   1.276   7.852   7.457  0.0593 -0.1574  1.0609
 5945SOL    HW218617   1.139   7.872   7.397  0.4841 -1.9819 -0.6259
 5946SOL     OW18618   4.083   6.143   1.590 -0.0206  0.1391 -0.1630
 5946SOL    HW118619   4.003   6.089   1.586 -0.4530  0.8125 -2.0333
 5946SOL    HW218620   4.054   6.225   1.628 -0.3829  0.5654 -1.2992
 5947SOL     OW18621   5.208   0.872   6.876 -0.2343 -0.3544 -0.3377
 5947SOL    HW118622   5.140   0.879   6.809 -2.3249 -0.5706  1.6401
 5947SOL    HW218623   5.198   0.952   6.927  1.0604 -0.3789 -0.0189
 5948SOL     OW18624   1.145   1.291   4.758  0.1317  0.1038  0.1946
 5948SOL    HW118625   1.101   1.293   4.843  1.0437  0.1589  0.6828
 5948SOL    HW218626   1.239   1.293   4.780  0.4172 -1.1508 -0.7605
 5949SOL     OW18627   2.191   6.724   0.134 -0.0433 -0.1474 -0.2402
 5949SOL    HW118628   2.261   6.699   0.074 -1.2214  0.2041 -1.8278
 5949SOL    HW218629   2.161   6.641   0.172 -0.6626 -0.6556 -1.7540
 5950SOL     OW18630   7.250   1.920   7.221  0.1474 -0.3907  0.1531
 5950SOL    HW118631   7.230   1.982   7.150  0.4509  2.8357  2.6553
 5950SOL    HW218632   7.171   1.865   7.228 -0.4069  0.0866 -1.7647
 5951SOL     OW18633   0.549   7.735   2.622 -0.0151 -0.0878 -0.0798
 5951SOL    HW118634   0.473   7.736   2.564 -0.9559  2.9227  0.9738
 5951SOL    HW218635   0.516   7.697   2.703 -0.1690  0.3144  0.0539
 5952SOL     OW18636   8.219   6.360   2.179  0.0138 -0.2893 -0.4829
 5952SOL    HW118637   8.148   6.295   2.183  0.7836 -1.1072  0.8777
 5952SOL    HW218638   8.259   6.345   2.094 -0.3979 -0.9766 -0.5710
 5953SOL     OW18639   0.136   7.871   7.610  0.2254 -0.4697 -0.2937
 5953SOL    HW118640   0.050   7.832   7.625  0.1456  0.1888  1.0973
 5953SOL    HW218641   0.120   7.944   7.552  0.0908 -1.2907 -1.3137
 5954SOL     OW18642   7.629   7.569   4.690 -0.4505  0.3263  0.4245
 5954SOL    HW118643   7.673   7.592   4.609 -1.0813  0.1224  0.0193
 5954SOL    HW218644   7.538   7.594   4.676 -1.1637 -2.2258 -0.0007
 5955SOL     OW18645   1.034   1.214   7.264 -0.2866 -0.8501 -0.2383
 5955SOL    HW118646   1.101   1.180   7.324 -0.1607  0.3804  0.3663
 5955SOL    HW218647   1.047   1.309   7.266 -2.8090 -0.4398  0.8285
 5956SOL     OW18648   2.794   2.005   4.723  0.1100  0.0768  0.0853
 5956SOL    HW118649   2.872   1.983   4.672 -0.0183  0.2333 -0.1831
 5956SOL    HW218650   2.822   1.999   4.814  1.1430  2.5680 -0.0074
 5957SOL     OW18651   5.198   4.618   1.523 -0.2422  0.3683  0.2058
 5957SOL    HW118652   5.110   4.596   1.556  0.0656  0.0806  0.8487
 5957SOL    HW218653   5.217   4.703   1.563  0.1439  0.0043  0.8188
 5958SOL     OW18654   6.028   3.957   6.307 -0.1951 -0.0900 -0.5285
 5958SOL    HW118655   5.974   3.938   6.383 -0.7694 -0.8490 -1.1001
 5958SOL    HW218656   6.083   4.031   6.333 -0.3065 -0.4040  0.6411
 5959SOL     OW18657   8.098   0.725   7.302  0.4692  0.4070  0.2634
 5959SOL    HW118658   8.123   0.728   7.394 -0.0792  1.5463  0.3794
 5959SOL    HW218659   8.130   0.807   7.265  0.4121  0.0990 -0.4976
 5960SOL     OW18660   3.329   2.314   1.310  0.1724 -0.0862 -0.0517
 5960SOL    HW118661   3.392   2.253   1.349  1.0768 -1.1283 -2.8620
 5960SOL    HW218662   3.257   2.257   1.279 -0.4962  0.6752  0.0654
 5961SOL     OW18663   3.476   1.585   3.146  0.3251  0.4408 -0.2874
 5961SOL    HW118664   3.401   1.628   3.188  0.9282  3.1213 -1.7287
 5961SOL    HW218665   3.545   1.588   3.212 -0.6640 -1.8454  0.9681
 5962SOL     OW18666   3.054   0.986   4.447  0.0456 -0.6141  0.7066
 5962SOL    HW118667   3.113   0.975   4.522  0.3682  2.7587  1.0907
 5962SOL    HW218668   3.104   1.040   4.385 -1.9276  0.7336  0.2156
 5963SOL     OW18669   0.940   4.875   0.464  0.2096 -0.0402 -0.2247
 5963SOL    HW118670   0.881   4.944   0.493 -1.6959 -1.6172 -0.1694
 5963SOL    HW218671   1.021   4.891   0.512 -0.7536  1.1551  1.0747
 5964SOL     OW18672   5.800   2.231   2.313 -0.4799 -0.2646  0.1001
 5964SOL    HW118673   5.892   2.239   2.286 -0.7745 -0.8620 -1.1104
 5964SOL    HW218674   5.752   2.287   2.252 -0.8124  1.1353  1.5651
 5965SOL     OW18675   0.584   4.444   0.363 -0.1059 -0.2383  0.5303
 5965SOL    HW118676   0.507   4.461   0.417 -0.6186 -2.0450  0.4047
 5965SOL    HW218677   0.578   4.508   0.292 -0.7473  0.5229  1.2446
 5966SOL     OW18678   4.306   8.012   1.973 -0.1929  0.1117  0.0864
 5966SOL    HW118679   4.390   7.968   1.965  0.2375  1.0026 -0.5203
 5966SOL    HW218680   4.293   8.023   2.067  2.1024  3.1108  0.1949
 5967SOL     OW18681   1.276   6.307   6.285  0.2357 -0.3444  0.6863
 5967SOL    HW118682   1.281   6.225   6.236 -2.0629  0.3286 -0.8623
 5967SOL    HW218683   1.277   6.280   6.377 -2.5957 -2.4154  0.2644
 5968SOL     OW18684   7.319   6.634   4.087 -0.2552  0.2672 -0.2167
 5968SOL    HW118685   7.305   6.542   4.066 -0.8512  0.2564  0.2117
 5968SOL    HW218686   7.353   6.672   4.006  0.1835 -0.3638 -0.3399
 5969SOL     OW18687   6.448   7.799   4.131  0.1911  0.0295  0.1627
 5969SOL    HW118688   6.395   7.754   4.197 -2.6836  1.2626 -1.1191
 5969SOL    HW218689   6.527   7.827   4.177 -0.3465 -1.6973  2.2624
 5970SOL     OW18690   1.913   3.449   3.818  0.2787 -0.3303 -0.0349
 5970SOL    HW118691   1.911   3.373   3.877 -0.7663 -0.3783 -0.1164
 5970SOL    HW218692   1.872   3.519   3.869  1.7547  0.3583  0.2555
 5971SOL     OW18693   2.908   7.025   4.293 -0.4796  0.3961  0.1885
 5971SOL    HW118694   2.920   7.082   4.217 -1.0313  0.6080  0.2558
 5971SOL    HW218695   2.985   6.968   4.293 -0.6952  0.0831 -0.7978
 5972SOL     OW18696   8.024   3.024   0.525 -0.3613 -0.2766  0.0983
 5972SOL    HW118697   8.042   3.117   0.535 -0.8344  0.2347 -3.0181
 5972SOL    HW218698   8.100   2.981   0.565  0.2698  1.4203  0.8395
 5973SOL     OW18699   0.335   1.756   2.037 -0.2642 -0.4378  0.0816
 5973SOL    HW118700   0.338   1.662   2.055 -0.5064 -0.0674  2.3624
 5973SOL    HW218701   0.243   1.773   2.012 -0.2207 -0.7856 -0.3302
 5974SOL     OW18702   0.755   7.713   3.197 -0.3799 -0.0613 -0.1264
 5974SOL    HW118703   0.707   7.738   3.276  1.2834  0.7894  0.6627
 5974SOL    HW218704   0.752   7.617   3.197 -0.9527 -0.0525  0.6132
 5975SOL     OW18705   5.222   7.546   5.262 -0.1144 -0.3261 -0.2215
 5975SOL    HW118706   5.243   7.639   5.252 -1.7760 -0.0635 -1.5711
 5975SOL    HW218707   5.144   7.545   5.316  1.0898 -1.1002  1.6040
 5976SOL     OW18708   4.159   3.634   7.469 -0.3339 -0.7408  0.4583
 5976SOL    HW118709   4.184   3.641   7.377 -3.2251 -0.6572 -0.4338
 5976SOL    HW218710   4.141   3.540   7.481  1.4896 -0.9971  1.4145
 5977SOL     OW18711   5.941   3.392   8.057  0.6104 -0.3223  0.0836
 5977SOL    HW118712   5.968   3.387   8.149  6.3258  0.7495 -1.1306
 5977SOL    HW218713   5.959   3.483   8.032 -1.4349 -0.4095 -2.0401
 5978SOL     OW18714   0.152   5.073   4.612  0.1572  0.3162  0.5791
 5978SOL    HW118715   0.206   5.090   4.534  0.2153 -2.3253 -0.0417
 5978SOL    HW218716   0.074   5.126   4.598  0.4921  0.4745 -0.9234
 5979SOL     OW18717   7.945   6.779   6.258  0.0147 -0.1305 -0.1556
 5979SOL    HW118718   7.914   6.702   6.211 -1.4282  1.4256 -1.8938
 5979SOL    HW218719   7.875   6.844   6.247  1.3853  1.5956  0.8275
 5980SOL     OW18720   7.510   7.738   7.356  0.4258  0.5662  0.1718
 5980SOL    HW118721   7.565   7.796   7.409 -1.9917  2.3215  0.9414
 5980SOL    HW218722   7.548   7.742   7.269  1.3329  1.9406  0.6029
 5981SOL     OW18723   6.705   3.876   4.845  0.1276  0.1135  0.2989
 5981SOL    HW118724   6.724   3.811   4.777  0.5529 -0.7130  1.1903
 5981SOL    HW218725   6.691   3.957   4.796 -2.1975 -0.9652 -1.0179
 5982SOL     OW18726   7.065   1.256   5.403 -0.1226  0.0296 -0.0680
 5982SOL    HW118727   7.020   1.216   5.477 -0.2422  1.9900  0.9870
 5982SOL    HW218728   7.155   1.224   5.409 -0.2468 -0.1998  0.6442
 5983SOL     OW18729   1.510   7.655   5.111  0.4668  0.1065  0.1334
 5983SOL    HW118730   1.496   7.617   5.198 -1.0690  1.6322  0.6118
 5983SOL    HW218731   1.428   7.700   5.091  0.9503  0.1706 -1.9352
 5984SOL     OW18732   6.273   4.645   6.405  0.5333 -0.3708  0.5932
 5984SOL    HW118733   6.278   4.739   6.421  0.3649 -0.3816  0.7207
 5984SOL    HW218734   6.213   4.637   6.331  2.5063 -0.2238 -1.1159
 5985SOL     OW18735   1.452   2.257   4.666  0.2045 -0.0043  0.1438
 5985SOL    HW118736   1.424   2.308   4.742  1.0598  1.8150 -0.6990
 5985SOL    HW218737   1.374   2.252   4.611  0.5452  2.1251 -0.6409
 5986SOL     OW18738   2.759   4.360   6.185 -0.0053  0.6915  0.4560
 5986SOL    HW118739   2.693   4.388   6.121  0.5195 -1.2430 -1.0489
 5986SOL    HW218740   2.788   4.275   6.153  2.1967  0.8287  1.8811
 5987SOL     OW18741   2.436   2.018   5.588 -0.1661 -0.3590 -0.6499
 5987SOL    HW118742   2.463   2.016   5.496  0.2150  0.7924 -0.5713
 5987SOL    HW218743   2.482   2.093   5.626 -1.6461  0.2396  0.0599
 5988SOL     OW18744   3.698   6.799   3.016  0.2968 -0.0112  0.4086
 5988SOL    HW118745   3.654   6.863   3.072  1.4006  1.4101 -0.2847
 5988SOL    HW218746   3.791   6.805   3.040  0.3885 -1.5882  0.5382
 5989SOL     OW18747   4.208   5.780   4.259 -0.1806  0.1052 -0.2722
 5989SOL    HW118748   4.159   5.710   4.215  1.1129 -0.8192 -0.3020
 5989SOL    HW218749   4.144   5.823   4.315 -0.9115 -1.3798  0.0671
 5990SOL     OW18750   1.788   8.075   4.296  0.5635  0.4700  0.2857
 5990SOL    HW118751   1.727   8.052   4.226  0.7646 -0.3945  0.3847
 5990SOL    HW218752   1.861   8.014   4.285  1.0231  0.9426  0.6856
 5991SOL     OW18753   3.837   5.730   5.931 -0.3067  0.3929 -0.1279
 5991SOL    HW118754   3.881   5.682   6.002 -0.2383 -0.1126 -0.5006
 5991SOL    HW218755   3.886   5.706   5.853 -0.8932  0.2678 -0.4677
 5992SOL     OW18756   3.767   3.425   4.811 -0.1262  0.3853  0.3412
 5992SOL    HW118757   3.839   3.412   4.873 -0.9100 -1.2279  0.9988
 5992SOL    HW218758   3.694   3.377   4.850 -1.1760  0.8729 -0.9564
 5993SOL     OW18759   3.606   2.832   6.556 -0.2162 -0.3578 -0.6855
 5993SOL    HW118760   3.576   2.818   6.466 -0.4519 -1.0791 -0.4993
 5993SOL    HW218761   3.686   2.780   6.563  1.2854  1.7357 -1.2541
 5994SOL     OW18762   7.803   7.622   2.311  0.2922 -0.8897 -0.0819
 5994SOL    HW118763   7.853   7.701   2.332 -0.8089  0.0405 -0.8131
 5994SOL    HW218764   7.850   7.583   2.237 -0.5475  0.5473 -1.4580
 5995SOL     OW18765   4.387   4.555   1.671 -0.2520 -0.3070  0.3967
 5995SOL    HW118766   4.420   4.466   1.670  0.7514  0.0550 -0.3749
 5995SOL    HW218767   4.303   4.550   1.625  0.7905 -0.5236 -1.5998
 5996SOL     OW18768   6.609   2.264   2.521 -0.4884 -0.2921 -0.2710
 5996SOL    HW118769   6.532   2.320   2.521 -0.5948 -0.3755 -2.0872
 5996SOL    HW218770   6.575   2.175   2.528 -0.4779 -0.2596  0.1859
 5997SOL     OW18771   1.635   5.082   3.639  0.2348 -0.3576 -0.1491
 5997SOL    HW118772   1.598   5.013   3.584  0.3064 -0.4930 -0.0282
 5997SOL    HW218773   1.586   5.161   3.615 -0.8765 -0.7422  0.7455
 5998SOL     OW18774   4.806   6.197   2.783  0.0333 -0.4033  0.4805
 5998SOL    HW118775   4.734   6.187   2.846 -1.3068 -0.3283 -0.9790
 5998SOL    HW218776   4.863   6.122   2.800 -0.6705 -0.7619  1.3199
 5999SOL     OW18777   2.260   3.633   5.783  0.7280  0.1887  0.1114
 5999SOL    HW118778   2.332   3.569   5.779 -1.3564 -2.3641  0.4976
 5999SOL    HW218779   2.233   3.633   5.875 -1.1083 -0.5863 -0.3850
 6000SOL     OW18780   4.184   1.688   0.581 -0.4179 -0.2363  0.5463
 6000SOL    HW118781   4.150   1.697   0.670  0.3414  0.3450  0.7927
 6000SOL    HW218782   4.279   1.688   0.592 -0.3170 -0.1082 -0.2692
 6001SOL     OW18783   3.973   7.466   7.073  0.1963 -0.2151  0.4543
 6001SOL    HW118784   4.042   7.515   7.118 -1.1101  1.0716  1.1505
 6001SOL    HW218785   3.907   7.532   7.052  0.4978 -0.7953 -2.9854
 6002SOL     OW18786   0.806   2.326   7.798  0.1693 -0.4710 -0.0690
 6002SOL    HW118787   0.841   2.307   7.885  1.7708  0.7364 -0.3944
 6002SOL    HW218788   0.784   2.241   7.762 -0.5607 -0.9918  1.5155
 6003SOL     OW18789   7.147   4.880   5.437  0.0103  0.1192 -0.0713
 6003SOL    HW118790   7.115   4.819   5.371  0.2284  0.9577 -0.9840
 6003SOL    HW218791   7.070   4.905   5.488 -0.2326 -0.2327 -0.2676
 6004SOL     OW18792   4.658   1.220   0.530  0.3355  0.1589  0.0607
 6004SOL    HW118793   4.683   1.132   0.557  0.7938 -0.0851 -1.0951
 6004SOL    HW218794   4.589   1.246   0.591  2.3339  0.2693  2.4254
 6005SOL     OW18795   4.821   6.052   2.374 -0.3651  0.5124  0.4518
 6005SOL    HW118796   4.824   6.016   2.462  1.9503 -0.4296  0.0685
 6005SOL    HW218797   4.885   6.123   2.375  0.3366 -0.0731 -0.6647
 6006SOL     OW18798   3.404   6.278   2.086  0.0596  0.6038  0.3880
 6006SOL    HW118799   3.412   6.305   2.177  0.3818  0.2693  0.4593
 6006SOL    HW218800   3.353   6.348   2.045  0.4465  1.0616  0.6831
 6007SOL     OW18801   1.240   3.942   8.180 -0.0105 -0.5577 -0.1565
 6007SOL    HW118802   1.182   4.017   8.186  1.7796  1.1654 -2.5339
 6007SOL    HW218803   1.294   3.946   8.259  1.7131  2.2443 -1.3418
 6008SOL     OW18804   6.560   1.575   2.542  0.0811 -0.0717 -0.2336
 6008SOL    HW118805   6.516   1.533   2.616 -0.6271 -1.7405 -1.5325
 6008SOL    HW218806   6.588   1.660   2.576  0.9092 -1.2554  2.3096
 6009SOL     OW18807   3.182   6.957   2.725 -0.7727  0.0140  0.0187
 6009SOL    HW118808   3.127   7.035   2.715 -1.1535 -0.2489  0.0492
 6009SOL    HW218809   3.220   6.965   2.812  0.0097  0.6885 -0.3776
 6010SOL     OW18810   6.208   4.036   4.981 -0.2371  0.1761  0.4856
 6010SOL    HW118811   6.268   3.990   4.923  1.5642  1.7463  0.9957
 6010SOL    HW218812   6.121   4.018   4.945  0.5732 -1.4718 -0.7882
 6011SOL     OW18813   4.280   4.618   5.912  0.3907 -0.0969 -0.3322
 6011SOL    HW118814   4.239   4.678   5.849  2.0972  1.9480  0.4349
 6011SOL    HW218815   4.236   4.636   5.995 -0.4906 -1.4098 -0.4753
 6012SOL     OW18816   8.086   7.387   1.282 -0.5569  0.2561 -0.5840
 6012SOL    HW118817   8.155   7.349   1.337 -0.4931 -1.0942 -1.5426
 6012SOL    HW218818   8.005   7.363   1.325 -0.4724  0.3712 -0.3606
 6013SOL     OW18819   2.248   4.573   7.048 -0.4266 -0.3570 -0.0450
 6013SOL    HW118820   2.178   4.535   6.995 -0.5354 -0.8473  0.4443
 6013SOL    HW218821   2.226   4.666   7.052 -1.1016 -0.5229  0.1842
 6014SOL     OW18822   3.083   7.016   1.002  0.7038  0.5102  0.5095
 6014SOL    HW118823   3.026   6.965   0.944 -0.4158  1.5904  0.6121
 6014SOL    HW218824   3.104   6.956   1.074  0.8012 -0.3311 -0.1943
 6015SOL     OW18825   5.828   7.925   2.648  0.0217 -0.0924  0.4735
 6015SOL    HW118826   5.911   7.888   2.620  0.4299 -0.0537  1.6042
 6015SOL    HW218827   5.830   7.920   2.744  0.3663  3.3587  0.7739
 6016SOL     OW18828   2.720   4.141   5.514  0.0403  0.5390 -0.2743
 6016SOL    HW118829   2.779   4.200   5.468 -2.8521  3.6036 -0.4854
 6016SOL    HW218830   2.673   4.096   5.443 -0.2523  0.7542 -0.2212
 6017SOL     OW18831   4.419   6.977   5.613 -0.1724 -0.0932 -0.2191
 6017SOL    HW118832   4.476   7.026   5.673  0.7125 -1.6591  0.2606
 6017SOL    HW218833   4.466   6.978   5.530  1.3451 -2.5911  0.5209
 6018SOL     OW18834   1.010   3.335   7.059  0.1966 -0.6805  0.1659
 6018SOL    HW118835   0.986   3.424   7.084 -0.7846 -0.3933 -1.5995
 6018SOL    HW218836   0.978   3.281   7.131  1.6271  0.4180  1.7191
 6019SOL     OW18837   4.178   5.814   3.812  0.1485 -0.1910 -0.1515
 6019SOL    HW118838   4.103   5.809   3.752 -0.3834  0.7379  0.4023
 6019SOL    HW218839   4.168   5.738   3.870  0.2373 -0.6647 -0.7525
 6020SOL     OW18840   1.899   5.006   7.527  0.3120 -0.2185 -0.1062
 6020SOL    HW118841   1.938   5.042   7.448  0.9412  1.4495  0.9081
 6020SOL    HW218842   1.926   4.914   7.528 -1.4364 -0.8589 -2.8482
 6021SOL     OW18843   1.058   0.698   5.077 -0.1776 -0.5459  0.0603
 6021SOL    HW118844   1.039   0.621   5.023  0.5789  0.4774 -1.7520
 6021SOL    HW218845   0.983   0.705   5.136 -0.4951 -2.3556 -0.0557
 6022SOL     OW18846   5.728   0.337   0.115  0.5834 -0.3458  0.0916
 6022SOL    HW118847   5.755   0.427   0.094 -0.0885  0.1973  1.4275
 6022SOL    HW218848   5.633   0.342   0.123  0.6375 -0.9162  1.2881
 6023SOL     OW18849   3.248   5.256   4.499  0.0179  0.0277 -0.2326
 6023SOL    HW118850   3.172   5.199   4.503  0.1713 -0.1157  1.6394
 6023SOL    HW218851   3.232   5.322   4.567  0.8956  0.8629 -0.8084
 6024SOL     OW18852   4.717   7.462   6.823 -0.2791  0.1063 -0.3055
 6024SOL    HW118853   4.764   7.390   6.866 -2.0750 -2.1093 -1.8320
 6024SOL    HW218854   4.684   7.515   6.895  2.0927  0.1485  0.8464
 6025SOL     OW18855   1.041   1.509   5.356  0.2356  0.3649  0.2308
 6025SOL    HW118856   1.021   1.494   5.448 -0.0484 -1.3731 -0.0787
 6025SOL    HW218857   0.957   1.532   5.316 -0.1382 -1.2667 -0.0043
 6026SOL     OW18858   4.322   6.885   2.693 -0.0821 -0.3729  0.3893
 6026SOL    HW118859   4.290   6.815   2.749 -1.1825 -0.8380 -0.7536
 6026SOL    HW218860   4.244   6.939   2.677  0.1585 -0.3644 -0.8250
 6027SOL     OW18861   7.390   8.084   5.436  0.2387 -0.2346  0.1341
 6027SOL    HW118862   7.377   8.071   5.530  1.0268  1.0624  0.4519
 6027SOL    HW218863   7.440   8.166   5.430  1.7536 -1.2033 -1.3353
 6028SOL     OW18864   0.343   4.739   8.169  0.7920  0.2998  0.0587
 6028SOL    HW118865   0.294   4.791   8.105 -1.6338  1.7782  2.8670
 6028SOL    HW218866   0.416   4.795   8.195  0.5483  0.5819  0.1359
 6029SOL     OW18867   2.763   2.178   4.990 -0.0915  0.4552  0.1939
 6029SOL    HW118868   2.730   2.259   5.029 -0.9464  0.4705 -0.5157
 6029SOL    HW218869   2.850   2.200   4.958 -0.6776  1.3663 -0.8123
 6030SOL     OW18870   5.155   3.545   1.969  0.3342  0.4255  0.0919
 6030SOL    HW118871   5.093   3.612   1.939 -1.4025 -1.0031  0.3289
 6030SOL    HW218872   5.172   3.569   2.061  2.0406  2.1564 -0.6106
 6031SOL     OW18873   0.218   5.728   0.590  0.9088  0.3293  0.1768
 6031SOL    HW118874   0.276   5.751   0.517  1.4648 -1.1206  0.1421
 6031SOL    HW218875   0.170   5.809   0.608 -0.6679  0.2674 -3.0339
 6032SOL     OW18876   6.773   2.448   0.047 -0.5280 -0.2502 -0.2235
 6032SOL    HW118877   6.713   2.516   0.018 -0.3685  0.2835  0.6329
 6032SOL    HW218878   6.723   2.397   0.111  0.3690  1.2517  1.8258
 6033SOL     OW18879   0.447   5.969   5.812  0.2858  0.0128 -0.1088
 6033SOL    HW118880   0.357   6.001   5.820  0.6361  1.2182 -0.6545
 6033SOL    HW218881   0.457   5.948   5.720  1.1820  1.9944 -0.5294
 6034SOL     OW18882   3.189   7.638   6.398 -0.1919 -0.1129 -0.0556
 6034SOL    HW118883   3.180   7.723   6.356 -0.3325 -0.4352 -0.6982
 6034SOL    HW218884   3.217   7.579   6.327  1.0144 -0.3759  0.6035
 6035SOL     OW18885   6.683   0.479   5.293  0.3530 -0.3170 -0.7265
 6035SOL    HW118886   6.707   0.436   5.211  0.5047  2.1043 -2.0526
 6035SOL    HW218887   6.595   0.514   5.277  0.4568  0.3285  0.0620
 6036SOL     OW18888   3.195   5.638   5.088  0.2982 -0.3869 -0.3081
 6036SOL    HW118889   3.209   5.730   5.109  0.0721 -0.2957 -0.5605
 6036SOL    HW218890   3.127   5.638   5.021  1.2656 -0.6538 -1.3266
 6037SOL     OW18891   2.114   4.986   0.431  0.1163  0.2915  0.3038
 6037SOL    HW118892   2.170   5.059   0.458 -1.6625  2.2969 -1.1277
 6037SOL    HW218893   2.175   4.921   0.397  1.7064  1.5696  0.5545
 6038SOL     OW18894   3.261   1.827   8.182 -0.3617  0.0322 -0.0344
 6038SOL    HW118895   3.207   1.755   8.149 -0.7483 -0.1041  0.8848
 6038SOL    HW218896   3.305   1.861   8.104 -2.3065  0.6117 -0.9327
 6039SOL     OW18897   1.387   2.907   8.209  0.0577 -0.7036 -0.4953
 6039SOL    HW118898   1.411   2.816   8.225  1.3629 -0.5573 -1.4988
 6039SOL    HW218899   1.405   2.921   8.116  1.6472  1.0836  0.0171
 6040SOL     OW18900   6.391   1.485   2.082 -0.4540 -0.0694  0.0545
 6040SOL    HW118901   6.303   1.506   2.053 -1.4315 -1.5547  1.7478
 6040SOL    HW218902   6.418   1.411   2.027 -1.5676 -1.6615  1.5341
 6041SOL     OW18903   1.302   1.187   0.100  0.4792  0.3797 -0.3100
 6041SOL    HW118904   1.372   1.232   0.148  1.5855 -1.5004 -0.0655
 6041SOL    HW218905   1.345   1.111   0.061 -1.5658 -1.2654  0.4521
 6042SOL     OW18906   5.505   0.642   2.859  0.0237 -0.3747 -0.5190
 6042SOL    HW118907   5.492   0.719   2.914  1.8632 -0.8527  0.6662
 6042SOL    HW218908   5.595   0.649   2.828 -0.1658 -1.4506 -1.3949
 6043SOL     OW18909   5.080   6.412   4.044  0.0466  0.6680  0.5841
 6043SOL    HW118910   5.105   6.328   4.006 -1.9908 -0.1568  0.9193
 6043SOL    HW218911   5.096   6.400   4.138 -0.3912  0.5830  0.6501
 6044SOL     OW18912   4.577   7.684   4.015 -0.3429  0.4079 -0.4894
 6044SOL    HW118913   4.630   7.625   4.069 -0.4274  1.1182  0.3989
 6044SOL    HW218914   4.566   7.762   4.070 -2.6525  0.1233 -0.4651
 6045SOL     OW18915   2.791   3.178   2.051 -0.2463  0.3418 -0.0154
 6045SOL    HW118916   2.716   3.133   2.089 -0.2684  0.0072 -0.4622
 6045SOL    HW218917   2.862   3.114   2.054 -0.3284  0.2032 -0.8318
 6046SOL     OW18918   3.911   7.327   7.888  0.2401  0.0500 -0.1512
 6046SOL    HW118919   3.820   7.299   7.884  0.2602 -0.5225  2.1276
 6046SOL    HW218920   3.934   7.348   7.798 -2.1861  0.3741 -0.7473
 6047SOL     OW18921   0.217   2.878   6.101  0.2899  0.4655  0.5885
 6047SOL    HW118922   0.239   2.956   6.151  4.1831  0.2980 -0.5250
 6047SOL    HW218923   0.214   2.807   6.166  1.9058  0.7751  1.0310
 6048SOL     OW18924   7.135   0.273   7.401  0.1514  0.0961 -0.5039
 6048SOL    HW118925   7.118   0.222   7.480 -2.2409  3.0592  1.0850
 6048SOL    HW218926   7.205   0.334   7.426  1.9696 -1.2648 -1.9334
 6049SOL     OW18927   6.910   3.581   6.181 -0.2912  0.2827 -0.1210
 6049SOL    HW118928   6.887   3.669   6.209 -1.5677 -0.2245  0.5189
 6049SOL    HW218929   6.939   3.537   6.261  0.2989  0.0933 -0.4266
 6050SOL     OW18930   3.761   3.891   6.558 -0.0054 -0.1894  0.4499
 6050SOL    HW118931   3.785   3.933   6.641  0.0305  2.0108 -0.6011
 6050SOL    HW218932   3.800   3.947   6.491  0.6449 -2.3651 -1.0712
 6051SOL     OW18933   1.281   5.935   3.604 -0.1562  0.4262 -0.1987
 6051SOL    HW118934   1.324   5.954   3.520 -0.9866 -1.1330 -1.0164
 6051SOL    HW218935   1.194   5.974   3.595 -0.5203 -0.4192 -0.3803
 6052SOL     OW18936   7.669   5.263   0.062  0.2696 -0.0262 -0.0325
 6052SOL    HW118937   7.637   5.313  -0.013 -1.6969  0.0315  0.7821
 6052SOL    HW218938   7.594   5.211   0.091  1.0330 -0.2452  1.7287
 6053SOL     OW18939   0.163   8.136   7.721 -0.0690  0.0712 -0.1369
 6053SOL    HW118940   0.079   8.127   7.677 -0.9407 -1.2029  1.6163
 6053SOL    HW218941   0.161   8.069   7.790  0.3131  3.0587  3.1150
 6054SOL     OW18942   5.136   4.325   1.413 -0.5161 -0.2954  0.0262
 6054SOL    HW118943   5.159   4.415   1.434 -0.9750 -0.3112  0.6218
 6054SOL    HW218944   5.040   4.325   1.409 -0.6491 -1.1562  2.0155
 6055SOL     OW18945   7.349   6.927   2.547  0.2313  0.1210  0.3876
 6055SOL    HW118946   7.369   6.971   2.464  0.2376 -0.5850  0.0031
 6055SOL    HW218947   7.281   6.863   2.524 -0.4126  0.5333  1.1078
 6056SOL     OW18948   1.189   5.484   5.683  0.4542  0.2400  0.4390
 6056SOL    HW118949   1.249   5.412   5.698 -0.7602 -0.4397  2.5458
 6056SOL    HW218950   1.242   5.563   5.694  1.5863 -0.3003 -0.9189
 6057SOL     OW18951   0.595   1.521   0.574 -0.0728 -0.4699 -0.1456
 6057SOL    HW118952   0.626   1.430   0.572  0.9617 -0.1538  0.3136
 6057SOL    HW218953   0.609   1.548   0.665  1.4116  0.7080 -0.6804
 6058SOL     OW18954   1.245   5.859   7.930 -0.1428 -0.4388 -0.1231
 6058SOL    HW118955   1.248   5.798   7.856 -1.2211 -2.1454  1.1922
 6058SOL    HW218956   1.174   5.920   7.908  0.1952 -0.3110 -0.9216
 6059SOL     OW18957   7.738   7.758   5.902  0.0409 -1.0274 -0.0191
 6059SOL    HW118958   7.703   7.700   5.834 -0.6866 -2.6350  1.6510
 6059SOL    HW218959   7.773   7.699   5.969 -0.9049  0.4120  1.8551
 6060SOL     OW18960   0.624   5.064   5.167 -0.2658  0.2787  0.5742
 6060SOL    HW118961   0.575   5.101   5.241  0.6339  2.8145 -0.0081
 6060SOL    HW218962   0.628   5.135   5.103  0.1090 -1.4236 -1.4110
 6061SOL     OW18963   0.152   7.944   4.381 -0.2095  0.2157  0.1844
 6061SOL    HW118964   0.106   7.991   4.311  0.9190  1.1767  0.0633
 6061SOL    HW218965   0.212   8.009   4.419  1.1611 -1.0320  0.2380
 6062SOL     OW18966   6.539   8.115   0.465  0.1338  0.2830  0.1962
 6062SOL    HW118967   6.446   8.099   0.447 -0.0501  0.7076  0.7427
 6062SOL    HW218968   6.543   8.132   0.559  1.0049 -1.3475  0.4859
 6063SOL     OW18969   5.638   2.496   1.878 -0.1722 -0.6911  0.1177
 6063SOL    HW118970   5.591   2.508   1.795  0.0115  0.4477  0.1669
 6063SOL    HW218971   5.571   2.510   1.946 -0.4001 -1.9544  0.1807
 6064SOL     OW18972   4.345   4.806   1.409  0.3947 -0.3563  0.2276
 6064SOL    HW118973   4.283   4.837   1.343  0.0462 -0.4567  0.5053
 6064SOL    HW218974   4.298   4.815   1.492  0.6378 -0.7260  0.4074
 6065SOL     OW18975   4.127   4.496   0.222  0.0003 -0.0022 -0.4834
 6065SOL    HW118976   4.098   4.544   0.145  0.0957  2.0557  0.6769
 6065SOL    HW218977   4.213   4.534   0.242  0.2671 -0.9606  0.2674
 6066SOL     OW18978   5.567   1.854   0.282 -0.0143  0.2985 -0.1609
 6066SOL    HW118979   5.489   1.909   0.289 -1.0097 -1.0640 -0.2639
 6066SOL    HW218980   5.583   1.823   0.371 -0.7736 -0.9821 -0.4471
 6067SOL     OW18981   4.267   4.025   5.042  1.0139 -0.1151 -0.1738
 6067SOL    HW118982   4.288   3.949   4.987 -1.4276 -1.8432  1.0625
 6067SOL    HW218983   4.239   4.092   4.980 -1.3859 -1.9045 -1.1873
 6068SOL     OW18984   1.183   4.179   3.948 -0.0195 -0.0173  0.2053
 6068SOL    HW118985   1.255   4.171   3.885 -0.6791 -0.9883 -0.4560
 6068SOL    HW218986   1.184   4.096   3.996 -0.8942 -0.1740 -0.0305
 6069SOL     OW18987   2.319   0.658   4.099 -0.3990  0.4449 -0.7426
 6069SOL    HW118988   2.248   0.619   4.149 -0.4234 -0.4821 -1.4739
 6069SOL    HW218989   2.361   0.719   4.160 -1.1523  0.2198  0.0205
 6070SOL     OW18990   6.893   2.901   1.844 -0.1754  0.1344 -0.7035
 6070SOL    HW118991   6.924   2.840   1.777  0.2121 -0.0885 -0.3238
 6070SOL    HW218992   6.798   2.906   1.830 -0.6799 -2.6651  0.9532
 6071SOL     OW18993   4.310   3.010   0.747  0.0323 -0.3404  0.4380
 6071SOL    HW118994   4.339   3.062   0.672 -0.4456  0.5467  0.8504
 6071SOL    HW218995   4.231   2.965   0.716 -0.1938  0.0647  0.4203
 6072SOL     OW18996   1.373   6.566   7.376 -0.0153 -0.0415  0.0839
 6072SOL    HW118997   1.436   6.624   7.333 -1.2428  0.6557 -0.8479
 6072SOL    HW218998   1.310   6.544   7.307  0.2053 -2.2269  0.4986
 6073SOL     OW18999   3.148   1.932   7.656 -0.2647  0.3945  0.0824
 6073SOL    HW119000   3.092   1.933   7.733 -0.9461 -0.5471 -0.3689
 6073SOL    HW219001   3.113   1.861   7.602  0.1677  1.0546 -1.1129
 6074SOL     OW19002   7.709   0.040   3.797  0.2562  0.6227 -0.7233
 6074SOL    HW119003   7.751  -0.037   3.758 -0.3860  0.2286 -0.6419
 6074SOL    HW219004   7.689   0.013   3.887 -4.9391 -1.1992 -2.0728
 6075SOL     OW19005   5.190   2.912   7.580  0.6272 -0.9950 -0.2555
 6075SOL    HW119006   5.124   2.932   7.647  0.3269  0.1610 -0.8631
 6075SOL    HW219007   5.272   2.945   7.617  0.4343 -0.2086 -0.5095
 6076SOL     OW19008   6.652   7.399   0.676  0.4283  0.1358 -0.1834
 6076SOL    HW119009   6.715   7.350   0.624 -0.6218  0.1872 -1.5524
 6076SOL    HW219010   6.705   7.463   0.724  1.6159 -1.1489  0.2731
 6077SOL     OW19011   8.052   1.633   8.300 -0.5939  0.0062 -0.7022
 6077SOL    HW119012   8.036   1.715   8.254 -0.4514  1.0481  1.0450
 6077SOL    HW219013   8.096   1.658   8.381  1.4340 -1.9795 -1.0810
 6078SOL     OW19014   2.898   5.277   7.983 -0.3110  0.1195 -0.5378
 6078SOL    HW119015   2.858   5.250   8.065  1.0022  1.2124  0.5202
 6078SOL    HW219016   2.992   5.280   8.002  0.0318  0.2612 -2.1207
 6079SOL     OW19017   3.875   3.698   7.724  0.1880  0.8011  0.4136
 6079SOL    HW119018   3.780   3.706   7.732  0.1677 -0.3196  1.4948
 6079SOL    HW219019   3.888   3.649   7.643 -0.1903  0.3084  0.6499
 6080SOL     OW19020   5.861   0.922   4.001  0.4592 -0.2094 -0.4436
 6080SOL    HW119021   5.930   0.878   3.950  1.3972 -2.5410  2.5296
 6080SOL    HW219022   5.802   0.958   3.935  1.8302 -2.5361 -3.1687
 6081SOL     OW19023   5.003   0.734   2.806  0.1227 -0.3765 -0.1578
 6081SOL    HW119024   5.048   0.789   2.870  1.2712  0.9161 -1.9839
 6081SOL    HW219025   4.916   0.772   2.798 -0.3717 -1.1173  1.2500
 6082SOL     OW19026   2.817   0.373   3.985 -0.1122  0.3318 -0.2306
 6082SOL    HW119027   2.729   0.412   3.984  0.2842  1.3135 -2.3783
 6082SOL    HW219028   2.865   0.426   4.049 -1.2967 -0.8454  1.7162
 6083SOL     OW19029   3.462   2.597   6.101 -0.2961  0.3278  0.0411
 6083SOL    HW119030   3.470   2.540   6.024 -0.7054  1.7855 -1.1428
 6083SOL    HW219031   3.377   2.641   6.089 -0.7015  0.0467  1.7212
 6084SOL     OW19032   3.960   7.565   8.098  0.2624 -0.2542  0.0052
 6084SOL    HW119033   3.869   7.562   8.126  0.6421 -1.4547  1.2443
 6084SOL    HW219034   3.957   7.544   8.005 -0.6359 -1.7861  0.3376
 6085SOL     OW19035   1.722   3.907   7.367  0.3966 -0.0384 -0.0515
 6085SOL    HW119036   1.715   3.855   7.448 -1.8726  1.1105  0.5582
 6085SOL    HW219037   1.812   3.940   7.368  0.6169 -0.5752  1.6820
 6086SOL     OW19038   6.612   0.086   6.314  0.4706  0.3472  0.1498
 6086SOL    HW119039   6.534   0.096   6.368 -1.3297  1.4934 -2.4681
 6086SOL    HW219040   6.581   0.041   6.235  2.7373 -0.2735 -0.4758
 6087SOL     OW19041   8.126   1.305   7.922  0.4912 -0.2712 -0.2681
 6087SOL    HW119042   8.078   1.313   8.004 -0.9983  0.6583 -1.1756
 6087SOL    HW219043   8.070   1.249   7.868  1.7107 -1.3199 -0.4896
 6088SOL     OW19044   7.929   5.812   1.986  0.1806 -0.4992  0.6015
 6088SOL    HW119045   7.991   5.796   2.056  0.5284 -1.4042  0.0904
 6088SOL    HW219046   7.866   5.874   2.024  0.9546 -0.1544  1.3573
 6089SOL     OW19047   7.362   3.768   1.347  0.1569  0.3622  0.3275
 6089SOL    HW119048   7.327   3.852   1.375 -0.2062  0.1849  0.4091
 6089SOL    HW219049   7.292   3.728   1.296  0.6939  0.5458 -0.5982
 6090SOL     OW19050   7.311   0.933   4.175  0.1686 -0.2092  0.3055
 6090SOL    HW119051   7.280   1.005   4.120 -0.4114  0.5909  1.6374
 6090SOL    HW219052   7.357   0.875   4.114 -1.2096  0.1757 -1.1863
 6091SOL     OW19053   5.965   2.016   0.624  0.3764 -0.5190  0.4703
 6091SOL    HW119054   5.936   1.928   0.599 -0.8155  0.4106 -1.6747
 6091SOL    HW219055   6.059   2.015   0.608  1.0609 -2.3163  3.6205
 6092SOL     OW19056   1.842   2.353   0.572  0.4036 -0.1078  0.2201
 6092SOL    HW119057   1.792   2.313   0.643 -0.2140  0.7111  0.2571
 6092SOL    HW219058   1.909   2.406   0.616 -0.4082  0.9470  0.2225
 6093SOL     OW19059   1.383   2.411   3.758  0.0218  0.4892  0.3568
 6093SOL    HW119060   1.334   2.473   3.812  0.7137  0.7201  0.7289
 6093SOL    HW219061   1.473   2.418   3.789  0.1984 -0.3282  0.0530
 6094SOL     OW19062   6.815   2.800   1.072 -0.0935  0.0209  0.5875
 6094SOL    HW119063   6.758   2.730   1.041 -0.6853  0.3465  0.9272
 6094SOL    HW219064   6.886   2.755   1.117  0.4383 -0.4272 -0.6657
 6095SOL     OW19065   2.447   7.717   6.637 -0.2001 -0.0022  0.0249
 6095SOL    HW119066   2.458   7.720   6.542 -1.0741  0.7026 -0.0699
 6095SOL    HW219067   2.527   7.756   6.672  0.8749 -1.7891 -0.3506
 6096SOL     OW19068   0.840   0.750   0.379  0.4050  0.1148 -0.1364
 6096SOL    HW119069   0.876   0.662   0.381 -0.2248 -0.1325  1.0599
 6096SOL    HW219070   0.916   0.806   0.363  0.7356 -0.6556 -1.4454
 6097SOL     OW19071   3.561   7.396   0.778 -0.3677  0.1783 -0.5029
 6097SOL    HW119072   3.646   7.409   0.737 -0.0384 -0.2375  0.0402
 6097SOL    HW219073   3.514   7.336   0.720  1.2289 -2.9430  1.2099
 6098SOL     OW19074   1.580   6.650   8.170  0.2333 -0.0314  0.3189
 6098SOL    HW119075   1.617   6.733   8.199 -0.6138 -0.1080  1.7216
 6098SOL    HW219076   1.489   6.670   8.150  0.4291 -0.3032 -0.9110
 6099SOL     OW19077   4.213   7.215   3.682 -0.2741 -0.0205  0.3679
 6099SOL    HW119078   4.214   7.120   3.694  0.0566 -0.0355  0.2263
 6099SOL    HW219079   4.142   7.230   3.620 -0.1823 -0.1973  0.2189
 6100SOL     OW19080   4.117   4.725   1.945  0.2065 -0.3430  0.6467
 6100SOL    HW119081   4.144   4.633   1.952 -1.1173 -0.8895 -0.7665
 6100SOL    HW219082   4.198   4.773   1.930  0.7342 -1.5700 -0.6845
 6101SOL     OW19083   3.088   5.845   3.650  0.5040  0.4913  0.1838
 6101SOL    HW119084   3.175   5.804   3.655  0.3551  0.1606  0.0838
 6101SOL    HW219085   3.100   5.916   3.586  0.4262 -0.2747 -0.7159
 6102SOL     OW19086   5.729   1.135   2.574  0.7621 -0.1544 -0.6292
 6102SOL    HW119087   5.637   1.138   2.600  0.9842  0.8378  0.1184
 6102SOL    HW219088   5.727   1.129   2.479 -0.0723 -1.8911 -0.5548
 6103SOL     OW19089   5.238   7.716   1.261 -0.3292  0.1554  0.4097
 6103SOL    HW119090   5.315   7.717   1.205 -1.7844 -0.5511 -1.7424
 6103SOL    HW219091   5.263   7.663   1.336  0.2203 -3.2790 -1.9958
 6104SOL     OW19092   1.845   7.482   1.789  0.6211 -0.3243 -0.2196
 6104SOL    HW119093   1.881   7.402   1.751 -0.9351 -0.9965 -0.3181
 6104SOL    HW219094   1.790   7.453   1.862  2.7936  0.8744  2.0786
 6105SOL     OW19095   4.881   7.192   3.335  0.1897 -0.2790  0.4540
 6105SOL    HW119096   4.878   7.214   3.428  0.3691 -1.5273  0.7710
 6105SOL    HW219097   4.910   7.101   3.333  0.7910 -0.0758 -0.8568
 6106SOL     OW19098   3.639   2.677   4.772 -0.1986  0.1965  0.1484
 6106SOL    HW119099   3.664   2.650   4.684  0.1459 -0.4039  0.4259
 6106SOL    HW219100   3.722   2.694   4.817 -0.3969  1.4634  0.0670
 6107SOL     OW19101   4.187   0.148   2.143  0.0210  0.6839  0.3620
 6107SOL    HW119102   4.124   0.220   2.146 -0.6410  0.3086 -2.3127
 6107SOL    HW219103   4.133   0.069   2.146  0.7150  0.1963  2.7697
 6108SOL     OW19104   6.598   3.035   6.444  0.0672  0.1987 -0.1841
 6108SOL    HW119105   6.677   3.073   6.406  0.4364 -0.9355 -0.5689
 6108SOL    HW219106   6.578   3.092   6.519  0.5084  1.2362 -0.8353
 6109SOL     OW19107   7.737   4.688   0.774  0.1189  0.2712 -0.4124
 6109SOL    HW119108   7.752   4.763   0.716  0.8863  1.4215  1.1863
 6109SOL    HW219109   7.813   4.687   0.832  0.0263 -1.6559 -0.2532
 6110SOL     OW19110   7.529   0.569   5.065  0.2443 -0.3519  0.0682
 6110SOL    HW119111   7.496   0.482   5.044  0.5873 -0.5679  0.4008
 6110SOL    HW219112   7.608   0.553   5.117 -0.9162  0.1527  2.1074
 6111SOL     OW19113   0.853   2.297   5.484 -0.5576  0.2820 -0.0218
 6111SOL    HW119114   0.888   2.232   5.422 -1.1790  0.7893 -0.9399
 6111SOL    HW219115   0.795   2.352   5.430 -0.7183  1.0571  0.9179
 6112SOL     OW19116   2.798   4.912   4.638  0.3866 -0.3185 -0.1294
 6112SOL    HW119117   2.860   4.985   4.642 -0.3541  0.2922  2.9228
 6112SOL    HW219118   2.720   4.949   4.598  0.7304 -0.0556 -0.5685
 6113SOL     OW19119   5.804   3.018   5.948  0.0321 -0.0407 -0.1980
 6113SOL    HW119120   5.892   3.025   5.911  0.6728 -1.0373  1.0605
 6113SOL    HW219121   5.770   2.935   5.915  0.1895 -0.4172  0.5670
 6114SOL     OW19122   3.861   2.257   7.720  0.4505  0.4744  0.7687
 6114SOL    HW119123   3.869   2.188   7.786 -1.1517 -0.9355 -0.4513
 6114SOL    HW219124   3.887   2.337   7.767 -0.7001 -0.4451  3.1669
 6115SOL     OW19125   1.082   2.350   0.047 -0.5028 -0.2216 -0.1769
 6115SOL    HW119126   1.127   2.405  -0.017 -0.7777  0.7129  0.4089
 6115SOL    HW219127   1.122   2.372   0.131 -0.6409 -0.8997  0.0763
 6116SOL     OW19128   3.412   3.113   3.671 -0.8202 -0.4243 -0.5566
 6116SOL    HW119129   3.420   3.049   3.601  0.0237 -0.6042 -0.2975
 6116SOL    HW219130   3.498   3.115   3.712 -0.8008  0.9503 -0.6224
 6117SOL     OW19131   3.385   6.126   1.018  0.3908 -0.2440 -0.4817
 6117SOL    HW119132   3.420   6.071   0.948 -0.4557 -0.4729 -0.7401
 6117SOL    HW219133   3.321   6.071   1.063 -1.1673  0.7821 -1.3288
 6118SOL     OW19134   0.201   3.642   5.109  0.3031  0.4281  0.2027
 6118SOL    HW119135   0.289   3.606   5.100 -0.0543 -0.2621 -0.6564
 6118SOL    HW219136   0.206   3.729   5.071  0.0121 -0.6007 -2.4123
 6119SOL     OW19137   4.823   1.492   6.151  0.3994 -0.4065  0.7864
 6119SOL    HW119138   4.901   1.493   6.207  0.7269  0.5073  0.3360
 6119SOL    HW219139   4.750   1.482   6.212  0.5531  2.8104  1.7121
 6120SOL     OW19140   3.588   5.530   3.180  0.0462 -0.6757  0.6085
 6120SOL    HW119141   3.570   5.621   3.200 -1.5936 -0.2582 -2.2340
 6120SOL    HW219142   3.651   5.533   3.108 -0.1981 -1.7644  0.3248
 6121SOL     OW19143   0.220   0.649   6.683  0.1794  0.5893 -0.3458
 6121SOL    HW119144   0.267   0.732   6.671 -1.1549  1.5529  0.8550
 6121SOL    HW219145   0.128   0.674   6.689 -0.3500 -1.0975 -0.9428
 6122SOL     OW19146   0.565   2.929   8.122 -0.5713 -0.8691 -0.1593
 6122SOL    HW119147   0.581   2.836   8.132  0.8906 -0.8662 -1.8771
 6122SOL    HW219148   0.503   2.934   8.048  1.3208 -0.4730 -1.8194
 6123SOL     OW19149   2.584   2.434   2.271  0.3874  0.2563 -0.5797
 6123SOL    HW119150   2.651   2.414   2.205  1.5975  0.3273  0.5924
 6123SOL    HW219151   2.578   2.354   2.324 -0.6453  0.1665 -0.8131
 6124SOL     OW19152   6.827   1.471   1.323 -0.2826  0.1568  0.3124
 6124SOL    HW119153   6.871   1.396   1.364  2.5245  2.4561  1.8827
 6124SOL    HW219154   6.803   1.527   1.397  1.6515  2.7620 -0.8888
 6125SOL     OW19155   5.097   4.893   6.402  0.3596 -0.1427 -0.7561
 6125SOL    HW119156   5.095   4.834   6.326  0.1507  0.8870 -1.5629
 6125SOL    HW219157   5.005   4.903   6.426  0.4685 -1.0483  0.1161
 6126SOL     OW19158   6.702   3.057   4.298 -0.4440 -0.2727  0.1926
 6126SOL    HW119159   6.744   3.087   4.378 -2.3876  0.7117  0.9246
 6126SOL    HW219160   6.654   2.978   4.323 -0.5337 -0.3377 -0.1668
 6127SOL     OW19161   6.313   2.401   2.412 -0.0200  0.2404  0.3741
 6127SOL    HW119162   6.278   2.489   2.397  0.4573 -0.0661 -3.6079
 6127SOL    HW219163   6.236   2.348   2.435 -0.6034  1.3597  1.0495
 6128SOL     OW19164   7.409   1.261   2.122 -0.1087  0.2974  0.3765
 6128SOL    HW119165   7.430   1.350   2.149  1.3372 -0.0279  0.4277
 6128SOL    HW219166   7.480   1.208   2.159  0.1080 -0.6085 -1.2466
 6129SOL     OW19167   7.483   0.589   3.443 -0.2028  0.3206  0.0132
 6129SOL    HW119168   7.554   0.540   3.484  0.4261  0.4953 -0.8379
 6129SOL    HW219169   7.431   0.522   3.398  0.2127  0.3427 -0.5047
 6130SOL     OW19170   1.838   0.849   1.498 -0.6863 -0.2871  0.0797
 6130SOL    HW119171   1.922   0.852   1.544 -0.1909  1.0648 -0.8414
 6130SOL    HW219172   1.811   0.757   1.502  0.8017 -0.7276  0.4615
 6131SOL     OW19173   2.883   0.566   7.435 -0.1804  0.4942  0.5630
 6131SOL    HW119174   2.807   0.600   7.388 -0.2238  1.0004  0.9991
 6131SOL    HW219175   2.910   0.637   7.493  0.1771  0.0505  0.9495
 6132SOL     OW19176   4.592   2.330   3.981 -0.4884 -0.7920 -0.3710
 6132SOL    HW119177   4.539   2.397   3.937 -0.5198  0.5001  1.4920
 6132SOL    HW219178   4.530   2.285   4.039  0.2247  0.2159  1.2503
 6133SOL     OW19179   1.614   3.539   7.134  0.1158 -0.5331  0.2656
 6133SOL    HW119180   1.681   3.606   7.128 -1.1638  0.8065  0.4190
 6133SOL    HW219181   1.542   3.580   7.181 -1.7815 -1.0928 -1.9468
 6134SOL     OW19182   5.900   5.826   3.585  0.2100  0.2420 -0.1803
 6134SOL    HW119183   5.942   5.740   3.594  0.3350  0.1915 -1.1691
 6134SOL    HW219184   5.896   5.860   3.674 -0.0034 -0.8680  0.2419
 6135SOL     OW19185   3.046   6.520   5.130 -0.9129 -0.3625  0.2739
 6135SOL    HW119186   3.140   6.518   5.115 -0.9063 -2.2022  0.3247
 6135SOL    HW219187   3.036   6.494   5.222 -1.4528  0.6192  0.5099
 6136SOL     OW19188   0.444   5.939   5.534 -0.0273  0.2025 -0.3367
 6136SOL    HW119189   0.534   5.953   5.503 -0.2896 -0.9201 -1.7373
 6136SOL    HW219190   0.391   5.998   5.480 -0.1377  0.9449  0.5640
 6137SOL     OW19191   1.036   5.893   4.808 -0.2036 -0.0047  0.2979
 6137SOL    HW119192   0.962   5.952   4.822 -0.5340 -0.3753  0.1331
 6137SOL    HW219193   1.104   5.926   4.866 -0.7206 -0.0505  0.9466
 6138SOL     OW19194   6.590   3.026   0.238  0.1362 -0.5607 -0.2186
 6138SOL    HW119195   6.497   3.044   0.242  0.3578  0.3815  1.2034
 6138SOL    HW219196   6.615   3.045   0.147 -0.5487  1.7600  0.0433
 6139SOL     OW19197   5.734   1.029   4.839 -0.0273  0.9439  0.7517
 6139SOL    HW119198   5.712   1.020   4.746  0.7805  0.9242  0.5515
 6139SOL    HW219199   5.733   0.940   4.872  2.9708  0.4984 -0.0476
 6140SOL     OW19200   1.370   1.443   6.966  0.4256  0.3521  0.8086
 6140SOL    HW119201   1.364   1.406   7.054 -0.2660 -0.2192  0.5401
 6140SOL    HW219202   1.282   1.478   6.949  0.9629  1.8323  0.9148
 6141SOL     OW19203   4.811   2.217   7.111 -0.2281 -0.2658  0.3062
 6141SOL    HW119204   4.807   2.189   7.019 -0.2098 -1.2817  0.5963
 6141SOL    HW219205   4.834   2.309   7.108 -0.2574 -0.2862 -0.7173
 6142SOL     OW19206   7.624   7.061   0.097 -0.3962  0.0746 -0.0256
 6142SOL    HW119207   7.626   7.017   0.013  2.1302 -0.5724  0.2948
 6142SOL    HW219208   7.660   7.148   0.080 -1.4812  0.5732  0.1102
 6143SOL     OW19209   6.934   7.073   5.429 -0.1813 -0.4494 -0.2216
 6143SOL    HW119210   6.843   7.101   5.436 -0.1749 -0.0269 -1.5638
 6143SOL    HW219211   6.983   7.138   5.481 -0.5382 -0.0669 -0.3645
 6144SOL     OW19212   5.005   7.194   1.365  0.0546  0.3793  0.1951
 6144SOL    HW119213   4.938   7.220   1.429  0.3150 -0.4494  0.8159
 6144SOL    HW219214   4.969   7.115   1.324  1.1111 -0.7106  1.3020
 6145SOL     OW19215   0.697   5.825   8.282  0.1859  0.2057  0.6649
 6145SOL    HW119216   0.733   5.831   8.194  0.0348 -0.9761  0.4972
 6145SOL    HW219217   0.772   5.804   8.338  0.0440 -0.6261  0.5615
 6146SOL     OW19218   3.848   3.910   5.901  0.2408 -0.5621  0.7461
 6146SOL    HW119219   3.806   3.920   5.816 -1.8687 -2.1903  1.5200
 6146SOL    HW219220   3.889   3.995   5.918  0.4357 -0.1094 -1.7230
 6147SOL     OW19221   8.197   0.223   8.037 -0.0101 -0.6123  0.4288
 6147SOL    HW119222   8.202   0.217   8.132  4.0004  1.1826  0.5359
 6147SOL    HW219223   8.288   0.221   8.008 -1.0966 -2.7123 -3.5941
 6148SOL     OW19224   6.184   0.387   6.575  0.5141 -0.3194 -0.0280
 6148SOL    HW119225   6.127   0.337   6.633 -0.4208 -1.4370 -1.8111
 6148SOL    HW219226   6.176   0.477   6.606 -0.5938 -0.7539  1.0543
 6149SOL     OW19227   4.531   2.896   1.932 -0.5258 -0.0052 -0.1786
 6149SOL    HW119228   4.484   2.818   1.961 -0.9467  0.4772  0.4718
 6149SOL    HW219229   4.605   2.904   1.992 -1.1446  0.7400  0.5106
 6150SOL     OW19230   5.665   0.150   7.728  0.4043  0.4552  0.0795
 6150SOL    HW119231   5.689   0.190   7.812  0.5337 -0.7095  0.6132
 6150SOL    HW219232   5.570   0.157   7.724  0.3957  0.4939  0.3394
 6151SOL     OW19233   1.779   3.275   4.602  0.1250  0.1662  0.6724
 6151SOL    HW119234   1.789   3.294   4.695  1.4803 -0.9551  0.7997
 6151SOL    HW219235   1.865   3.295   4.565 -0.0149 -0.6365 -0.1067
 6152SOL     OW19236   6.718   5.935   5.119 -0.5023 -0.3683  0.0490
 6152SOL    HW119237   6.728   5.982   5.037 -2.0905  1.0020  0.5889
 6152SOL    HW219238   6.689   5.848   5.093  0.2171 -0.3464 -0.8776
 6153SOL     OW19239   3.951   6.728   6.118 -0.7313 -0.2255  0.1365
 6153SOL    HW119240   4.041   6.751   6.097  0.2370 -0.6229  3.3235
 6153SOL    HW219241   3.938   6.642   6.078  0.5255 -0.4141  0.0993
 6154SOL     OW19242   3.614   0.700   3.159  0.0358 -0.4975  0.3718
 6154SOL    HW119243   3.707   0.716   3.145  0.0872 -1.4657 -0.4167
 6154SOL    HW219244   3.603   0.606   3.146 -1.4411 -0.0742 -1.8141
 6155SOL     OW19245   0.484   4.393   6.405 -0.1251  0.4154 -0.5784
 6155SOL    HW119246   0.521   4.406   6.492 -2.4625  3.8836  0.0859
 6155SOL    HW219247   0.430   4.314   6.414  1.2099 -0.4347  0.4650
 6156SOL     OW19248   0.826   2.320   5.764 -0.4217  0.0692 -0.6194
 6156SOL    HW119249   0.850   2.274   5.683  2.1805  1.1839 -0.5643
 6156SOL    HW219250   0.857   2.262   5.834  0.8888  0.8491 -0.5221
 6157SOL     OW19251   8.078   7.174   8.313 -0.2457  0.0278  0.5714
 6157SOL    HW119252   8.024   7.098   8.336 -2.4013  0.7500 -1.6604
 6157SOL    HW219253   8.117   7.201   8.396 -3.1697 -0.7021  2.3343
 6158SOL     OW19254   3.171   2.449   6.457  0.0459  0.3199  0.0800
 6158SOL    HW119255   3.240   2.513   6.475 -0.9373  1.7271 -0.9584
 6158SOL    HW219256   3.120   2.488   6.386 -0.6853 -1.5667 -0.4893
 6159SOL     OW19257   4.683   3.833   4.063 -0.3794  0.1693 -0.2640
 6159SOL    HW119258   4.645   3.782   3.992 -0.7396 -0.7478  0.5700
 6159SOL    HW219259   4.617   3.833   4.132  0.5232 -0.1988  0.6368
 6160SOL     OW19260   3.269   6.278   3.046 -0.1806 -0.0100  0.4757
 6160SOL    HW119261   3.306   6.324   2.970 -1.6066  0.8570  0.2671
 6160SOL    HW219262   3.246   6.191   3.012 -0.1489  0.1289  0.0947
 6161SOL     OW19263   0.969   0.145   2.145 -0.2006  0.0677 -0.8767
 6161SOL    HW119264   0.942   0.086   2.216 -1.1746  1.0060 -0.4367
 6161SOL    HW219265   0.971   0.089   2.067  0.1213 -0.8127 -0.2582
 6162SOL     OW19266   4.422   2.273   6.238  0.0848  0.4043 -0.0834
 6162SOL    HW119267   4.368   2.215   6.184 -0.2315 -0.7262  1.3986
 6162SOL    HW219268   4.364   2.304   6.307  0.7802  0.9299  0.2762
 6163SOL     OW19269   1.258   5.522   6.021  0.2934  0.2584 -0.3350
 6163SOL    HW119270   1.197   5.451   6.043  1.4062 -0.1706  1.5177
 6163SOL    HW219271   1.328   5.478   5.973  0.7944  0.1463  0.4830
 6164SOL     OW19272   4.247   4.928   0.265 -0.3360  0.6296  0.5328
 6164SOL    HW119273   4.335   4.959   0.286  1.2611 -1.4900 -2.3198
 6164SOL    HW219274   4.245   4.924   0.169 -3.4503  0.2734  0.5173
 6165SOL     OW19275   0.578   7.052   6.026  0.7303  0.3545 -0.2933
 6165SOL    HW119276   0.591   6.992   6.100 -0.3998 -1.2251 -1.3096
 6165SOL    HW219277   0.564   7.137   6.066 -0.0701 -0.5059  1.3357
 6166SOL     OW19278   4.931   3.050   0.434 -0.1565 -0.6054  0.3100
 6166SOL    HW119279   4.861   3.113   0.421 -0.9145 -1.6038 -0.6414
 6166SOL    HW219280   5.004   3.083   0.381 -1.4325 -1.8438 -2.3985
 6167SOL     OW19281   1.507   3.739   6.316  0.3880 -0.3288  0.1049
 6167SOL    HW119282   1.536   3.692   6.238  1.2648 -1.5370  1.1085
 6167SOL    HW219283   1.578   3.728   6.378  0.1844  1.5688  0.7122
 6168SOL     OW19284   2.176   4.339   7.524 -0.1123  0.3030 -0.2662
 6168SOL    HW119285   2.089   4.325   7.487  1.3108 -1.3578 -3.4306
 6168SOL    HW219286   2.209   4.417   7.480  0.9659 -0.6971 -1.3380
 6169SOL     OW19287   8.186   4.225   4.690  0.2162  0.0694  0.0648
 6169SOL    HW119288   8.200   4.130   4.688 -0.5445 -0.0409 -0.9457
 6169SOL    HW219289   8.267   4.262   4.654  1.9330  0.0539  3.4843
 6170SOL     OW19290   3.314   2.913   7.802 -0.0475 -0.0353 -0.0379
 6170SOL    HW119291   3.387   2.894   7.860  0.6223  1.2677 -0.4089
 6170SOL    HW219292   3.249   2.954   7.859  0.2147  0.3662 -0.0264
 6171SOL     OW19293   2.118   1.567   3.568  0.3096  0.7874 -0.4397
 6171SOL    HW119294   2.202   1.550   3.526 -0.5278 -1.2832 -1.3981
 6171SOL    HW219295   2.057   1.508   3.525 -1.2779  0.9225  1.4821
 6172SOL     OW19296   1.883   5.441   1.493 -0.3806  0.9967  0.3984
 6172SOL    HW119297   1.871   5.348   1.471 -0.7085  0.8647  1.0779
 6172SOL    HW219298   1.917   5.481   1.414 -2.0430  0.6651 -0.5217
 6173SOL     OW19299   0.738   4.193   7.942 -0.0399 -0.5972  0.4811
 6173SOL    HW119300   0.811   4.155   7.991 -0.3955  0.0172  1.5267
 6173SOL    HW219301   0.666   4.195   8.005 -0.4553  0.3952 -0.0082
 6174SOL     OW19302   3.328   6.629   3.289  0.0876  0.2861 -0.3314
 6174SOL    HW119303   3.325   6.716   3.328 -2.1266  0.1500 -0.1008
 6174SOL    HW219304   3.301   6.642   3.198 -1.0132 -0.2231 -0.0951
 6175SOL     OW19305   3.454   6.031   7.777  0.2203  0.0432 -0.0297
 6175SOL    HW119306   3.385   6.088   7.810 -0.3654 -0.7147  0.0682
 6175SOL    HW219307   3.457   5.958   7.839  0.0015 -0.7452 -0.9281
 6176SOL     OW19308   7.992   7.075   4.240 -0.1503 -0.2277 -0.4447
 6176SOL    HW119309   7.921   7.012   4.256  1.0577 -2.2247 -2.3219
 6176SOL    HW219310   8.071   7.029   4.267  1.0033 -0.4872 -3.7974
 6177SOL     OW19311   4.681   1.497   5.328 -0.3760  0.1734 -0.3306
 6177SOL    HW119312   4.694   1.589   5.305 -0.3953  0.1153 -0.5713
 6177SOL    HW219313   4.590   1.479   5.305  0.0868 -0.3708 -1.8816
 6178SOL     OW19314   7.990   0.121   7.703 -0.2017  0.2357  0.0740
 6178SOL    HW119315   7.927   0.188   7.676 -1.3928 -0.7330  0.3533
 6178SOL    HW219316   8.076   0.164   7.694 -0.8624  1.4816 -0.6286
 6179SOL     OW19317   5.211   3.379   6.418 -0.2077  0.0117  0.6566
 6179SOL    HW119318   5.246   3.347   6.501  2.2078 -0.7391 -0.5443
 6179SOL    HW219319   5.282   3.431   6.381 -0.4796 -1.1603 -1.7210
 6180SOL     OW19320   0.507   1.886   7.311  0.3667 -0.7445  0.3614
 6180SOL    HW119321   0.586   1.940   7.308 -0.1791  0.0237 -1.4242
 6180SOL    HW219322   0.436   1.947   7.291 -0.7092 -1.4160  1.9685
 6181SOL     OW19323   7.145   5.366   6.610  0.6261  0.2192  0.5883
 6181SOL    HW119324   7.130   5.458   6.634 -0.4198  0.1809  0.1617
 6181SOL    HW219325   7.057   5.329   6.602  1.0318 -0.7513  0.4706
 6182SOL     OW19326   0.429   1.253   7.203 -0.2918 -0.3538 -0.5533
 6182SOL    HW119327   0.495   1.273   7.136  0.3467  0.4961  0.2888
 6182SOL    HW219328   0.468   1.285   7.285 -1.7411  0.1509 -0.0241
 6183SOL     OW19329   4.294   6.159   2.086 -0.1138  0.0766 -0.3005
 6183SOL    HW119330   4.310   6.159   2.180  0.2284  0.6676 -0.3544
 6183SOL    HW219331   4.293   6.252   2.062 -1.9004  0.0212 -0.5967
 6184SOL     OW19332   2.921   0.782   2.174 -0.2384  0.0116  0.3207
 6184SOL    HW119333   2.879   0.853   2.126  0.2183  0.4008  0.4856
 6184SOL    HW219334   3.003   0.820   2.206 -0.0214 -0.5703  0.4693
 6185SOL     OW19335   4.702   0.461   5.283  0.3716 -0.2394  0.0818
 6185SOL    HW119336   4.686   0.534   5.343  0.1150 -1.4639  1.5577
 6185SOL    HW219337   4.652   0.483   5.204 -1.5946  0.0941  1.3670
 6186SOL     OW19338   1.144   3.907   0.877 -0.7194  0.2087 -0.3368
 6186SOL    HW119339   1.151   3.872   0.966  1.4782  1.0581 -0.1220
 6186SOL    HW219340   1.121   3.831   0.823 -1.1093 -0.5085  0.8080
 6187SOL     OW19341   1.303   4.143   0.502 -0.1391 -0.0230 -0.3812
 6187SOL    HW119342   1.277   4.181   0.586 -0.7857  1.0666 -1.0600
 6187SOL    HW219343   1.221   4.116   0.461  0.3276 -3.4194  0.5991
 6188SOL     OW19344   1.247   5.398   1.869 -0.0355 -0.0701  0.0997
 6188SOL    HW119345   1.195   5.332   1.914 -0.8579  0.9370  0.6629
 6188SOL    HW219346   1.282   5.353   1.792 -1.9274 -0.7213 -0.4248
 6189SOL     OW19347   5.998   7.177   5.477  0.1091 -0.2936  0.0087
 6189SOL    HW119348   6.048   7.249   5.440 -0.1991  0.4474  0.9846
 6189SOL    HW219349   5.995   7.111   5.407 -0.6725  1.1373 -1.3664
 6190SOL     OW19350   3.438   7.656   7.411 -0.2074 -0.4826  0.0943
 6190SOL    HW119351   3.526   7.659   7.449 -0.9817 -0.2615  1.9653
 6190SOL    HW219352   3.381   7.686   7.482 -1.9436 -1.9143 -0.6487
 6191SOL     OW19353   1.319   6.853   6.619 -0.3159  0.1519 -0.1734
 6191SOL    HW119354   1.350   6.857   6.529 -1.3087 -0.1186 -0.5397
 6191SOL    HW219355   1.255   6.924   6.625 -1.4342 -0.8382 -0.1575
 6192SOL     OW19356   1.095   6.654   3.587 -0.0848  0.0401  0.0405
 6192SOL    HW119357   1.011   6.624   3.551  0.9028 -0.7436 -1.6825
 6192SOL    HW219358   1.099   6.747   3.564 -0.0471 -0.1482 -0.7087
 6193SOL     OW19359   2.400   2.419   8.009 -0.0957  0.2220  1.0986
 6193SOL    HW119360   2.490   2.388   8.017 -0.5167 -1.5985 -0.4517
 6193SOL    HW219361   2.408   2.512   7.988  1.4306  0.0071  0.6252
 6194SOL     OW19362   3.688   6.484   7.910 -0.2232 -0.4804  0.3743
 6194SOL    HW119363   3.712   6.535   7.987 -1.3160  1.5779 -0.5670
 6194SOL    HW219364   3.757   6.419   7.902  1.3433  0.9455  1.5721
 6195SOL     OW19365   4.605   7.747   5.479  0.3375  0.4707  0.0730
 6195SOL    HW119366   4.565   7.796   5.406  1.4525  1.3527  0.0217
 6195SOL    HW219367   4.546   7.763   5.553  0.5719  1.7778  0.0103
 6196SOL     OW19368   3.639   0.375   0.035 -0.4393  0.1879  0.2633
 6196SOL    HW119369   3.660   0.300  -0.021  0.1237  1.2335 -0.9730
 6196SOL    HW219370   3.704   0.441   0.014 -0.7821  0.9681  1.4991
 6197SOL     OW19371   5.614   6.602   0.929 -0.3009 -0.0979 -0.0400
 6197SOL    HW119372   5.699   6.600   0.885 -0.2005 -1.9277  0.1763
 6197SOL    HW219373   5.552   6.628   0.860  0.3249  0.6016 -0.3545
 6198SOL     OW19374   0.627   4.463   5.334 -0.2222 -0.6953 -0.1784
 6198SOL    HW119375   0.684   4.519   5.386 -0.8829  1.7784 -1.9134
 6198SOL    HW219376   0.538   4.493   5.355 -0.5503 -0.4125 -1.8127
 6199SOL     OW19377   3.162   3.951   8.266  0.5292  0.0947  0.2319
 6199SOL    HW119378   3.115   4.034   8.254  1.4056  0.6022  0.2284
 6199SOL    HW219379   3.093   3.885   8.272 -0.1534  0.6066 -1.4288
 6200SOL     OW19380   7.364   1.503   5.248  0.1935 -0.2524 -0.1586
 6200SOL    HW119381   7.288   1.497   5.190  1.4240  0.0602 -1.8903
 6200SOL    HW219382   7.373   1.596   5.267  0.1470 -0.2901  0.0516
 6201SOL     OW19383   4.017   6.800   7.356 -0.4441 -0.0471  0.3252
 6201SOL    HW119384   4.018   6.733   7.425 -1.1061  0.3163  0.7093
 6201SOL    HW219385   3.927   6.800   7.324  0.1792 -1.1848 -1.5425
 6202SOL     OW19386   4.744   8.251   7.636 -0.4100 -0.0234 -0.3373
 6202SOL    HW119387   4.663   8.287   7.671 -0.3295 -2.1421  2.3510
 6202SOL    HW219388   4.812   8.309   7.669 -0.5415 -0.6552  1.1274
 6203SOL     OW19389   4.193   3.442   2.416  0.2421 -0.2089 -0.1549
 6203SOL    HW119390   4.109   3.448   2.464  1.3246  0.4142  1.7975
 6203SOL    HW219391   4.238   3.523   2.439  0.8209  0.1603 -2.3839
 6204SOL     OW19392   4.975   8.287   2.783  0.4421 -0.0949  0.4104
 6204SOL    HW119393   4.998   8.312   2.872  1.0164  0.6258  0.0747
 6204SOL    HW219394   5.057   8.294   2.734  0.1740 -0.6574 -0.1346
 6205SOL     OW19395   0.699   6.600   7.928 -0.2377  0.2421 -0.3115
 6205SOL    HW119396   0.711   6.660   7.854 -0.1271  1.3865  0.6079
 6205SOL    HW219397   0.675   6.516   7.887  0.4320  0.6824 -1.6620
 6206SOL     OW19398   0.480   5.006   7.889 -0.4100 -0.0626 -0.2663
 6206SOL    HW119399   0.534   4.975   7.962 -0.4808 -0.7342 -0.4936
 6206SOL    HW219400   0.527   5.083   7.857 -0.6970  0.6064  0.8637
 6207SOL     OW19401   0.954   7.528   5.605  0.2628  0.2827 -0.1398
 6207SOL    HW119402   0.870   7.525   5.649  0.9273  0.2887  1.1794
 6207SOL    HW219403   0.982   7.437   5.600 -0.3539  0.1581 -1.6746
 6208SOL     OW19404   0.396   0.843   6.600  0.3525 -0.0298 -0.6313
 6208SOL    HW119405   0.472   0.795   6.634  0.3702  1.2561  1.2679
 6208SOL    HW219406   0.420   0.863   6.509  2.0156 -0.1997 -0.2723
 6209SOL     OW19407   7.508   1.215   4.040 -0.2010 -0.1282  0.6584
 6209SOL    HW119408   7.474   1.220   3.950  1.3756  1.4512  0.0860
 6209SOL    HW219409   7.581   1.154   4.034  0.1049  0.2215  0.7775
 6210SOL     OW19410   7.224   0.349   3.649  0.0534 -0.5264  0.5427
 6210SOL    HW119411   7.142   0.331   3.603 -1.2736 -3.5356  3.6226
 6210SOL    HW219412   7.274   0.268   3.640  2.5453  1.0533 -0.7522
 6211SOL     OW19413   1.866   6.745   2.858 -0.4803 -0.3822  0.4517
 6211SOL    HW119414   1.934   6.720   2.921 -0.5091  2.0536  1.5507
 6211SOL    HW219415   1.822   6.663   2.837 -0.2160 -1.3849  3.3134
 6212SOL     OW19416   0.367   7.462   1.993  0.6978 -0.1710  0.2954
 6212SOL    HW119417   0.430   7.504   2.052  0.2352  1.4169 -0.3168
 6212SOL    HW219418   0.409   7.462   1.908  1.4957 -2.7487  0.5842
 6213SOL     OW19419   4.204   4.255   2.222  0.4799 -0.1038 -0.6200
 6213SOL    HW119420   4.152   4.180   2.252 -0.6123 -0.4031 -3.0246
 6213SOL    HW219421   4.159   4.331   2.259  0.1223 -0.4994 -0.2179
 6214SOL     OW19422   7.074   1.847   1.673  0.0229 -0.2615 -0.8350
 6214SOL    HW119423   7.144   1.896   1.716  0.3323 -1.1099 -0.3500
 6214SOL    HW219424   7.087   1.863   1.580 -0.6088  1.5365 -0.6451
 6215SOL     OW19425   0.925   8.179   5.449  0.3816  0.0871 -0.3093
 6215SOL    HW119426   0.969   8.223   5.522 -2.3868  0.1685  1.4707
 6215SOL    HW219427   0.892   8.097   5.486 -2.4045  0.8101 -0.9389
 6216SOL     OW19428   4.839   4.449   3.746 -0.1179 -0.3591 -0.8449
 6216SOL    HW119429   4.909   4.392   3.715 -0.5609 -0.7548 -1.1184
 6216SOL    HW219430   4.759   4.402   3.726 -0.4331 -0.6013  0.8258
 6217SOL     OW19431   1.868   0.770   4.150 -0.0643  0.3548 -0.2555
 6217SOL    HW119432   1.787   0.719   4.155 -0.5166  1.2083  1.6374
 6217SOL    HW219433   1.937   0.707   4.171 -0.5656  0.3268  1.4398
 6218SOL     OW19434   2.509   7.322   0.825 -0.5035 -0.1003  0.3840
 6218SOL    HW119435   2.509   7.227   0.837  0.0700 -0.0635  0.7079
 6218SOL    HW219436   2.456   7.336   0.746  2.3019 -0.9895 -1.8331
 6219SOL     OW19437   0.305   5.043   2.342  0.1361 -0.5254 -0.5606
 6219SOL    HW119438   0.259   4.987   2.280  0.4719 -0.0865 -1.2112
 6219SOL    HW219439   0.307   5.129   2.300 -0.3655 -0.0098  0.4143
 6220SOL     OW19440   3.442   2.022   3.445  0.0662  0.2716  0.4243
 6220SOL    HW119441   3.352   1.997   3.426  0.4162 -0.1505 -0.7604
 6220SOL    HW219442   3.457   1.990   3.534 -0.4531 -1.1343  0.0452
 6221SOL     OW19443   4.602   3.332   6.252 -0.5087 -0.3674 -0.2205
 6221SOL    HW119444   4.624   3.296   6.166  0.7243 -0.1679 -0.0114
 6221SOL    HW219445   4.608   3.427   6.240  1.3912 -0.3450  0.4614
 6222SOL     OW19446   1.749   7.397   1.436 -0.8340 -0.4495  0.2125
 6222SOL    HW119447   1.803   7.325   1.468  0.4974  0.1505 -0.5633
 6222SOL    HW219448   1.675   7.402   1.496  0.8460 -0.2303  2.3683
 6223SOL     OW19449   6.477   1.453   7.990 -0.4733 -0.0783  0.3318
 6223SOL    HW119450   6.423   1.376   7.972  0.1992 -0.2689 -0.9943
 6223SOL    HW219451   6.560   1.418   8.022 -0.1197  0.0815 -0.3963
 6224SOL     OW19452   2.548   2.338   3.674 -0.2008  0.0405 -0.0672
 6224SOL    HW119453   2.643   2.349   3.672 -0.3254  1.4141  0.7622
 6224SOL    HW219454   2.535   2.245   3.657  1.2074  0.0977 -1.8649
 6225SOL     OW19455   4.329   0.272   1.088 -0.3129  0.4351 -0.5721
 6225SOL    HW119456   4.302   0.294   1.177  0.4763  1.0659 -0.4748
 6225SOL    HW219457   4.248   0.278   1.036 -0.6276  0.8789 -0.0447
 6226SOL     OW19458   3.116   6.083   6.186  0.0361  0.2296  0.7445
 6226SOL    HW119459   3.133   6.157   6.129 -0.7198 -0.8232 -0.9320
 6226SOL    HW219460   3.200   6.038   6.194  0.0642  0.1520  0.0760
 6227SOL     OW19461   6.801   6.853   7.210 -0.5988  0.4933 -0.1387
 6227SOL    HW119462   6.854   6.797   7.154 -1.2710 -0.1207 -0.1744
 6227SOL    HW219463   6.818   6.941   7.179  1.3098  0.4333  0.6027
 6228SOL     OW19464   4.993   7.418   7.809 -0.0282 -0.4826  0.4722
 6228SOL    HW119465   4.993   7.378   7.896 -1.2019  0.5007  0.9545
 6228SOL    HW219466   4.901   7.432   7.789  0.2325  3.7699  1.2585
 6229SOL     OW19467   7.296   6.570   6.276  0.1227 -0.7491 -0.1043
 6229SOL    HW119468   7.320   6.520   6.198 -2.4876 -0.4395 -1.2106
 6229SOL    HW219469   7.249   6.647   6.242 -1.8066 -1.0252  1.7148
 6230SOL     OW19470   7.203   4.606   8.153  0.4867 -0.0064  0.3910
 6230SOL    HW119471   7.296   4.617   8.132  0.2089  0.3151 -0.7226
 6230SOL    HW219472   7.177   4.690   8.191  1.0510 -0.6716  2.3614
 6231SOL     OW19473   4.682   2.732   7.519 -0.7435  0.5849  0.0203
 6231SOL    HW119474   4.691   2.637   7.532 -0.1852  0.5796 -0.4026
 6231SOL    HW219475   4.766   2.760   7.485  0.5643  1.8646  3.7765
 6232SOL     OW19476   2.473   0.217   7.221  0.0754 -0.3822 -0.2019
 6232SOL    HW119477   2.391   0.266   7.232 -0.3841 -0.9443 -0.9784
 6232SOL    HW219478   2.511   0.253   7.141 -1.2092 -2.5213 -1.8615
 6233SOL     OW19479   1.573   4.334   6.958 -0.1414  0.1659 -0.0557
 6233SOL    HW119480   1.524   4.375   7.029 -1.0244 -0.0246 -0.5398
 6233SOL    HW219481   1.603   4.407   6.904 -0.6299  0.2499 -0.2216
 6234SOL     OW19482   5.485   0.702   3.924  0.4098 -0.6045 -0.9202
 6234SOL    HW119483   5.394   0.672   3.921  0.5426 -1.2054  0.4626
 6234SOL    HW219484   5.533   0.640   3.870  0.2900 -1.4539 -0.0753
 6235SOL     OW19485   0.446   2.151   0.960 -1.0289  0.0249 -0.7549
 6235SOL    HW119486   0.414   2.119   0.876 -0.5198  0.3562 -1.0786
 6235SOL    HW219487   0.385   2.221   0.983  0.7281  2.2881 -2.5151
 6236SOL     OW19488   6.319   0.309   0.431  0.0708 -0.2784  0.9621
 6236SOL    HW119489   6.252   0.242   0.414 -1.9904  1.7771  0.3432
 6236SOL    HW219490   6.317   0.364   0.352  1.0248  1.0302  1.8156
 6237SOL     OW19491   5.401   0.025   4.165 -0.1988  0.0348 -0.0285
 6237SOL    HW119492   5.405  -0.021   4.081  2.7679  0.9903 -0.5395
 6237SOL    HW219493   5.491   0.021   4.199 -0.6584  2.1838  1.7136
 6238SOL     OW19494   7.224   0.491   3.887 -0.2983 -0.1793 -0.1669
 6238SOL    HW119495   7.296   0.550   3.868  0.6943 -0.7968  1.4164
 6238SOL    HW219496   7.198   0.454   3.802 -0.0881  1.5215 -0.9983
 6239SOL     OW19497   1.426   6.280   1.104 -0.3573 -0.6784  0.2401
 6239SOL    HW119498   1.364   6.324   1.161  1.3113 -0.2063  1.8097
 6239SOL    HW219499   1.465   6.350   1.052 -1.0175 -0.9571 -0.6614
 6240SOL     OW19500   0.410   5.905   4.762  0.1833  0.1359  0.3112
 6240SOL    HW119501   0.321   5.940   4.762 -0.2529 -0.7309 -2.2090
 6240SOL    HW219502   0.439   5.914   4.671  2.0251 -1.1416  0.7196
 6241SOL     OW19503   0.900   1.272   6.763 -1.1427 -0.5796 -0.3220
 6241SOL    HW119504   0.942   1.313   6.687 -1.7207  0.7427  0.0439
 6241SOL    HW219505   0.973   1.234   6.813 -0.4513  0.8243 -0.2037
 6242SOL     OW19506   0.615   5.720   0.734  0.1459 -0.2610  0.4074
 6242SOL    HW119507   0.597   5.754   0.646  0.1675 -0.6353  0.2538
 6242SOL    HW219508   0.630   5.798   0.787 -1.4643  0.0588  0.4471
 6243SOL     OW19509   4.826   2.193   3.859  0.0038  0.3016 -0.1445
 6243SOL    HW119510   4.739   2.232   3.867  0.2301  0.9886 -0.9229
 6243SOL    HW219511   4.862   2.230   3.779  1.0658  0.1145  0.2295
 6244SOL     OW19512   3.121   7.447   5.249 -0.3666  0.5695  0.2489
 6244SOL    HW119513   3.153   7.492   5.327  2.6271 -1.3008  0.3017
 6244SOL    HW219514   3.100   7.358   5.280 -2.0655  0.6591 -0.5664
 6245SOL     OW19515   1.803   6.999   1.453 -0.5693  0.4732 -0.7537
 6245SOL    HW119516   1.804   6.996   1.357 -0.7618  2.3517 -0.8518
 6245SOL    HW219517   1.744   7.071   1.474 -1.1156 -0.3909  0.8176
 6246SOL     OW19518   3.739   2.025   6.934  0.0627 -0.2891 -0.1871
 6246SOL    HW119519   3.661   2.077   6.919  0.5129  0.7016  0.7563
 6246SOL    HW219520   3.740   2.009   7.029 -0.0974 -2.0822 -0.4681
 6247SOL     OW19521   4.708   2.331   5.164  1.0135 -0.1821  0.2438
 6247SOL    HW119522   4.740   2.421   5.160 -3.1099  1.5458  1.3742
 6247SOL    HW219523   4.713   2.307   5.257  0.5779 -0.4876  0.1935
 6248SOL     OW19524   5.951   2.587   4.501  0.0828 -0.0092 -0.7685
 6248SOL    HW119525   5.964   2.494   4.519 -1.1972  0.1579  1.3032
 6248SOL    HW219526   5.866   2.592   4.459 -0.5454  0.3356  0.5078
 6249SOL     OW19527   4.170   8.009   2.226 -0.1261 -0.5038  0.2701
 6249SOL    HW119528   4.163   7.916   2.203  0.7617 -0.4956 -0.0593
 6249SOL    HW219529   4.087   8.029   2.268 -0.9745 -1.0491 -1.0787
 6250SOL     OW19530   2.725   3.157   5.881 -0.3080  0.6954 -0.6199
 6250SOL    HW119531   2.813   3.121   5.871 -1.0738 -1.1515 -1.0556
 6250SOL    HW219532   2.683   3.141   5.796 -1.3096  0.8886 -0.1762
 6251SOL     OW19533   7.666   7.738   4.934  0.3424  0.5795 -0.2987
 6251SOL    HW119534   7.657   7.694   4.850 -0.0096  0.8055 -0.3840
 6251SOL    HW219535   7.576   7.745   4.966  0.2607  2.2987 -0.8361
 6252SOL     OW19536   3.663   1.693   3.338  0.0227  0.0356 -0.0756
 6252SOL    HW119537   3.611   1.665   3.413 -0.7546 -0.7061 -0.8609
 6252SOL    HW219538   3.742   1.639   3.341 -0.7372 -1.1615 -0.6695
 6253SOL     OW19539   0.442   3.308   3.098  0.3797  0.5740 -0.3601
 6253SOL    HW119540   0.522   3.351   3.128  1.0711 -0.9221  0.0042
 6253SOL    HW219541   0.464   3.215   3.092 -0.9078  0.3060 -1.6845
 6254SOL     OW19542   4.580   5.509   0.250  0.0373  0.0335  0.2977
 6254SOL    HW119543   4.566   5.582   0.189  1.6044 -0.6714 -0.9934
 6254SOL    HW219544   4.612   5.551   0.330 -0.0338  0.8282 -0.0759
 6255SOL     OW19545   5.627   8.282   1.578 -0.7645  0.4735 -0.2659
 6255SOL    HW119546   5.678   8.303   1.500 -1.1922  2.1998 -0.1139
 6255SOL    HW219547   5.579   8.202   1.554 -1.5477  1.4429 -2.1060
 6256SOL     OW19548   7.594   7.057   7.610  0.1862  0.1603 -0.8256
 6256SOL    HW119549   7.564   6.971   7.581 -0.1099  0.1995 -0.6437
 6256SOL    HW219550   7.664   7.038   7.673 -1.5183 -0.0526  1.1409
 6257SOL     OW19551   6.455   2.284   0.478 -0.4782 -0.5192 -0.0037
 6257SOL    HW119552   6.457   2.272   0.573 -2.3950 -1.4402 -0.0309
 6257SOL    HW219553   6.473   2.377   0.465  0.0460 -0.4318  1.2445
 6258SOL     OW19554   5.261   4.505   2.295  0.4747  0.0948  0.0269
 6258SOL    HW119555   5.274   4.599   2.308  0.2609  0.1658 -0.2755
 6258SOL    HW219556   5.168   4.491   2.314  0.6041 -0.1368  0.5335
 6259SOL     OW19557   6.801   4.813   6.276 -0.2004 -0.1320  0.0870
 6259SOL    HW119558   6.760   4.880   6.221 -0.5568 -1.6135 -1.5276
 6259SOL    HW219559   6.828   4.745   6.215 -0.7374 -1.9317  1.7648
 6260SOL     OW19560   3.514   3.530   5.515  0.7652  0.1989  0.0509
 6260SOL    HW119561   3.432   3.560   5.475  0.8577  1.9095  1.0249
 6260SOL    HW219562   3.489   3.452   5.565 -0.3506  0.8827  0.6029
 6261SOL     OW19563   4.819   7.203   5.263  0.6977 -0.1297 -0.3699
 6261SOL    HW119564   4.766   7.277   5.293 -1.4106 -0.9686 -1.8009
 6261SOL    HW219565   4.854   7.232   5.179  1.0437 -0.2349 -0.2602
 6262SOL     OW19566   8.302   1.839   4.217  0.3123  0.2144 -0.0722
 6262SOL    HW119567   8.211   1.858   4.194  0.2894  0.9860  0.6463
 6262SOL    HW219568   8.305   1.743   4.224 -0.0110  0.0366 -1.8593
 6263SOL     OW19569   4.678   3.721   8.119 -0.2624  0.2757 -0.0126
 6263SOL    HW119570   4.652   3.726   8.027 -1.5237 -1.3068  0.2182
 6263SOL    HW219571   4.774   3.726   8.116 -0.1874 -1.1838 -1.5630
 6264SOL     OW19572   2.871   7.205   4.998 -0.0321  0.2308  0.1881
 6264SOL    HW119573   2.896   7.161   4.916  1.0441 -0.6668  0.9671
 6264SOL    HW219574   2.878   7.137   5.065  2.5282  1.7026  1.5808
 6265SOL     OW19575   7.946   7.883   7.673  0.0624 -0.3665  0.1603
 6265SOL    HW119576   7.861   7.841   7.686  1.0369 -1.7306  2.6414
 6265SOL    HW219577   7.961   7.932   7.754  0.4121  2.3052 -1.3874
 6266SOL     OW19578   8.117   7.040   3.227  0.2561 -0.0532  0.2365
 6266SOL    HW119579   8.090   7.062   3.138  1.9386  1.8852  0.1120
 6266SOL    HW219580   8.087   7.114   3.280  1.4389  0.0401  0.8075
 6267SOL     OW19581   7.484   2.361   5.303  0.1356 -0.6102 -0.0172
 6267SOL    HW119582   7.576   2.347   5.324  0.2287 -0.5821 -0.3974
 6267SOL    HW219583   7.440   2.364   5.388  0.6436  0.5198  0.2257
 6268SOL     OW19584   2.516   0.214   0.981 -0.1152 -0.1523  0.4929
 6268SOL    HW119585   2.590   0.219   1.041 -0.4950 -0.3789  0.9993
 6268SOL    HW219586   2.539   0.271   0.908  1.2625 -1.4467 -0.1389
 6269SOL     OW19587   6.075   3.007   6.236  0.2255 -0.2966  0.5681
 6269SOL    HW119588   6.116   3.046   6.313 -2.3158  1.2170  1.2665
 6269SOL    HW219589   6.115   2.920   6.230  3.3649  0.9428  1.1667
 6270SOL     OW19590   4.488   7.305   3.684 -0.0224 -0.6054  0.3117
 6270SOL    HW119591   4.396   7.278   3.680 -0.2843  0.3059  0.1402
 6270SOL    HW219592   4.505   7.345   3.599 -0.3864  2.0753  1.4054
 6271SOL     OW19593   3.180   2.660   4.781  0.4166 -0.3416  0.0295
 6271SOL    HW119594   3.150   2.639   4.693  0.5739 -0.1799 -0.0627
 6271SOL    HW219595   3.101   2.686   4.828  0.8166  3.7324 -1.2169
 6272SOL     OW19596   2.284   4.402   3.133  0.0568  0.2486 -0.1836
 6272SOL    HW119597   2.275   4.484   3.084  1.7636  1.1889  0.9391
 6272SOL    HW219598   2.320   4.429   3.218 -0.1501 -1.5936  0.5386
 6273SOL     OW19599   1.054   6.943   6.319 -0.5716 -0.1682 -0.3519
 6273SOL    HW119600   0.962   6.962   6.337 -0.4459 -0.6851  0.8723
 6273SOL    HW219601   1.057   6.933   6.223 -1.1236  3.3323 -0.8681
 6274SOL     OW19602   4.710   0.456   2.960  1.0987  0.4213 -0.1784
 6274SOL    HW119603   4.670   0.469   2.874  0.0907 -0.0406  0.1944
 6274SOL    HW219604   4.784   0.397   2.944  1.3532  0.9104 -0.8220
 6275SOL     OW19605   6.711   3.272   7.596  0.1661 -0.0390  0.3986
 6275SOL    HW119606   6.689   3.193   7.645 -1.1494 -0.3706 -0.6482
 6275SOL    HW219607   6.721   3.339   7.663 -2.0619 -0.3641  1.1559
 6276SOL     OW19608   1.067   4.068   0.363 -0.3576 -0.0457  0.3039
 6276SOL    HW119609   1.037   4.047   0.275  2.0987 -1.3044 -0.3090
 6276SOL    HW219610   1.020   4.007   0.420 -2.4326  1.1933  0.0261
 6277SOL     OW19611   8.319   6.329   4.539  0.2335 -0.1519 -0.1121
 6277SOL    HW119612   8.351   6.417   4.559 -1.2020  0.8783 -2.0795
 6277SOL    HW219613   8.296   6.332   4.446 -0.8234 -2.3075  0.0165
 6278SOL     OW19614   4.778   7.871   0.156  0.0185 -0.4146 -0.0510
 6278SOL    HW119615   4.874   7.865   0.162  0.0461 -0.3501 -0.3899
 6278SOL    HW219616   4.746   7.823   0.231  0.2654 -2.9426 -1.4618
 6279SOL     OW19617   2.017   2.900   6.964  0.1099  0.4044 -0.0176
 6279SOL    HW119618   1.980   2.988   6.968  0.2703  0.4954 -0.4551
 6279SOL    HW219619   1.945   2.842   6.989 -0.6125  0.5033 -1.7298
 6280SOL     OW19620   6.536   7.720   8.049  0.0021  0.1564  0.2348
 6280SOL    HW119621   6.607   7.773   8.086  2.3478 -0.4511 -3.0202
 6280SOL    HW219622   6.550   7.633   8.085  0.7630  0.1095 -0.1517
 6281SOL     OW19623   4.119   4.022   1.493  0.0451  0.2076 -0.0719
 6281SOL    HW119624   4.141   4.015   1.586  1.9290 -0.7571 -0.5455
 6281SOL    HW219625   4.159   4.104   1.465  0.3087  0.0315 -0.2229
 6282SOL     OW19626   5.764   0.412   5.206 -0.2158 -0.2961  0.0552
 6282SOL    HW119627   5.837   0.413   5.267 -1.1951 -0.9166  1.2969
 6282SOL    HW219628   5.778   0.488   5.149  1.5787 -0.6329 -0.0115
 6283SOL     OW19629   4.815   6.874   3.064  0.5978 -0.2363 -0.6122
 6283SOL    HW119630   4.758   6.837   3.130  1.0440 -1.0408 -0.6660
 6283SOL    HW219631   4.863   6.799   3.028  1.2028  0.3309 -1.0286
 6284SOL     OW19632   0.718   4.329   5.055  0.6728 -0.3708  0.0977
 6284SOL    HW119633   0.765   4.268   4.998 -0.9884 -1.4158 -0.2209
 6284SOL    HW219634   0.763   4.413   5.043  2.0147 -1.1587 -0.6763
 6285SOL     OW19635   3.339   1.901   7.897  0.8190 -0.4480 -0.0817
 6285SOL    HW119636   3.394   1.832   7.861 -0.2739 -1.0200 -0.7225
 6285SOL    HW219637   3.269   1.912   7.832 -0.1866 -0.2183  1.0062
 6286SOL     OW19638   6.226   4.645   6.863  0.0156  0.0553  0.6942
 6286SOL    HW119639   6.195   4.717   6.809 -2.5336 -0.2366  1.6253
 6286SOL    HW219640   6.233   4.682   6.951 -1.1655 -0.7394  1.1483
 6287SOL     OW19641   4.219   3.103   4.642 -0.3733  0.3349 -0.2853
 6287SOL    HW119642   4.312   3.086   4.624 -0.3657  0.2941 -0.2109
 6287SOL    HW219643   4.189   3.156   4.569 -0.7112 -1.0078 -1.1565
 6288SOL     OW19644   7.075   0.705   5.098 -0.0592 -0.4653  0.1346
 6288SOL    HW119645   7.111   0.689   5.186  0.2882 -1.1140 -0.1217
 6288SOL    HW219646   7.097   0.797   5.080  1.5401 -0.8447 -0.0261
 6289SOL     OW19647   1.546   6.399   1.389 -0.3829 -0.2999  0.1468
 6289SOL    HW119648   1.538   6.398   1.484  1.0513  0.8806  0.3283
 6289SOL    HW219649   1.459   6.423   1.357 -0.4600  1.0649  1.2674
 6290SOL     OW19650   2.283   5.702   5.216 -0.0398  0.3503  0.3291
 6290SOL    HW119651   2.269   5.795   5.233  0.2990  0.5975 -0.7150
 6290SOL    HW219652   2.209   5.676   5.162  0.2575  0.1860  0.0040
 6291SOL     OW19653   4.332   4.073   5.415  0.3863 -0.1383  0.7311
 6291SOL    HW119654   4.352   4.072   5.322  1.5936 -1.8368  0.9644
 6291SOL    HW219655   4.366   3.989   5.448 -1.3677 -0.2594  2.4122
 6292SOL     OW19656   5.521   7.379   2.382  0.3380  0.5432 -0.7100
 6292SOL    HW119657   5.450   7.397   2.443  1.6028  0.0744  0.9719
 6292SOL    HW219658   5.536   7.462   2.336 -2.0700  0.3286 -2.0316
 6293SOL     OW19659   5.937   7.596   2.899 -0.2509  0.4533 -0.0034
 6293SOL    HW119660   5.917   7.623   2.809  0.4998  1.3105  0.0660
 6293SOL    HW219661   5.979   7.511   2.890 -2.3474 -0.6113 -0.2662
 6294SOL     OW19662   6.495   3.197   6.650  0.7323  0.3221 -0.3139
 6294SOL    HW119663   6.482   3.116   6.699  0.1880  0.1255 -0.7783
 6294SOL    HW219664   6.444   3.263   6.697 -0.4587 -0.0388 -1.0486
 6295SOL     OW19665   2.577   3.015   6.913  0.0652  0.1994 -0.2680
 6295SOL    HW119666   2.522   2.945   6.949 -0.4265  0.9038  0.3852
 6295SOL    HW219667   2.521   3.093   6.915  0.5508  0.5794 -1.1296
 6296SOL     OW19668   4.261   5.410   5.967 -0.3035 -0.2954 -0.1254
 6296SOL    HW119669   4.285   5.447   6.053 -0.4938 -0.3432 -0.0521
 6296SOL    HW219670   4.301   5.470   5.904 -1.2864  0.5079 -0.0174
 6297SOL     OW19671   0.245   4.251   3.696 -0.2300 -0.1195 -0.0036
 6297SOL    HW119672   0.303   4.278   3.767 -0.4401 -0.2315  0.2111
 6297SOL    HW219673   0.249   4.323   3.633 -1.0327  0.5654  0.7053
 6298SOL     OW19674   2.758   1.248   6.043 -0.0524  0.4498  0.0200
 6298SOL    HW119675   2.788   1.157   6.044 -1.2731  0.0203 -0.5043
 6298SOL    HW219676   2.837   1.300   6.057  1.0396 -0.6059 -1.8775
 6299SOL     OW19677   8.090   3.421   4.927  0.0768  0.2179 -0.7337
 6299SOL    HW119678   8.083   3.483   4.854 -0.8401 -0.3396 -1.1446
 6299SOL    HW219679   8.136   3.470   4.996 -1.5603  1.7643 -0.6378
 6300SOL     OW19680   1.201   5.665   1.852  0.2517  0.2828  0.1957
 6300SOL    HW119681   1.243   5.693   1.770  1.0911  0.9161  0.8274
 6300SOL    HW219682   1.219   5.571   1.856  1.0780  0.4312  0.1446
 6301SOL     OW19683   4.886   7.588   5.855 -0.2416  0.3011  0.0873
 6301SOL    HW119684   4.835   7.541   5.920 -0.6639  2.2874  1.2875
 6301SOL    HW219685   4.975   7.587   5.888  0.0115 -0.7736 -0.5842
 6302SOL     OW19686   4.081   3.561   1.514  1.0709 -0.0512  0.1104
 6302SOL    HW119687   4.104   3.598   1.599 -0.4944  0.0950  0.5074
 6302SOL    HW219688   4.098   3.632   1.452  1.5439  0.0804  0.3858
 6303SOL     OW19689   6.787   0.071   5.224 -0.1488 -0.5251 -0.3300
 6303SOL    HW119690   6.711   0.129   5.231 -0.9459 -1.4861 -0.7595
 6303SOL    HW219691   6.752  -0.011   5.189  0.7465 -1.6640  1.2877
 6304SOL     OW19692   1.152   3.374   5.463  0.1551 -0.6217 -0.1098
 6304SOL    HW119693   1.111   3.382   5.377 -0.1893 -1.1752 -0.0046
 6304SOL    HW219694   1.105   3.302   5.506 -0.9373  0.8194  1.2470
 6305SOL     OW19695   0.111   7.860   0.916  0.0888 -0.0964 -0.1473
 6305SOL    HW119696   0.053   7.911   0.860 -1.6679 -0.4703  1.2101
 6305SOL    HW219697   0.199   7.883   0.889 -0.6931  1.3767 -1.5467
 6306SOL     OW19698   6.953   2.199   4.648 -0.2045 -0.1193  0.2069
 6306SOL    HW119699   6.921   2.235   4.731  0.0266  1.3534 -0.3127
 6306SOL    HW219700   6.942   2.104   4.657 -0.9007  0.0695  1.6139
 6307SOL     OW19701   2.870   3.416   3.823 -0.1615 -0.6811  0.0946
 6307SOL    HW119702   2.799   3.383   3.768 -0.9768 -1.7020  1.6741
 6307SOL    HW219703   2.844   3.505   3.845  0.0948 -0.3204 -1.0192
 6308SOL     OW19704   5.970   2.083   5.479 -0.2528 -0.6583 -0.3446
 6308SOL    HW119705   5.940   2.166   5.516 -1.9778  0.4262 -3.7250
 6308SOL    HW219706   5.906   2.018   5.511  0.8367 -0.7382  1.9253
 6309SOL     OW19707   0.058   4.202   8.002 -0.0886  0.1863 -0.3119
 6309SOL    HW119708   0.011   4.120   7.989 -1.8626  0.9970  0.5100
 6309SOL    HW219709   0.026   4.235   8.086  1.3842  1.2128 -0.1047
 6310SOL     OW19710   7.112   2.392   5.058  0.3086  0.0228  0.2263
 6310SOL    HW119711   7.023   2.390   5.023 -0.1687  0.3716  1.3990
 6310SOL    HW219712   7.149   2.473   5.024  0.5858 -0.6689 -1.1943
 6311SOL     OW19713   2.604   4.534   0.288  0.8919  0.7123 -0.4044
 6311SOL    HW119714   2.601   4.504   0.197 -0.2505 -2.2955  0.4900
 6311SOL    HW219715   2.523   4.500   0.327  3.0840 -1.5772  2.6374
 6312SOL     OW19716   7.968   4.152   3.731  0.2882 -0.0592 -0.2248
 6312SOL    HW119717   7.930   4.128   3.816 -0.7120 -0.7607 -0.8457
 6312SOL    HW219718   8.035   4.085   3.715  0.4605  0.0594 -0.0116
 6313SOL     OW19719   7.401   3.182   6.420  0.3487 -0.3274 -0.0080
 6313SOL    HW119720   7.460   3.237   6.470  0.6490  0.4484 -1.1776
 6313SOL    HW219721   7.390   3.103   6.473  2.2306 -0.3795  0.3496
 6314SOL     OW19722   4.237   0.342   6.298  0.0725 -0.1143  0.3462
 6314SOL    HW119723   4.276   0.375   6.379  2.1261 -0.0791 -0.6102
 6314SOL    HW219724   4.283   0.389   6.228  0.2644 -2.0800 -0.9268
 6315SOL     OW19725   1.110   3.696   5.722 -0.0242  0.0121  0.0887
 6315SOL    HW119726   1.189   3.676   5.672 -0.4169 -0.0339 -0.5287
 6315SOL    HW219727   1.138   3.693   5.813  0.7904  0.4313 -0.1340
 6316SOL     OW19728   4.500   1.076   6.865  0.1959  0.5735 -0.0684
 6316SOL    HW119729   4.550   1.123   6.798  2.1063  1.4961  1.8858
 6316SOL    HW219730   4.495   1.138   6.938 -0.6891 -0.8600  1.1308
 6317SOL     OW19731   4.978   8.247   1.946 -0.0877  0.1890 -0.0402
 6317SOL    HW119732   4.925   8.170   1.925 -0.5676  0.2075  1.0298
 6317SOL    HW219733   4.940   8.318   1.894  1.0243 -0.4834 -1.8627
 6318SOL     OW19734   3.762   7.002   2.252 -0.0913  0.6361  0.5430
 6318SOL    HW119735   3.676   6.979   2.217  0.5989 -1.4503  0.0691
 6318SOL    HW219736   3.798   7.064   2.189  0.0606 -1.0373 -1.0949
 6319SOL     OW19737   6.329   6.795   8.213 -0.9324 -0.5698  0.0621
 6319SOL    HW119738   6.339   6.704   8.183 -1.3067  0.2693 -2.9270
 6319SOL    HW219739   6.235   6.804   8.228 -0.9462 -0.5449 -0.0427
 6320SOL     OW19740   7.350   0.542   0.309  0.2064 -0.7123 -0.1829
 6320SOL    HW119741   7.264   0.520   0.273  0.0668 -0.9662  0.3001
 6320SOL    HW219742   7.332   0.603   0.380  0.5646  0.7168 -1.2524
 6321SOL     OW19743   0.980   5.411   7.279  0.0477 -0.1218 -0.1315
 6321SOL    HW119744   1.070   5.388   7.303 -0.4827 -0.6604  1.4980
 6321SOL    HW219745   0.942   5.329   7.247  0.4325  0.3564 -1.9157
 6322SOL     OW19746   0.064   3.587   1.338  0.7154 -0.6422 -0.4890
 6322SOL    HW119747   0.054   3.494   1.315 -1.5735 -0.1309 -1.8504
 6322SOL    HW219748  -0.017   3.610   1.382  0.1671  1.2659 -2.3579
 6323SOL     OW19749   7.953   6.293   4.763 -0.4409 -0.1240 -0.0010
 6323SOL    HW119750   8.047   6.292   4.777 -0.5398  0.6310  0.7675
 6323SOL    HW219751   7.937   6.220   4.704  0.8263  0.7469 -1.4885
 6324SOL     OW19752   6.766   5.526   5.974  0.8491  0.5362 -0.1047
 6324SOL    HW119753   6.855   5.535   5.939  0.6652  0.8402 -0.5029
 6324SOL    HW219754   6.776   5.470   6.050  1.1307 -0.9036 -1.1621
 6325SOL     OW19755   3.993   7.279   3.512  0.3573  0.1637 -0.2832
 6325SOL    HW119756   4.013   7.359   3.462 -0.4890  0.5328 -0.0440
 6325SOL    HW219757   3.898   7.273   3.511  0.4260 -1.4775 -1.2566
 6326SOL     OW19758   1.857   1.405   2.520  0.0892  0.1187 -0.1474
 6326SOL    HW119759   1.952   1.420   2.527 -0.0606  0.9528  0.1790
 6326SOL    HW219760   1.821   1.444   2.599 -0.7775  2.0909 -1.4356
 6327SOL     OW19761   4.375   2.995   1.708 -0.6871 -0.5683 -0.5243
 6327SOL    HW119762   4.316   3.047   1.762  0.0181 -0.2961  0.0054
 6327SOL    HW219763   4.447   2.971   1.767  0.6296  0.5980 -1.5742
 6328SOL     OW19764   1.921   6.253   4.416  0.3792 -0.0771 -0.1380
 6328SOL    HW119765   1.847   6.261   4.476 -0.2862 -1.5944 -0.6881
 6328SOL    HW219766   1.942   6.343   4.390 -0.9263  0.4158  0.4549
 6329SOL     OW19767   3.970   1.148   8.193 -0.5906  0.6044  0.0461
 6329SOL    HW119768   3.941   1.236   8.169  1.0572  1.5327  1.3175
 6329SOL    HW219769   3.946   1.139   8.286 -0.4284 -0.1629  0.0220
 6330SOL     OW19770   1.656   0.416   2.039  0.0612 -0.5496  0.3477
 6330SOL    HW119771   1.632   0.451   2.125  1.4361 -0.2836  0.6365
 6330SOL    HW219772   1.599   0.340   2.028 -1.7115  0.6903  0.4908
 6331SOL     OW19773   2.530   0.353   2.487 -0.0080  0.0660  0.2345
 6331SOL    HW119774   2.462   0.286   2.489  1.1087 -1.1031  1.1056
 6331SOL    HW219775   2.486   0.432   2.455 -1.6782 -0.7188  0.4939
 6332SOL     OW19776   3.014   3.957   5.522 -0.3563 -0.4033  0.1975
 6332SOL    HW119777   2.984   4.045   5.499  1.7933  0.3276  0.0067
 6332SOL    HW219778   3.055   3.924   5.443 -0.4402 -1.2635  0.5057
 6333SOL     OW19779   6.556   1.824   2.697  0.0554 -0.3372 -0.0036
 6333SOL    HW119780   6.470   1.813   2.655  0.0751  2.2577 -0.8468
 6333SOL    HW219781   6.541   1.799   2.788 -1.2205 -1.3140 -0.4470
 6334SOL     OW19782   4.322   6.938   3.057  0.1911 -0.4333  0.4017
 6334SOL    HW119783   4.258   6.899   2.997 -0.0063  0.2369  0.1648
 6334SOL    HW219784   4.339   6.870   3.122 -2.1850  0.0015  1.5700
 6335SOL     OW19785   4.833   1.371   6.804  0.1524 -0.0465 -0.1804
 6335SOL    HW119786   4.755   1.427   6.813  0.9943  1.1390  0.0292
 6335SOL    HW219787   4.871   1.368   6.892  0.8586  0.1913 -0.4660
 6336SOL     OW19788   2.168   5.682   7.224  0.0539  0.2670  0.4926
 6336SOL    HW119789   2.162   5.632   7.142 -0.3660 -0.4003  0.9254
 6336SOL    HW219790   2.082   5.724   7.233  0.2906  0.8023  0.3061
 6337SOL     OW19791   0.281   6.861   6.536  0.3082  0.1194 -0.6059
 6337SOL    HW119792   0.287   6.913   6.616 -0.6284  0.0058 -0.4530
 6337SOL    HW219793   0.264   6.926   6.467 -0.8465  0.0349 -0.4170
 6338SOL     OW19794   0.215   2.682   6.291  0.1548  0.4433 -0.3710
 6338SOL    HW119795   0.260   2.598   6.277 -0.7000  0.2463 -2.3458
 6338SOL    HW219796   0.192   2.682   6.384  0.9482 -1.1070 -0.1340
 6339SOL     OW19797   2.072   3.882   1.380 -0.7520 -0.1373 -0.1917
 6339SOL    HW119798   2.037   3.943   1.445 -0.4661  0.6084 -0.7177
 6339SOL    HW219799   1.996   3.855   1.329 -1.1128 -1.3822  0.9636
 6340SOL     OW19800   3.344   0.098   7.660 -0.1416 -0.3601 -0.0644
 6340SOL    HW119801   3.259   0.143   7.652 -0.3685 -0.9158 -0.9349
 6340SOL    HW219802   3.347   0.070   7.752 -1.8406 -2.0855 -0.4448
 6341SOL     OW19803   0.152   6.548   6.906 -0.4987 -0.4375  0.8986
 6341SOL    HW119804   0.086   6.573   6.971 -0.3785 -0.1745  0.9191
 6341SOL    HW219805   0.232   6.535   6.956 -0.0524  1.1043  0.6594
 6342SOL     OW19806   6.091   2.330   6.235 -0.3790 -0.4633 -0.2740
 6342SOL    HW119807   6.080   2.404   6.295 -1.8096 -0.9681  0.1299
 6342SOL    HW219808   6.173   2.289   6.262 -0.4150  0.0117  0.5831
 6343SOL     OW19809   3.819   4.496   4.746 -0.5285  0.1347  0.1105
 6343SOL    HW119810   3.742   4.441   4.730 -1.5931  1.6556 -0.3080
 6343SOL    HW219811   3.785   4.586   4.741  0.8218  0.8407  2.2200
 6344SOL     OW19812   5.397   5.256   4.452 -0.1309  0.3984  0.4271
 6344SOL    HW119813   5.339   5.180   4.447  1.0362 -0.5285  0.3218
 6344SOL    HW219814   5.484   5.220   4.432  1.0161  1.0919  3.5874
 6345SOL     OW19815   5.865   5.390   3.499  0.0592  0.0043  0.0813
 6345SOL    HW119816   5.888   5.300   3.523  2.2290  0.6510  0.6920
 6345SOL    HW219817   5.874   5.391   3.403 -0.8091 -0.6152 -0.0199
 6346SOL     OW19818   6.335   1.856   6.022 -0.0474  0.2677  0.2518
 6346SOL    HW119819   6.289   1.782   5.984  0.2638 -0.1339  0.6395
 6346SOL    HW219820   6.275   1.930   6.012 -0.4379 -0.0770  0.0330
 6347SOL     OW19821   7.608   7.980   0.288  0.1794  0.1271  0.2610
 6347SOL    HW119822   7.603   7.958   0.195 -0.3292  0.7954  0.1273
 6347SOL    HW219823   7.590   7.897   0.333  2.5150 -0.7094 -0.1992
 6348SOL     OW19824   0.874   8.083   0.513 -0.1583  0.1299  0.6593
 6348SOL    HW119825   0.824   8.006   0.538 -1.2986  1.1451  1.6371
 6348SOL    HW219826   0.875   8.082   0.417  1.4560 -2.0515  0.6265
 6349SOL     OW19827   2.050   3.946   8.075  0.4780 -0.3201 -0.3421
 6349SOL    HW119828   2.051   4.011   8.146  0.3558  3.0977 -3.1929
 6349SOL    HW219829   1.959   3.916   8.071  0.3554 -0.1036  0.5402
 6350SOL     OW19830   4.739   3.843   4.971  0.6881 -0.7862  0.2375
 6350SOL    HW119831   4.732   3.843   4.875 -2.3493  1.1986  0.3377
 6350SOL    HW219832   4.672   3.781   4.999  0.8642 -0.5785  1.1355
 6351SOL     OW19833   6.736   5.791   8.012 -0.1602  0.2741  0.5526
 6351SOL    HW119834   6.772   5.703   8.012 -0.2768  0.2264  0.7598
 6351SOL    HW219835   6.766   5.829   8.094  0.1878  0.5499  0.3005
 6352SOL     OW19836   3.773   7.227   2.064  0.3500  0.4318  0.2179
 6352SOL    HW119837   3.808   7.248   1.978 -1.0149  0.2551 -0.3986
 6352SOL    HW219838   3.744   7.312   2.099  0.1355  0.3894  0.1458
 6353SOL     OW19839   4.656   2.972   2.567  0.8875 -0.3807  0.1606
 6353SOL    HW119840   4.673   3.035   2.636 -0.7200 -0.2571  0.4696
 6353SOL    HW219841   4.687   3.014   2.487  1.4836  0.0398  0.6115
 6354SOL     OW19842   0.324   6.423   6.497  0.1402 -0.3447 -0.8250
 6354SOL    HW119843   0.282   6.399   6.579  0.8096  2.0562  0.3145
 6354SOL    HW219844   0.254   6.422   6.432 -0.4164 -2.1719 -0.2572
 6355SOL     OW19845   3.276   6.992   4.559  0.5724  0.4851 -0.4637
 6355SOL    HW119846   3.248   6.905   4.533  0.6118  0.6367 -1.0327
 6355SOL    HW219847   3.310   6.981   4.647  1.8011 -0.3311 -1.0083
 6356SOL     OW19848   7.211   0.115   1.672  0.2777 -0.7504 -0.1983
 6356SOL    HW119849   7.300   0.151   1.671  0.6995 -1.7253  0.4780
 6356SOL    HW219850   7.183   0.115   1.581  0.7155  0.1691 -0.3427
 6357SOL     OW19851   3.756   6.483   5.793 -0.0326  0.1641  0.1713
 6357SOL    HW119852   3.811   6.417   5.751 -1.2014 -0.7086 -0.0295
 6357SOL    HW219853   3.808   6.514   5.867  0.3380 -1.3508  0.5709
 6358SOL     OW19854   3.024   8.031   6.918 -0.1581  0.4180 -0.2061
 6358SOL    HW119855   3.013   8.094   6.846 -1.4297 -0.8604 -1.2097
 6358SOL    HW219856   2.937   7.993   6.929  0.3412 -0.4104  1.0802
 6359SOL     OW19857   3.423   2.800   8.132 -0.3261  0.2947 -0.2754
 6359SOL    HW119858   3.360   2.786   8.202 -0.4442 -0.2944 -0.4945
 6359SOL    HW219859   3.493   2.737   8.150 -0.2839  0.2472 -0.6007
 6360SOL     OW19860   4.266   7.057   0.555 -0.0952  0.3447 -0.0449
 6360SOL    HW119861   4.244   6.967   0.532 -0.0959  0.5605 -0.9583
 6360SOL    HW219862   4.265   7.103   0.471  2.6924  0.6196 -0.0118
 6361SOL     OW19863   5.611   6.472   7.534  0.0622 -0.1378  0.3175
 6361SOL    HW119864   5.700   6.437   7.533  0.5482  1.0243  0.6414
 6361SOL    HW219865   5.610   6.537   7.463 -0.4046  0.1445  0.5730
 6362SOL     OW19866   7.112   7.264   5.577 -0.1364  0.0219  0.3036
 6362SOL    HW119867   7.204   7.250   5.555  0.0444  1.2003  0.2620
 6362SOL    HW219868   7.094   7.354   5.551 -1.2142 -0.0835  0.6259
 6363SOL     OW19869   4.461   3.165   5.191 -0.2728  0.0447  0.1659
 6363SOL    HW119870   4.516   3.237   5.159 -2.6366  1.5146 -0.8711
 6363SOL    HW219871   4.488   3.090   5.138  0.4828  0.8088 -0.5724
 6364SOL     OW19872   1.535   1.662   1.132  0.1505  0.6117 -0.1319
 6364SOL    HW119873   1.609   1.712   1.168 -0.3448  1.3873 -0.1659
 6364SOL    HW219874   1.576   1.594   1.080  0.9645 -1.1599  2.5898
 6365SOL     OW19875   5.708   3.547   0.475 -0.0901 -0.1935  0.8080
 6365SOL    HW119876   5.715   3.642   0.487  0.4655  0.0665 -1.1453
 6365SOL    HW219877   5.794   3.513   0.499 -0.8811 -0.5343  3.5175
 6366SOL     OW19878   2.722   4.540   4.290 -0.3084  0.6870  0.5011
 6366SOL    HW119879   2.646   4.519   4.343 -0.8399  0.1431 -0.4554
 6366SOL    HW219880   2.703   4.503   4.204  0.7927  1.0253  0.0892
 6367SOL     OW19881   4.747   5.752   2.284  0.0217  0.1496 -0.0155
 6367SOL    HW119882   4.800   5.830   2.297  0.2251 -0.1423  0.9610
 6367SOL    HW219883   4.701   5.768   2.201  1.4947  0.4886 -0.8149
 6368SOL     OW19884   6.284   4.240   7.833 -0.2491 -0.0372 -0.0151
 6368SOL    HW119885   6.296   4.146   7.843  0.5016  0.0820  0.2434
 6368SOL    HW219886   6.315   4.259   7.745 -1.5062 -0.2014 -0.5167
 6369SOL     OW19887   7.796   7.171   0.474 -0.1246  0.0009 -0.3087
 6369SOL    HW119888   7.888   7.148   0.460 -0.4068 -0.6159 -1.2193
 6369SOL    HW219889   7.771   7.220   0.395 -0.3574  0.8708  0.2940
 6370SOL     OW19890   7.230   0.310   4.837 -0.0534  0.4168 -0.1250
 6370SOL    HW119891   7.162   0.376   4.822 -0.1845  0.1031 -0.9390
 6370SOL    HW219892   7.210   0.240   4.776  0.4120 -0.1378  0.3465
 6371SOL     OW19893   6.658   7.128   5.445  0.1671  0.5226 -0.0723
 6371SOL    HW119894   6.616   7.073   5.511  0.3856  0.5663  0.1042
 6371SOL    HW219895   6.639   7.217   5.474  0.1868  0.5422 -0.1196
 6372SOL     OW19896   6.655   8.234   3.140  0.0694  0.5472  0.1905
 6372SOL    HW119897   6.666   8.308   3.080  1.7323  0.3613  0.2146
 6372SOL    HW219898   6.741   8.222   3.179 -0.1814 -1.3504  0.2557
 6373SOL     OW19899   1.088   2.725   6.502 -0.1144 -0.3814 -0.1469
 6373SOL    HW119900   1.179   2.729   6.473  0.0552  0.5042  0.4580
 6373SOL    HW219901   1.090   2.667   6.578  0.0098 -0.0748  0.0856
 6374SOL     OW19902   3.990   1.530   4.534  0.2650 -0.2386 -0.0107
 6374SOL    HW119903   3.922   1.598   4.533  0.9906  0.5299  0.7711
 6374SOL    HW219904   4.061   1.569   4.585  1.4010 -0.9201 -1.0352
 6375SOL     OW19905   2.899   6.358   8.270 -0.2235 -0.4954  0.2160
 6375SOL    HW119906   2.964   6.297   8.305 -0.3813 -0.6630  0.2243
 6375SOL    HW219907   2.940   6.396   8.192  0.3111  0.2342  0.8446
 6376SOL     OW19908   2.866   4.041   3.081  0.4784 -0.5564  0.6865
 6376SOL    HW119909   2.898   4.076   2.998 -0.3905  0.6789  0.8468
 6376SOL    HW219910   2.772   4.058   3.080  0.5709  0.2462  2.2565
 6377SOL     OW19911   4.871   2.967   0.723 -0.0654  0.1173 -0.3779
 6377SOL    HW119912   4.876   3.011   0.638 -0.9954  0.8215 -0.0980
 6377SOL    HW219913   4.828   2.884   0.704  1.4623 -0.5819 -0.8752
 6378SOL     OW19914   1.858   3.857   1.209 -0.1139  0.0159  0.3732
 6378SOL    HW119915   1.877   3.902   1.126 -0.3776  0.6899  0.6641
 6378SOL    HW219916   1.788   3.910   1.248 -0.4856 -0.7070  0.6961
 6379SOL     OW19917   0.416   7.243   0.732  0.2004  0.0723 -0.3035
 6379SOL    HW119918   0.355   7.216   0.801  0.2179  1.1755  0.1584
 6379SOL    HW219919   0.475   7.168   0.722 -0.1270 -0.3098  0.4959
 6380SOL     OW19920   0.499   4.454   3.698  0.4957 -0.0631  0.0350
 6380SOL    HW119921   0.550   4.527   3.731 -0.5396  1.0092 -0.6578
 6380SOL    HW219922   0.494   4.469   3.603 -0.9733 -0.2081  0.0690
 6381SOL     OW19923   6.233   2.224   4.235  0.1379  0.6642 -0.0047
 6381SOL    HW119924   6.149   2.269   4.228 -0.3486  0.3265  2.6904
 6381SOL    HW219925   6.275   2.262   4.312  1.7745 -0.3013 -0.3609
 6382SOL     OW19926   5.734   1.921   6.970 -0.0905  0.0458 -0.1632
 6382SOL    HW119927   5.657   1.896   7.021  0.0239  1.6466  0.8496
 6382SOL    HW219928   5.757   2.008   7.001  1.9557 -0.2570 -0.6656
 6383SOL     OW19929   4.403   0.072   4.318 -0.6548  0.5508 -0.1381
 6383SOL    HW119930   4.362   0.153   4.347 -0.8404  0.7333 -0.8767
 6383SOL    HW219931   4.475   0.101   4.261 -0.4527  0.2063 -0.0616
 6384SOL     OW19932   5.211   6.891   7.066  0.3709 -0.3076  0.3478
 6384SOL    HW119933   5.279   6.954   7.041  0.2113  0.4041  1.6087
 6384SOL    HW219934   5.193   6.842   6.986  1.2948  0.5066 -0.3875
 6385SOL     OW19935   5.237   5.177   2.082  0.4006 -0.5518  0.0924
 6385SOL    HW119936   5.207   5.180   1.992  0.3398  0.5209  0.1464
 6385SOL    HW219937   5.319   5.226   2.083 -0.6659  1.2975  1.0169
 6386SOL     OW19938   2.775   6.605   6.205  0.5326  0.1324  0.2672
 6386SOL    HW119939   2.691   6.591   6.160 -0.2467 -1.9308  2.2063
 6386SOL    HW219940   2.755   6.670   6.273  0.9132  0.7967 -0.2434
 6387SOL     OW19941   3.665   7.200   3.108 -0.1216  0.2164  0.4431
 6387SOL    HW119942   3.746   7.171   3.067 -1.0082 -0.6599 -0.7471
 6387SOL    HW219943   3.665   7.157   3.194  0.7146  0.3404  0.5175
 6388SOL     OW19944   6.537   2.944   2.702  0.3508 -0.0550 -0.4372
 6388SOL    HW119945   6.567   2.864   2.659  0.0964  0.2867 -1.2588
 6388SOL    HW219946   6.611   2.969   2.759  0.7141 -0.4753 -0.7163
 6389SOL     OW19947   7.971   3.618   7.397 -0.1646  0.2484  0.7620
 6389SOL    HW119948   8.049   3.573   7.366 -0.2278  0.4724  0.2795
 6389SOL    HW219949   7.954   3.686   7.332 -0.7676  0.1964  0.8592
 6390SOL     OW19950   2.700   4.141   0.711 -0.8909 -0.0976 -0.3238
 6390SOL    HW119951   2.636   4.103   0.651 -0.0993  0.4495 -1.5560
 6390SOL    HW219952   2.751   4.067   0.742  0.2985 -0.1886 -2.2961
 6391SOL     OW19953   5.972   1.103   6.337  0.1831  0.3168 -0.3841
 6391SOL    HW119954   6.043   1.040   6.346  0.1306  0.1739 -0.9455
 6391SOL    HW219955   6.000   1.179   6.388 -0.3580 -0.6590  1.4629
 6392SOL     OW19956   1.503   1.866   2.554 -0.5661 -0.5214  0.2649
 6392SOL    HW119957   1.530   1.924   2.483 -2.1701 -0.1645 -0.0824
 6392SOL    HW219958   1.512   1.778   2.518  1.1669 -0.4910  0.5481
 6393SOL     OW19959   7.338   0.160   3.252 -0.2641  0.5166  0.3837
 6393SOL    HW119960   7.342   0.255   3.257 -1.7194  0.6159  0.3172
 6393SOL    HW219961   7.297   0.143   3.166 -0.6809 -0.1295  0.7007
 6394SOL     OW19962   3.578   0.786   7.173  0.0766  0.0226 -0.0374
 6394SOL    HW119963   3.604   0.796   7.265  2.9227  0.8552 -0.8359
 6394SOL    HW219964   3.502   0.843   7.163 -0.9074 -0.8199  1.9847
 6395SOL     OW19965   7.712   5.636   8.296  0.1027  0.3119  0.2291
 6395SOL    HW119966   7.695   5.709   8.236  0.1352 -0.9355 -1.3502
 6395SOL    HW219967   7.629   5.621   8.341  0.0054  1.0832  0.3191
 6396SOL     OW19968   4.425   4.331   5.480  0.3413 -0.3612  0.0754
 6396SOL    HW119969   4.425   4.236   5.470 -2.3272 -0.3311 -0.9023
 6396SOL    HW219970   4.517   4.356   5.474  1.0865 -2.8472  0.2046
 6397SOL     OW19971   4.814   2.656   2.193 -0.3125 -0.5506  0.3460
 6397SOL    HW119972   4.767   2.637   2.274  0.0389 -0.1648  0.6422
 6397SOL    HW219973   4.886   2.593   2.190  0.2089  0.0161  0.7867
 6398SOL     OW19974   2.726   0.135   3.992 -0.0650 -0.4001  0.0449
 6398SOL    HW119975   2.723   0.097   4.080  1.4324  0.8781  0.6995
 6398SOL    HW219976   2.750   0.226   4.006  0.7834 -0.3081 -1.7204
 6399SOL     OW19977   4.519   7.827   2.828  0.6262  0.1840  0.0438
 6399SOL    HW119978   4.458   7.876   2.883 -0.4352 -0.3296 -0.6307
 6399SOL    HW219979   4.523   7.740   2.869  1.1137  0.2963  0.2350
 6400SOL     OW19980   0.584   2.781   0.753 -0.0935  0.6027  0.4298
 6400SOL    HW119981   0.652   2.716   0.768 -0.0920  0.5082  0.0270
 6400SOL    HW219982   0.584   2.834   0.833 -1.0184 -0.7015  1.3265
 6401SOL     OW19983   7.354   0.903   5.455  0.5180 -0.4390 -0.6196
 6401SOL    HW119984   7.363   0.846   5.378  1.4126 -0.1163 -0.7784
 6401SOL    HW219985   7.438   0.893   5.500 -0.1592 -0.9437  0.5541
 6402SOL     OW19986   3.165   6.675   4.091  0.0016 -0.7846  0.0252
 6402SOL    HW119987   3.076   6.694   4.121 -0.3082  0.5114 -1.5463
 6402SOL    HW219988   3.195   6.757   4.052  2.4094 -0.8008  1.6566
 6403SOL     OW19989   5.735   3.156   7.016  0.1566 -0.1536 -0.1302
 6403SOL    HW119990   5.712   3.085   6.957 -1.5897  0.0766  0.2219
 6403SOL    HW219991   5.825   3.138   7.042  0.4805 -1.0111 -1.7573
 6404SOL     OW19992   0.296   7.154   1.088  0.7780 -0.1645 -0.2568
 6404SOL    HW119993   0.271   7.066   1.118 -2.9791  0.9584  0.3838
 6404SOL    HW219994   0.269   7.156   0.996  1.1860  0.2255 -0.3690
 6405SOL     OW19995   2.033   3.867   3.661  0.2672  0.2256  0.2217
 6405SOL    HW119996   2.097   3.932   3.692 -1.1153  1.0380  1.5283
 6405SOL    HW219997   2.072   3.782   3.685  0.8057  0.7075  1.1080
 6406SOL     OW19998   2.802   6.326   6.841 -0.1057  0.0814 -0.2211
 6406SOL    HW119999   2.825   6.241   6.803 -2.2951 -0.3167 -0.7418
 6406SOL    HW220000   2.801   6.310   6.935  2.2392  0.2973 -0.0794
 6407SOL     OW20001   4.346   0.945   7.240  0.0700 -0.0025 -0.2486
 6407SOL    HW120002   4.277   0.889   7.275 -1.0895 -0.2427 -2.7251
 6407SOL    HW220003   4.337   1.028   7.288  0.0917 -1.0275  1.5896
 6408SOL     OW20004   6.751   1.752   2.358 -0.0803  0.1519 -0.2282
 6408SOL    HW120005   6.733   1.665   2.322  0.6729  0.3379 -1.0884
 6408SOL    HW220006   6.846   1.754   2.368 -0.2212  0.3334  1.2389
 6409SOL     OW20007   7.550   2.357   8.154 -0.1725 -0.3176  0.4067
 6409SOL    HW120008   7.480   2.377   8.216  0.2596  2.2254  0.1816
 6409SOL    HW220009   7.627   2.343   8.208  0.0323  1.1091  0.5054
 6410SOL     OW20010   2.215   0.566   3.843 -0.0302 -0.4381 -0.1007
 6410SOL    HW120011   2.203   0.630   3.774 -0.0595  0.3389  0.6122
 6410SOL    HW220012   2.250   0.616   3.917  0.4173 -1.3253  0.3089
 6411SOL     OW20013   4.366   2.380   0.438 -0.2572 -0.3757  0.1246
 6411SOL    HW120014   4.381   2.423   0.354  0.8693  0.2480  0.6137
 6411SOL    HW220015   4.335   2.451   0.495 -0.5213 -0.6879  0.3740
 6412SOL     OW20016   8.254   2.509   4.485  0.0729 -0.4867 -0.1962
 6412SOL    HW120017   8.325   2.543   4.540  0.0286 -1.3130  0.3862
 6412SOL    HW220018   8.297   2.448   4.425  0.1218  0.4213 -1.1036
 6413SOL     OW20019   0.001   5.856   1.597  0.0922 -0.0660 -0.0113
 6413SOL    HW120020  -0.060   5.883   1.666 -1.5497  0.5087 -1.6050
 6413SOL    HW220021  -0.034   5.772   1.566  0.2011  0.1842 -0.8337
 6414SOL     OW20022   3.580   2.742   7.619  0.2092 -0.1197  0.0390
 6414SOL    HW120023   3.632   2.723   7.698  0.9580 -1.4432 -0.7416
 6414SOL    HW220024   3.511   2.676   7.620  0.5254 -0.4623 -0.6752
 6415SOL     OW20025   5.041   7.026   1.011 -0.5919  0.3329  0.0428
 6415SOL    HW120026   5.005   7.063   0.930  0.0569  1.5527  0.2850
 6415SOL    HW220027   4.976   6.962   1.039 -1.1660  0.4054 -1.0680
 6416SOL     OW20028   5.031   2.537   7.755 -0.0739  0.5268 -0.0371
 6416SOL    HW120029   5.127   2.535   7.753 -0.0681 -0.3484  0.6325
 6416SOL    HW220030   5.010   2.585   7.835 -0.2192  1.7088 -0.7491
 6417SOL     OW20031   2.394   6.694   6.006  0.3184  0.4067 -0.3227
 6417SOL    HW120032   2.437   6.705   5.921  3.1471 -1.9499  0.6493
 6417SOL    HW220033   2.334   6.621   5.993  0.5728  0.2038 -0.3724
 6418SOL     OW20034   5.515   5.343   2.889  0.3918  0.3544  0.1091
 6418SOL    HW120035   5.517   5.375   2.799 -0.3628 -2.1299 -0.8753
 6418SOL    HW220036   5.422   5.337   2.910  0.4703 -1.5288  0.0577
 6419SOL     OW20037   3.188   4.818   1.999  0.0625 -0.1913  0.1346
 6419SOL    HW120038   3.118   4.868   1.958 -0.7969 -0.0918  1.6415
 6419SOL    HW220039   3.198   4.741   1.943 -1.1692 -0.1459 -0.1834
 6420SOL     OW20040   6.499   0.528   6.564 -0.6777 -0.1614 -0.5920
 6420SOL    HW120041   6.533   0.617   6.574  1.5452 -1.2125  2.5633
 6420SOL    HW220042   6.411   0.532   6.600 -0.2980  0.6111  0.2904
 6421SOL     OW20043   5.526   7.095   1.808 -0.0470  0.0130  0.1857
 6421SOL    HW120044   5.461   7.058   1.868  0.6130 -1.4012  0.0564
 6421SOL    HW220045   5.490   7.181   1.785 -1.0270 -0.0155  1.4506
 6422SOL     OW20046   4.904   7.539   3.674 -0.8491  0.1056 -0.4738
 6422SOL    HW120047   4.884   7.624   3.635 -1.9342  0.0698 -0.0269
 6422SOL    HW220048   4.974   7.504   3.620  1.6945  2.4928  1.0215
 6423SOL     OW20049   3.722   3.669   1.966  0.3481  0.0634 -0.1839
 6423SOL    HW120050   3.722   3.661   1.871 -0.2501  0.7599 -0.2539
 6423SOL    HW220051   3.813   3.654   1.992  0.7421  1.0473 -0.9651
 6424SOL     OW20052   6.519   3.054   4.759  0.3538  0.3791  0.3635
 6424SOL    HW120053   6.478   3.030   4.842  0.7341 -1.6255  0.0217
 6424SOL    HW220054   6.609   3.077   4.782  1.2821 -2.7526  0.3100
 6425SOL     OW20055   5.715   7.280   0.555 -0.3482 -0.6099 -0.2867
 6425SOL    HW120056   5.622   7.294   0.535 -0.3952  1.6603  1.2061
 6425SOL    HW220057   5.729   7.325   0.638  1.9412 -1.5409 -0.1030
 6426SOL     OW20058   4.747   6.994   0.403  0.3127 -0.1898 -0.2426
 6426SOL    HW120059   4.742   6.969   0.311  0.9935  1.5204 -0.7819
 6426SOL    HW220060   4.692   7.073   0.410  1.0699  0.2893  0.5723
 6427SOL     OW20061   1.824   7.703   2.219 -0.4602  0.1779  0.1823
 6427SOL    HW120062   1.919   7.693   2.227 -0.3197  0.4242 -0.9914
 6427SOL    HW220063   1.813   7.779   2.163 -1.3254 -0.7866 -1.0006
 6428SOL     OW20064   7.914   6.059   7.662  0.0830  0.3589 -0.1493
 6428SOL    HW120065   7.858   6.099   7.596 -0.1499 -0.5758 -0.5358
 6428SOL    HW220066   7.879   5.971   7.673  1.5127 -0.2739 -0.4456
 6429SOL     OW20067   4.615   3.426   2.865  0.2228 -0.2218  0.4943
 6429SOL    HW120068   4.662   3.444   2.783 -1.2720  0.6608 -0.2158
 6429SOL    HW220069   4.652   3.488   2.928  0.2191  0.2648  0.0244
 6430SOL     OW20070   4.899   0.233   4.713  0.1593 -0.0769 -0.8726
 6430SOL    HW120071   4.928   0.143   4.697  1.4803  0.1656 -0.0138
 6430SOL    HW220072   4.947   0.285   4.648  0.2938  0.1299 -0.6107
 6431SOL     OW20073   3.581   7.358   6.063 -0.1747 -0.7492  0.4735
 6431SOL    HW120074   3.636   7.434   6.082  1.3827 -1.7972  0.3504
 6431SOL    HW220075   3.572   7.313   6.147  0.5706 -1.4604  0.1909
 6432SOL     OW20076   1.890   6.221   5.613 -0.0263 -0.1636 -0.3051
 6432SOL    HW120077   1.949   6.147   5.627 -0.2395 -0.1256  0.8538
 6432SOL    HW220078   1.860   6.246   5.701  1.0035  2.1197 -0.5392
 6433SOL     OW20079   5.364   4.674   3.038 -0.4131  0.1133  0.0544
 6433SOL    HW120080   5.301   4.702   3.104 -0.6891 -2.9543  1.2731
 6433SOL    HW220081   5.345   4.729   2.962 -2.4908  1.3443  1.3576
 6434SOL     OW20082   6.721   2.648   0.812 -0.6525 -0.0994  0.2767
 6434SOL    HW120083   6.756   2.734   0.788 -1.5475  0.7358  1.8082
 6434SOL    HW220084   6.798   2.593   0.824  0.0167  0.9176  0.7686
 6435SOL     OW20085   7.792   0.339   6.238  0.1032 -0.4239 -0.2196
 6435SOL    HW120086   7.703   0.312   6.217 -0.0487 -0.2844  0.2388
 6435SOL    HW220087   7.839   0.333   6.154 -1.1238  2.6992 -1.2631
 6436SOL     OW20088   7.114   2.482   2.086 -0.1823  0.4983  0.8234
 6436SOL    HW120089   7.084   2.564   2.125  0.1587  0.4467  1.2092
 6436SOL    HW220090   7.055   2.467   2.012 -1.1793  0.3399  1.6303
 6437SOL     OW20091   4.501   2.594   7.020  0.1299  0.3562 -0.5477
 6437SOL    HW120092   4.470   2.505   7.034  1.4131 -0.0178  0.1422
 6437SOL    HW220093   4.533   2.622   7.106 -0.8051  1.7107 -0.6194
 6438SOL     OW20094   4.130   2.984   5.413 -1.0825 -0.0160  0.0118
 6438SOL    HW120095   4.149   3.006   5.504 -0.0231  0.7645 -0.3753
 6438SOL    HW220096   4.168   3.056   5.363  2.3801 -2.5253 -1.3390
 6439SOL     OW20097   0.129   4.781   4.757  0.2372 -0.1460  0.1753
 6439SOL    HW120098   0.136   4.727   4.836  0.4788  0.7088  0.7546
 6439SOL    HW220099   0.220   4.801   4.734  0.1433  0.0969  0.0199
 6440SOL     OW20100   0.451   4.605   5.691  0.2009  0.4258  0.1765
 6440SOL    HW120101   0.401   4.662   5.749 -1.6612  0.2301 -1.1549
 6440SOL    HW220102   0.436   4.517   5.726 -0.1230  0.4014 -0.0175
 6441SOL     OW20103   7.543   5.011   3.739  0.0071  0.4119 -0.0105
 6441SOL    HW120104   7.551   4.940   3.802 -1.1386 -0.5271 -0.8657
 6441SOL    HW220105   7.601   4.987   3.667  1.8679  1.8373  0.9405
 6442SOL     OW20106   6.211   4.894   4.035 -0.5007  0.6504 -0.3769
 6442SOL    HW120107   6.180   4.976   4.075 -0.0463  1.1070 -0.9296
 6442SOL    HW220108   6.277   4.862   4.096 -0.0378  1.1734 -0.5912
 6443SOL     OW20109   8.304   7.946   2.340 -0.6028 -0.3092  0.2960
 6443SOL    HW120110   8.263   7.860   2.337 -1.3342  0.0495 -0.4661
 6443SOL    HW220111   8.290   7.976   2.430  0.4992 -1.3624  0.8482
 6444SOL     OW20112   7.798   2.021   3.803  0.0277 -0.4931 -0.4544
 6444SOL    HW120113   7.750   2.103   3.796  1.2976  0.3274  0.0363
 6444SOL    HW220114   7.756   1.974   3.875  0.8633  0.8695  0.9763
 6445SOL     OW20115   1.850   5.872   2.662  0.4723  0.4704 -0.1256
 6445SOL    HW120116   1.830   5.915   2.579 -0.7037 -0.3711 -0.3106
 6445SOL    HW220117   1.813   5.784   2.653 -0.1230  0.5121  1.4573
 6446SOL     OW20118   0.172   5.103   0.632 -0.0381 -0.6820  0.3057
 6446SOL    HW120119   0.211   5.179   0.590 -0.7670 -1.1434 -1.2730
 6446SOL    HW220120   0.214   5.099   0.718  0.2998  1.2453  0.2614
 6447SOL     OW20121   8.142   6.122   7.817  0.2555 -0.1530  0.8161
 6447SOL    HW120122   8.166   6.210   7.791 -1.9850 -0.0129 -1.1235
 6447SOL    HW220123   8.075   6.095   7.754 -0.2068 -2.6868  2.2164
 6448SOL     OW20124   0.259   7.849   3.383 -0.1088  0.3048 -0.0597
 6448SOL    HW120125   0.332   7.842   3.322 -0.1770  1.0110 -0.2331
 6448SOL    HW220126   0.275   7.930   3.431  1.6678 -1.7561  3.1809
 6449SOL     OW20127   4.915   6.628   6.334 -0.3415  0.0990 -0.1378
 6449SOL    HW120128   4.945   6.622   6.243 -0.7002 -0.4373 -0.2271
 6449SOL    HW220129   4.909   6.722   6.351 -0.1688  0.2043 -0.6361
 6450SOL     OW20130   6.375   4.410   6.416  0.2320  0.2320  0.0543
 6450SOL    HW120131   6.331   4.494   6.423  0.6576  0.3685  1.3692
 6450SOL    HW220132   6.338   4.369   6.337 -1.8856  0.5226  0.8336
 6451SOL     OW20133   0.299   2.079   7.765  0.4883  0.9199  0.5778
 6451SOL    HW120134   0.252   2.159   7.745 -0.7179  0.3010  0.8404
 6451SOL    HW220135   0.273   2.017   7.696  2.2630  1.0521 -0.2697
 6452SOL     OW20136   4.852   2.623   5.398 -0.4657 -0.1373  0.1050
 6452SOL    HW120137   4.820   2.651   5.312 -0.0449 -1.3025 -0.4648
 6452SOL    HW220138   4.927   2.679   5.415 -0.1442 -0.3319 -0.6143
 6453SOL     OW20139   4.733   2.545   6.796  0.0684  0.1933 -0.1221
 6453SOL    HW120140   4.665   2.554   6.863  0.4791 -1.4803  0.5738
 6453SOL    HW220141   4.813   2.527   6.845  0.4900 -0.4827 -1.0222
 6454SOL     OW20142   8.165   2.518   1.705 -0.5189 -0.8071 -0.2977
 6454SOL    HW120143   8.073   2.542   1.713  0.0358  1.0203  1.5153
 6454SOL    HW220144   8.167   2.423   1.717 -2.0751 -0.7184  0.9116
 6455SOL     OW20145   4.856   0.705   6.594 -0.1366  0.8770 -0.2865
 6455SOL    HW120146   4.883   0.622   6.635 -1.1084  0.7115  0.0303
 6455SOL    HW220147   4.884   0.697   6.503 -1.1078 -0.2241 -0.5080
 6456SOL     OW20148   4.455   3.046   7.945 -0.3037 -0.1420 -0.4406
 6456SOL    HW120149   4.537   3.021   7.902  0.0525 -0.1216  0.2193
 6456SOL    HW220150   4.442   3.138   7.919 -0.0321 -0.0934 -0.4045
 6457SOL     OW20151   6.825   1.782   2.022  0.1224 -0.0743  0.2589
 6457SOL    HW120152   6.820   1.687   2.022 -0.3502 -0.1259 -2.6914
 6457SOL    HW220153   6.743   1.811   2.061  0.6050 -0.8282  1.9145
 6458SOL     OW20154   7.179   0.357   7.798 -0.2720  0.0675 -0.4116
 6458SOL    HW120155   7.212   0.419   7.863  1.4487  0.0217 -1.1871
 6458SOL    HW220156   7.159   0.278   7.848 -0.3217  0.4924  0.2562
 6459SOL     OW20157   7.895   7.505   3.824 -0.1700  0.4271  0.3100
 6459SOL    HW120158   7.961   7.464   3.879  0.4325 -0.3915 -0.9793
 6459SOL    HW220159   7.940   7.523   3.741 -1.6482 -0.5939 -0.7726
 6460SOL     OW20160   1.823   1.342   4.941 -0.1794  0.4718 -0.1498
 6460SOL    HW120161   1.746   1.398   4.945 -0.5602 -0.1041  1.9601
 6460SOL    HW220162   1.789   1.254   4.925  0.0431  0.2718  0.4219
 6461SOL     OW20163   5.450   7.260   6.060 -0.2495  0.0526  0.5570
 6461SOL    HW120164   5.518   7.194   6.049 -1.4893 -1.2583  0.3444
 6461SOL    HW220165   5.468   7.298   6.146  0.1574 -1.0024  0.9623
 6462SOL     OW20166   7.518   7.505   2.794  0.1359 -0.1678 -0.0764
 6462SOL    HW120167   7.546   7.579   2.740  0.4063 -0.6446 -0.5970
 6462SOL    HW220168   7.556   7.428   2.751 -0.2328 -0.6211  0.3974
 6463SOL     OW20169   2.081   2.208   7.029  0.1129 -0.5721  0.3157
 6463SOL    HW120170   2.005   2.265   7.014  1.4361  1.7003  1.7705
 6463SOL    HW220171   2.044   2.130   7.071 -1.3086  1.1219  2.4130
 6464SOL     OW20172   4.433   2.032   5.321  0.1733  0.2221  0.2570
 6464SOL    HW120173   4.505   2.059   5.378 -0.5925 -0.1663  1.4557
 6464SOL    HW220174   4.376   2.109   5.317  0.2652  0.2748 -0.0574
 6465SOL     OW20175   2.633   1.085   6.903  0.3533  0.1907  0.5763
 6465SOL    HW120176   2.629   0.995   6.935  1.9135 -0.3062 -0.5276
 6465SOL    HW220177   2.708   1.087   6.845  0.4179  2.2546  0.6457
 6466SOL     OW20178   6.447   0.528   7.133 -0.4336  0.2893  0.6043
 6466SOL    HW120179   6.490   0.509   7.050 -1.1320  0.5334  0.1775
 6466SOL    HW220180   6.491   0.607   7.165  0.4265 -0.3006  0.9045
 6467SOL     OW20181   2.699   2.507   0.132  0.4102  0.1498  0.1013
 6467SOL    HW120182   2.751   2.545   0.062  0.3305 -0.5602 -0.3468
 6467SOL    HW220183   2.634   2.453   0.088 -1.0997  1.4585  0.6076
 6468SOL     OW20184   6.046   3.033   4.076 -0.1324 -0.1733 -0.2408
 6468SOL    HW120185   6.002   3.084   4.008 -1.2571  0.8241  1.1712
 6468SOL    HW220186   6.099   2.970   4.028 -1.2025  0.2187 -2.0366
 6469SOL     OW20187   7.752   6.003   7.363 -0.0765  0.4472  0.1809
 6469SOL    HW120188   7.712   6.083   7.396 -1.2846  0.4243 -1.1526
 6469SOL    HW220189   7.748   5.942   7.437 -2.0910  0.6129  0.2494
 6470SOL     OW20190   1.368   3.473   2.967 -0.1328 -0.2212 -0.6190
 6470SOL    HW120191   1.380   3.447   3.058 -0.0489 -1.8643 -1.0678
 6470SOL    HW220192   1.364   3.569   2.970  2.4032 -0.0695  0.8066
 6471SOL     OW20193   5.421   0.494   0.932  0.0616  0.1422  0.0696
 6471SOL    HW120194   5.485   0.426   0.956  0.6407  0.2210 -1.1507
 6471SOL    HW220195   5.466   0.545   0.864 -1.1663  0.4356 -0.5366
 6472SOL     OW20196   4.826   6.609   0.462 -0.1192 -0.5464 -0.4060
 6472SOL    HW120197   4.878   6.687   0.441 -0.9979 -0.6198 -3.0952
 6472SOL    HW220198   4.883   6.535   0.440 -0.5370 -0.6334 -1.2193
 6473SOL     OW20199   0.716   5.949   5.541  0.1344 -0.0620 -0.4879
 6473SOL    HW120200   0.739   5.998   5.620 -0.5568 -0.5224  0.0133
 6473SOL    HW220201   0.797   5.945   5.490  1.4180 -2.3177  1.5455
 6474SOL     OW20202   0.947   2.215   1.411 -0.2918 -0.1612 -0.1409
 6474SOL    HW120203   0.892   2.139   1.432 -1.6657  0.9374  0.3949
 6474SOL    HW220204   0.909   2.287   1.462 -0.3324  1.3646 -2.1999
 6475SOL     OW20205   7.834   6.535   3.940  0.5651 -0.3335  0.1194
 6475SOL    HW120206   7.875   6.512   3.857 -1.0481 -1.2577 -0.4556
 6475SOL    HW220207   7.903   6.579   3.989  1.7557 -0.4027 -1.4235
 6476SOL     OW20208   5.770   6.410   1.780  0.2000  0.4297  0.1798
 6476SOL    HW120209   5.700   6.475   1.791 -0.4572  0.2034 -2.0071
 6476SOL    HW220210   5.850   6.463   1.770  0.0277  0.7883  0.6419
 6477SOL     OW20211   1.455   7.198   7.650  0.8458 -0.1582  0.1333
 6477SOL    HW120212   1.437   7.113   7.690  2.0275  0.5216  2.2449
 6477SOL    HW220213   1.539   7.186   7.605  1.3637  0.0482  1.0214
 6478SOL     OW20214   3.090   4.122   2.648  0.2431 -0.2482 -0.2971
 6478SOL    HW120215   3.150   4.168   2.706  0.2741 -0.2227 -0.3495
 6478SOL    HW220216   3.003   4.140   2.685 -0.1103  2.7071 -2.2032
 6479SOL     OW20217   1.646   3.705   0.512  0.4362  0.3297 -0.1687
 6479SOL    HW120218   1.620   3.784   0.560  1.0426  0.4020  0.0583
 6479SOL    HW220219   1.666   3.736   0.424  0.1616  0.3445 -0.2243
 6480SOL     OW20220   1.257   0.116   3.740  0.0079  0.3085 -0.5903
 6480SOL    HW120221   1.177   0.151   3.701 -0.4948  0.4079  0.4969
 6480SOL    HW220222   1.322   0.121   3.670 -0.5373  1.6439 -1.0245
 6481SOL     OW20223   0.457   5.662   7.256  0.4723 -0.6058  0.2167
 6481SOL    HW120224   0.375   5.701   7.287 -0.0295 -1.1343 -0.3995
 6481SOL    HW220225   0.442   5.646   7.163  1.7965  0.5880 -0.2337
 6482SOL     OW20226   1.928   2.454   4.237 -0.1953 -0.3287 -0.1745
 6482SOL    HW120227   1.936   2.418   4.148  0.9670  1.7194 -0.9664
 6482SOL    HW220228   1.988   2.400   4.289  1.5337  0.3992 -1.3256
 6483SOL     OW20229   3.163   5.733   7.915 -0.3514 -1.2921 -0.4710
 6483SOL    HW120230   3.198   5.674   7.848 -0.6332 -1.0356 -0.8460
 6483SOL    HW220231   3.159   5.680   7.995  2.6625 -0.8533  0.0916
 6484SOL     OW20232   3.494   6.568   2.966  0.2533  0.1924 -0.4434
 6484SOL    HW120233   3.588   6.563   2.948  0.4608 -1.4588  0.8487
 6484SOL    HW220234   3.464   6.644   2.916  1.9383 -0.2653 -2.2707
 6485SOL     OW20235   7.692   7.165   6.524 -0.4334 -0.5191 -0.5501
 6485SOL    HW120236   7.659   7.250   6.496  0.0072 -0.1500  0.0535
 6485SOL    HW220237   7.705   7.173   6.618 -0.2863 -1.2229 -0.5030
 6486SOL     OW20238   7.919   1.653   1.307 -0.0872 -0.0406  0.1403
 6486SOL    HW120239   7.853   1.706   1.352  0.6768  0.7060  0.3923
 6486SOL    HW220240   7.952   1.710   1.238  1.3291  0.1165  0.9250
 6487SOL     OW20241   5.683   4.454   0.065 -0.6369  0.0481  0.2628
 6487SOL    HW120242   5.642   4.380   0.109 -0.3384 -0.1912  0.1477
 6487SOL    HW220243   5.647   4.532   0.109  1.6300 -0.1853  2.8293
 6488SOL     OW20244   4.861   3.577   2.373  0.1823  0.2289 -0.3793
 6488SOL    HW120245   4.811   3.639   2.320  3.2788  1.0907 -2.5373
 6488SOL    HW220246   4.865   3.498   2.319 -0.0913 -0.3821  0.4697
 6489SOL     OW20247   3.717   5.291   6.774  0.1721  0.0107 -0.1301
 6489SOL    HW120248   3.717   5.383   6.748 -1.5906 -0.0643 -0.4922
 6489SOL    HW220249   3.652   5.249   6.717  1.9619 -1.7804 -0.9818
 6490SOL     OW20250   1.815   3.051   2.745  0.1796 -0.5899 -0.9596
 6490SOL    HW120251   1.873   2.976   2.759  0.6698 -0.0831 -0.2350
 6490SOL    HW220252   1.870   3.127   2.761 -1.4708 -0.0378  3.6006
 6491SOL     OW20253   4.696   1.690   2.204 -0.0654  0.3133 -0.2836
 6491SOL    HW120254   4.654   1.626   2.262 -0.2112  1.7810  1.3146
 6491SOL    HW220255   4.790   1.674   2.215 -0.1068  0.0860 -0.2438
 6492SOL     OW20256   2.154   0.567   7.702 -0.3828  0.3066 -0.3456
 6492SOL    HW120257   2.153   0.525   7.616 -1.8233  1.3209 -0.8573
 6492SOL    HW220258   2.235   0.537   7.743  0.0869 -0.5649 -1.8670
 6493SOL     OW20259   0.103   2.691   6.934  0.1461  0.6434 -0.0570
 6493SOL    HW120260   0.150   2.758   6.884  2.6144  0.5737  1.9546
 6493SOL    HW220261   0.025   2.735   6.966  0.0599  1.5546 -1.4623
 6494SOL     OW20262   3.171   7.827   3.238 -0.2546  0.2812  0.0582
 6494SOL    HW120263   3.197   7.918   3.223  1.6996 -0.2923 -0.3559
 6494SOL    HW220264   3.250   7.776   3.217 -1.7202 -1.6311 -1.1970
 6495SOL     OW20265   8.202   1.722   5.687  0.1750 -0.1316  0.0098
 6495SOL    HW120266   8.133   1.681   5.740 -1.0650  1.3552 -0.3669
 6495SOL    HW220267   8.265   1.755   5.751 -0.7403  0.6638  0.5425
 6496SOL     OW20268   5.315   5.614   3.466  0.4293  0.0735 -0.3726
 6496SOL    HW120269   5.298   5.542   3.404 -0.1558 -0.5929  0.5459
 6496SOL    HW220270   5.308   5.573   3.552 -1.1050  1.4598  0.2099
 6497SOL     OW20271   1.363   5.353   1.393  0.0898 -0.6204  0.5532
 6497SOL    HW120272   1.273   5.326   1.409 -0.1474 -1.1703 -1.4230
 6497SOL    HW220273   1.381   5.324   1.303  1.8273  0.5621  0.4750
 6498SOL     OW20274   4.360   1.242   2.110 -0.2739  0.0320 -0.1063
 6498SOL    HW120275   4.271   1.241   2.073 -1.0017  3.2816  1.1821
 6498SOL    HW220276   4.346   1.245   2.205  1.3763 -2.1037  0.2767
 6499SOL     OW20277   7.671   7.431   0.821  0.6091  0.2585 -0.4609
 6499SOL    HW120278   7.689   7.522   0.798  0.4881  0.4057 -0.0035
 6499SOL    HW220279   7.749   7.383   0.795  0.4734  0.4138 -1.1588
 6500SOL     OW20280   2.162   5.390   4.024 -0.6323  0.0517 -0.3819
 6500SOL    HW120281   2.230   5.377   4.091 -1.0889  1.1039  0.3264
 6500SOL    HW220282   2.085   5.347   4.060 -0.4960 -0.6582 -0.9285
 6501SOL     OW20283   7.652   8.105   3.145  0.3992  0.2825  0.2223
 6501SOL    HW120284   7.595   8.139   3.214 -0.3290 -0.5318  0.0283
 6501SOL    HW220285   7.696   8.030   3.185  2.5787  1.7949  0.9043
 6502SOL     OW20286   1.458   7.569   4.838 -0.0970 -0.0001 -0.0120
 6502SOL    HW120287   1.536   7.598   4.790 -0.6879 -2.0672 -2.4726
 6502SOL    HW220288   1.475   7.593   4.929  3.0870  0.2355 -0.5625
 6503SOL     OW20289   2.774   2.442   3.500  0.0721 -0.3203 -0.1546
 6503SOL    HW120290   2.843   2.506   3.519 -0.2987 -0.5210  2.1108
 6503SOL    HW220291   2.701   2.495   3.466  0.1624  0.3497  0.6507
 6504SOL     OW20292   7.880   6.062   4.203  0.2059 -0.3821  0.0211
 6504SOL    HW120293   7.965   6.025   4.226  0.8301  0.3672 -1.0325
 6504SOL    HW220294   7.876   6.059   4.108 -0.1004  1.3720 -0.0629
 6505SOL     OW20295   6.969   4.471   4.285 -0.3071  0.0693 -0.2675
 6505SOL    HW120296   6.993   4.521   4.362  0.4952 -1.5048  0.5481
 6505SOL    HW220297   6.874   4.465   4.288 -0.2141 -1.8347  1.8961
 6506SOL     OW20298   2.072   0.793   8.072  0.4175  0.0122  0.3106
 6506SOL    HW120299   2.040   0.842   7.996 -0.9945 -0.3063  0.6749
 6506SOL    HW220300   2.075   0.857   8.142  0.4040  0.0007  0.3221
 6507SOL     OW20301   0.602   2.340   5.049  0.0731  0.4194  0.3251
 6507SOL    HW120302   0.547   2.262   5.055  1.8058 -0.8381  0.5868
 6507SOL    HW220303   0.549   2.410   5.087 -0.9829 -0.9435  1.4586
 6508SOL     OW20304   5.133   8.019   1.427 -0.1204  0.0317 -0.0076
 6508SOL    HW120305   5.038   8.008   1.424  0.0819 -1.8967 -0.5443
 6508SOL    HW220306   5.164   7.944   1.477  1.1459  0.5945  0.0988
 6509SOL     OW20307   2.127   2.951   4.173  0.4718  0.2480  0.3410
 6509SOL    HW120308   2.116   3.033   4.221  0.2029  0.2886  0.2097
 6509SOL    HW220309   2.199   2.968   4.112 -0.4244  0.8041 -0.5892
 6510SOL     OW20310   0.384   2.223   3.402  0.3167  0.3890  0.3235
 6510SOL    HW120311   0.318   2.158   3.377 -2.2483  2.3271  1.5487
 6510SOL    HW220312   0.389   2.217   3.497  1.5627  0.6701  0.2954
 6511SOL     OW20313   8.143   6.452   6.247  0.7322  0.6634 -0.6177
 6511SOL    HW120314   8.185   6.409   6.172  0.2918 -0.2019 -0.3855
 6511SOL    HW220315   8.137   6.544   6.221  1.2587  0.5068 -1.3386
 6512SOL     OW20316   0.073   5.981   0.982  0.1642  0.0126  0.0837
 6512SOL    HW120317   0.040   6.071   0.982 -1.0393 -0.3662 -1.7105
 6512SOL    HW220318   0.167   5.989   0.971  0.0716  1.0595 -0.0279
 6513SOL     OW20319   4.681   3.815   2.260 -0.6536 -1.6853 -0.5031
 6513SOL    HW120320   4.645   3.856   2.338  0.8144 -1.9347  0.3557
 6513SOL    HW220321   4.693   3.887   2.198  0.7612 -0.9629  0.5393
 6514SOL     OW20322   4.422   3.551   4.319  0.1137  0.2894  0.3470
 6514SOL    HW120323   4.338   3.555   4.364 -0.3282 -1.7408 -0.2128
 6514SOL    HW220324   4.421   3.467   4.273  2.4813  0.1745  0.3928
 6515SOL     OW20325   7.812   5.335   0.962  0.2970  0.1825  0.0864
 6515SOL    HW120326   7.893   5.315   1.008  0.6696  0.9017 -0.2479
 6515SOL    HW220327   7.780   5.415   1.004 -0.3208 -0.1753  0.3160
 6516SOL     OW20328   1.135   2.022   5.599 -0.5643  0.3133 -0.5519
 6516SOL    HW120329   1.160   1.963   5.527 -0.0543  0.6091 -0.6226
 6516SOL    HW220330   1.179   2.104   5.578  0.1213  0.2159  0.4418
 6517SOL     OW20331   3.471   5.387   1.037 -0.4248  0.1478 -0.2531
 6517SOL    HW120332   3.510   5.310   1.079 -1.4819 -0.0159  0.4776
 6517SOL    HW220333   3.545   5.432   0.996  0.1810 -1.3847 -0.9212
 6518SOL     OW20334   7.233   6.356   2.168  0.0962  0.4452 -0.3500
 6518SOL    HW120335   7.295   6.288   2.193 -0.6343 -0.3330 -0.6415
 6518SOL    HW220336   7.277   6.438   2.193  2.0713  0.0551 -2.2407
 6519SOL     OW20337   3.929   2.633   0.805  0.2908 -0.6354 -0.1368
 6519SOL    HW120338   3.874   2.559   0.831 -0.2949  0.6656  2.8249
 6519SOL    HW220339   3.868   2.706   0.795  1.1418  0.1287  0.0968
 6520SOL     OW20340   3.599   6.852   4.863 -0.0635 -0.4321 -0.1124
 6520SOL    HW120341   3.523   6.883   4.912 -0.8293 -2.3491 -0.0443
 6520SOL    HW220342   3.674   6.891   4.909 -0.9284  0.6012  0.4613
 6521SOL     OW20343   1.519   7.026   5.978  0.1652 -0.2536 -0.3125
 6521SOL    HW120344   1.426   7.008   5.990 -0.1443 -0.2709 -2.4534
 6521SOL    HW220345   1.529   7.117   6.005 -0.4489 -0.2472 -0.0798
 6522SOL     OW20346   5.203   2.126   1.318 -0.3534 -0.2458  0.0294
 6522SOL    HW120347   5.116   2.166   1.311 -0.7805 -1.1420 -0.0545
 6522SOL    HW220348   5.223   2.128   1.412  0.8615  2.5967 -0.1979
 6523SOL     OW20349   4.362   1.507   6.306  0.3809  0.6350 -0.2183
 6523SOL    HW120350   4.314   1.545   6.232 -0.3971 -0.0584 -0.0839
 6523SOL    HW220351   4.440   1.469   6.265  0.2620  0.7896 -0.5995
 6524SOL     OW20352   3.245   6.908   3.953 -0.5570  0.3225  0.0781
 6524SOL    HW120353   3.336   6.880   3.942 -0.3710 -0.5746  3.0188
 6524SOL    HW220354   3.252   6.998   3.986 -0.5567 -0.3890  2.1827
 6525SOL     OW20355   7.504   4.280   7.990 -0.1130 -0.3574 -0.2109
 6525SOL    HW120356   7.517   4.257   8.082  2.1810  0.3711 -0.2980
 6525SOL    HW220357   7.555   4.215   7.942 -0.2185  0.0565 -0.8886
 6526SOL     OW20358   4.928   4.231   1.599 -0.1277  0.1994  0.8716
 6526SOL    HW120359   4.903   4.205   1.687 -1.8886 -0.5229  0.1979
 6526SOL    HW220360   4.920   4.151   1.547  0.6335  0.6667 -0.0144
 6527SOL     OW20361   1.938   6.225   3.322  0.1276  0.1689  0.1482
 6527SOL    HW120362   1.959   6.180   3.240  0.3979 -1.1466  0.9230
 6527SOL    HW220363   1.943   6.158   3.389 -1.0706  1.0133  1.1332
 6528SOL     OW20364   0.159   2.035   6.204  0.1342 -0.6089 -0.4094
 6528SOL    HW120365   0.103   1.960   6.184 -0.2523 -0.3051 -0.4735
 6528SOL    HW220366   0.227   2.000   6.262  1.1262 -1.4699 -2.0025
 6529SOL     OW20367   7.274   4.854   0.671 -0.3582 -0.3614 -0.0728
 6529SOL    HW120368   7.315   4.799   0.604 -1.2341 -0.6842 -0.3482
 6529SOL    HW220369   7.299   4.813   0.754  2.7332  1.3450  0.0088
 6530SOL     OW20370   3.955   4.532   1.398 -0.1493 -0.3862 -0.2421
 6530SOL    HW120371   3.984   4.553   1.310  2.6239  0.1052  0.6808
 6530SOL    HW220372   4.005   4.453   1.421 -0.3365 -0.1416  1.0905
 6531SOL     OW20373   5.138   5.630   2.236  0.4563 -0.1096 -0.0873
 6531SOL    HW120374   5.070   5.684   2.274  1.5126  1.3046 -0.1195
 6531SOL    HW220375   5.188   5.689   2.180 -0.0348 -1.7448 -2.4245
 6532SOL     OW20376   8.181   1.653   7.780 -0.0474 -0.3366 -0.1118
 6532SOL    HW120377   8.106   1.655   7.839 -0.4251  1.7491 -0.5910
 6532SOL    HW220378   8.203   1.745   7.765  0.3179 -0.7713 -2.8707
 6533SOL     OW20379   7.909   0.065   0.184  0.0307  0.0902  0.0208
 6533SOL    HW120380   7.836   0.050   0.124 -0.3407  1.1706  0.1945
 6533SOL    HW220381   7.955   0.140   0.147  1.9563 -1.4481 -0.9226
 6534SOL     OW20382   2.937   5.845   1.126  0.4076  0.1861  0.0366
 6534SOL    HW120383   2.880   5.791   1.180  2.6285 -2.1384  0.2645
 6534SOL    HW220384   2.994   5.890   1.188 -1.0932  2.5344 -0.1818
 6535SOL     OW20385   3.272   4.380   8.286  0.2531  0.0474 -0.4558
 6535SOL    HW120386   3.343   4.441   8.307 -0.0949  0.1177  0.5649
 6535SOL    HW220387   3.257   4.331   8.368 -1.1828  0.3519 -0.5112
 6536SOL     OW20388   6.393   5.801   3.838  0.1453  0.6175 -0.0687
 6536SOL    HW120389   6.320   5.838   3.789  0.7072  1.5566 -0.2188
 6536SOL    HW220390   6.445   5.754   3.773 -0.5961 -0.5392  0.1308
 6537SOL     OW20391   6.905   0.506   5.452  0.4753  0.8024 -0.3984
 6537SOL    HW120392   6.831   0.511   5.392  0.8045 -0.8507 -0.9875
 6537SOL    HW220393   6.913   0.413   5.474  1.3799  1.1527  0.9338
 6538SOL     OW20394   4.965   7.203   0.463 -0.1185 -0.2652  0.1544
 6538SOL    HW120395   4.993   7.115   0.488  1.2652  0.0942 -0.0386
 6538SOL    HW220396   4.871   7.194   0.444  0.1873 -1.8842 -0.7656
 6539SOL     OW20397   5.169   1.698   1.678 -0.2918 -0.4707  0.3048
 6539SOL    HW120398   5.232   1.763   1.648  0.2383 -1.1139 -0.0137
 6539SOL    HW220399   5.199   1.673   1.765 -0.7983  0.0810  0.6489
 6540SOL     OW20400   0.197   7.022   8.007 -0.0537 -0.7525  0.1984
 6540SOL    HW120401   0.269   7.084   8.022 -0.8927  1.2643 -3.1305
 6540SOL    HW220402   0.136   7.039   8.079  1.1289  0.0528  1.0730
 6541SOL     OW20403   6.949   4.287   6.345  0.8329 -0.2819 -0.4004
 6541SOL    HW120404   6.959   4.312   6.436 -0.8627  1.7271 -0.6723
 6541SOL    HW220405   6.858   4.259   6.337  0.7974  0.0718 -1.5541
 6542SOL     OW20406   4.615   0.504   6.675 -0.2499 -0.1346 -0.6166
 6542SOL    HW120407   4.617   0.589   6.719  0.3409  0.8097 -2.3391
 6542SOL    HW220408   4.664   0.445   6.731 -0.8911  0.5839  0.7376
 6543SOL     OW20409   1.810   5.418   5.198 -0.0536  0.3673  0.0635
 6543SOL    HW120410   1.765   5.497   5.167 -0.8184 -0.5143 -1.1607
 6543SOL    HW220411   1.774   5.404   5.286 -0.7698  0.7605 -0.1545
 6544SOL     OW20412   2.861   5.424   4.545  0.1319 -0.1220 -0.4073
 6544SOL    HW120413   2.947   5.464   4.538 -0.5679  1.3175 -1.2723
 6544SOL    HW220414   2.812   5.482   4.604  0.1594 -1.7436  1.3265
 6545SOL     OW20415   3.334   6.507   0.231  0.4343 -0.3891  0.0101
 6545SOL    HW120416   3.305   6.528   0.142 -0.7737 -1.9692 -0.0057
 6545SOL    HW220417   3.430   6.511   0.226  0.3688  0.4019 -1.1223
 6546SOL     OW20418   4.146   4.064   1.778 -0.1864 -0.2839  0.7790
 6546SOL    HW120419   4.074   4.026   1.828 -0.4978 -0.8723 -0.0898
 6546SOL    HW220420   4.223   4.014   1.805 -0.1995 -0.0673  1.2428
 6547SOL     OW20421   6.094   0.358   4.076  0.3826  0.3601  0.6223
 6547SOL    HW120422   6.054   0.280   4.037  2.3258 -0.5591  0.3457
 6547SOL    HW220423   6.118   0.331   4.165  0.9057  0.6936  0.5875
 6548SOL     OW20424   7.875   5.459   4.477 -0.4364  0.2517 -0.1571
 6548SOL    HW120425   7.861   5.395   4.407  0.6391  0.0885 -0.2417
 6548SOL    HW220426   7.968   5.482   4.470 -0.6107  1.1843  0.4197
 6549SOL     OW20427   3.757   3.364   2.797  0.1870  0.4258 -1.0738
 6549SOL    HW120428   3.780   3.421   2.870 -0.2849 -0.1126 -0.4916
 6549SOL    HW220429   3.814   3.288   2.807 -0.7263 -0.2128 -0.5204
 6550SOL     OW20430   3.126   3.009   8.029  0.3286 -0.0887  0.2563
 6550SOL    HW120431   3.175   3.071   8.082  0.2244 -1.2686  1.8048
 6550SOL    HW220432   3.034   3.034   8.042  0.3251 -0.1510  0.3562
 6551SOL     OW20433   3.815   0.280   7.207 -0.0283 -0.3148 -0.2359
 6551SOL    HW120434   3.882   0.236   7.260 -1.1154  0.6329  2.0887
 6551SOL    HW220435   3.835   0.373   7.216 -1.6913 -0.0080  0.6220
 6552SOL     OW20436   2.135   7.576   4.091 -0.4591  0.3942 -0.2285
 6552SOL    HW120437   2.220   7.605   4.126 -0.9834  0.8024  0.7307
 6552SOL    HW220438   2.075   7.585   4.164 -0.6086 -3.5822  0.3575
 6553SOL     OW20439   6.825   3.074   4.763  0.2354  0.8036  0.1870
 6553SOL    HW120440   6.819   3.044   4.853 -0.4022 -1.8601 -0.6384
 6553SOL    HW220441   6.914   3.109   4.755  0.4551  0.6619  1.7072
 6554SOL     OW20442   4.551   7.885   5.210 -0.3787  0.1579  0.1543
 6554SOL    HW120443   4.621   7.933   5.166 -0.9109  1.1316  0.3439
 6554SOL    HW220444   4.489   7.952   5.238 -1.0453 -0.6226  0.6160
 6555SOL     OW20445   6.762   3.321   6.600 -0.1100 -0.0425  0.1183
 6555SOL    HW120446   6.671   3.307   6.575  0.4653 -0.6387 -1.8567
 6555SOL    HW220447   6.787   3.240   6.644 -0.0642 -0.6520 -0.9695
 6556SOL     OW20448   3.614   5.717   3.729  0.0425  0.1472 -0.3333
 6556SOL    HW120449   3.552   5.776   3.771  0.5942  0.8232 -0.4630
 6556SOL    HW220450   3.586   5.629   3.757 -0.6995  0.4702 -0.0398
 6557SOL     OW20451   3.352   6.319   0.381  0.0296  0.2519 -0.0091
 6557SOL    HW120452   3.318   6.347   0.466  1.0572 -0.6124  0.7172
 6557SOL    HW220453   3.350   6.398   0.327 -0.0996  0.9599  0.9984
 6558SOL     OW20454   2.782   6.733   1.223  0.3074 -0.0251 -0.0800
 6558SOL    HW120455   2.810   6.765   1.138 -1.0168  1.0912 -0.1504
 6558SOL    HW220456   2.782   6.811   1.279 -1.6114 -0.1111  0.1362
 6559SOL     OW20457   5.976   5.302   1.157 -0.0833 -0.0477 -0.1731
 6559SOL    HW120458   6.051   5.253   1.191 -0.9294 -0.3407  1.3874
 6559SOL    HW220459   5.940   5.247   1.088 -0.9762 -1.6854  1.5045
 6560SOL     OW20460   5.128   6.717   6.839  0.3233  0.5528 -0.3176
 6560SOL    HW120461   5.070   6.685   6.771  0.2243 -0.1550  0.0926
 6560SOL    HW220462   5.181   6.641   6.864  1.1059  1.0717 -0.3621
 6561SOL     OW20463   1.641   3.656   6.731 -0.1860  0.3650 -0.0537
 6561SOL    HW120464   1.565   3.675   6.787 -0.4244  0.4687 -0.4129
 6561SOL    HW220465   1.714   3.699   6.776 -0.6132  1.6569 -0.5421
 6562SOL     OW20466   7.906   4.587   5.112  0.3940  0.4427  0.1788
 6562SOL    HW120467   7.834   4.617   5.058 -0.5621 -0.6737  0.7731
 6562SOL    HW220468   7.966   4.545   5.051 -0.2503 -0.0405 -0.1368
 6563SOL     OW20469   1.253   0.867   4.434 -0.7002 -0.4669  0.7413
 6563SOL    HW120470   1.218   0.908   4.513  0.4957 -1.7644  2.0085
 6563SOL    HW220471   1.348   0.866   4.447 -0.2280  1.3047 -1.7607
 6564SOL     OW20472   2.846   5.176   6.185  0.5099  0.3202  0.1281
 6564SOL    HW120473   2.893   5.256   6.209  2.5434 -1.0316  0.9529
 6564SOL    HW220474   2.802   5.150   6.266  0.8080  0.0149  0.1971
 6565SOL     OW20475   0.248   5.764   1.169 -0.4047 -0.0435  0.2726
 6565SOL    HW120476   0.254   5.690   1.108  2.2515  0.5611 -0.3410
 6565SOL    HW220477   0.244   5.723   1.256 -0.4938 -0.9148 -0.1247
 6566SOL     OW20478   2.100   4.448   1.966  0.4812  0.6896  0.5351
 6566SOL    HW120479   2.129   4.364   1.930 -1.8872  0.0911 -0.1555
 6566SOL    HW220480   2.112   4.439   2.061  2.6719  0.6301  0.3185
 6567SOL     OW20481   3.155   1.875   4.808 -0.7875  0.1776  0.5961
 6567SOL    HW120482   3.154   1.786   4.843  2.7997 -0.6800 -1.0628
 6567SOL    HW220483   3.152   1.864   4.713 -1.1840  1.8938  0.3778
 6568SOL     OW20484   3.535   3.075   7.456 -0.0619 -0.2842  0.1490
 6568SOL    HW120485   3.533   3.159   7.410 -1.8011  0.2513  1.1068
 6568SOL    HW220486   3.447   3.039   7.444  0.6950 -2.0681 -0.3685
 6569SOL     OW20487   6.481   7.676   0.533 -0.8832  0.8930 -0.1603
 6569SOL    HW120488   6.557   7.684   0.475  2.1296  0.7365  3.4051
 6569SOL    HW220489   6.465   7.582   0.537 -0.7349  0.8598 -0.3202
 6570SOL     OW20490   1.893   5.790   6.616 -0.0178 -0.2695  0.3348
 6570SOL    HW120491   1.945   5.765   6.539 -0.2198  0.2973  0.0071
 6570SOL    HW220492   1.805   5.805   6.582  0.2517  1.6126  0.3590
 6571SOL     OW20493   7.375   5.069   0.791  0.1966 -0.2662  0.4224
 6571SOL    HW120494   7.314   5.084   0.864 -2.0646 -1.3168 -1.1228
 6571SOL    HW220495   7.346   4.986   0.753  2.2401 -0.4709 -0.8188
 6572SOL     OW20496   2.836   7.871   6.389 -0.2968 -0.0429  0.0336
 6572SOL    HW120497   2.806   7.794   6.342 -0.1629 -1.0623  1.5553
 6572SOL    HW220498   2.789   7.869   6.472  1.3525  0.2534  1.0156
 6573SOL     OW20499   7.472   0.075   7.266  0.2889 -0.2116 -0.1420
 6573SOL    HW120500   7.486   0.148   7.326  0.5160 -0.2464 -0.1503
 6573SOL    HW220501   7.536   0.088   7.196 -0.1892  0.0003 -0.5441
 6574SOL     OW20502   2.468   1.731   3.595  0.4299  0.7869 -0.4853
 6574SOL    HW120503   2.461   1.643   3.558 -1.4652  0.3854  0.7075
 6574SOL    HW220504   2.532   1.722   3.666  1.3378  0.7309 -1.2953
 6575SOL     OW20505   6.699   1.266   7.820 -0.3409 -0.3288  0.0452
 6575SOL    HW120506   6.684   1.298   7.909  1.8272  1.1348 -0.0282
 6575SOL    HW220507   6.790   1.236   7.821 -0.2267 -0.1316 -1.7081
 6576SOL     OW20508   7.814   1.800   2.303  0.0664  0.4844  0.6698
 6576SOL    HW120509   7.729   1.785   2.343  0.0180  0.2751  0.4912
 6576SOL    HW220510   7.828   1.895   2.309 -0.4760  0.6073  0.1126
 6577SOL     OW20511   2.062   5.871   0.699 -0.1256 -0.1244  0.3682
 6577SOL    HW120512   2.066   5.808   0.627 -1.1502 -0.8546  0.9205
 6577SOL    HW220513   2.102   5.825   0.773 -0.5068  0.0366  0.6736
 6578SOL     OW20514   1.069   6.799   5.795  0.5310 -0.4941 -0.4589
 6578SOL    HW120515   1.020   6.881   5.798 -2.4282 -2.1225 -0.2885
 6578SOL    HW220516   1.143   6.818   5.738  1.0577  2.7739  1.0664
 6579SOL     OW20517   6.771   7.228   1.322  0.4043  0.2227  0.0346
 6579SOL    HW120518   6.755   7.249   1.229  1.7437  0.4023 -0.1705
 6579SOL    HW220519   6.687   7.244   1.364 -0.5267 -0.8550 -1.3141
 6580SOL     OW20520   6.187   6.918   7.920  0.5635 -0.1293 -0.6908
 6580SOL    HW120521   6.149   7.004   7.938 -0.3731 -0.6643  0.0111
 6580SOL    HW220522   6.275   6.922   7.955  0.8455  0.8282 -1.4627
 6581SOL     OW20523   3.354   7.256   4.685 -0.1740 -0.0908 -0.3143
 6581SOL    HW120524   3.327   7.191   4.749 -0.9293 -1.4094 -1.8950
 6581SOL    HW220525   3.425   7.304   4.728  2.4700 -3.8323 -0.0411
 6582SOL     OW20526   0.148   1.616   2.611  0.0767 -0.2773 -0.0549
 6582SOL    HW120527   0.151   1.529   2.571  1.8301 -0.3619  0.1739
 6582SOL    HW220528   0.073   1.659   2.570 -1.5000 -2.2458  0.6266
 6583SOL     OW20529   7.000   2.604   3.352  0.7243 -0.2581 -0.2079
 6583SOL    HW120530   7.015   2.630   3.261  2.1016 -0.4439 -0.0534
 6583SOL    HW220531   7.024   2.680   3.404 -0.7822  0.1159  0.0004
 6584SOL     OW20532   5.729   2.927   2.827 -0.0476 -0.2119 -0.3314
 6584SOL    HW120533   5.691   2.860   2.770  0.7429 -0.3847 -0.6862
 6584SOL    HW220534   5.705   2.901   2.915 -1.2765  0.0430 -0.5701
 6585SOL     OW20535   4.569   2.843   5.045 -0.3044  0.1605  0.1801
 6585SOL    HW120536   4.503   2.800   4.991 -1.0379  1.9768 -0.4429
 6585SOL    HW220537   4.527   2.854   5.130 -0.0381 -0.4901  0.4071
 6586SOL     OW20538   7.294   5.404   0.722  0.4533  0.7830  0.3246
 6586SOL    HW120539   7.244   5.367   0.795  1.5095  0.8057  1.0763
 6586SOL    HW220540   7.311   5.329   0.665 -0.8851  0.8678 -0.2395
 6587SOL     OW20541   0.243   1.990   1.744  0.2383  0.3906  0.0250
 6587SOL    HW120542   0.173   1.941   1.701  1.9524 -2.5545  0.3182
 6587SOL    HW220543   0.323   1.940   1.726  2.1797  3.0667  0.4913
 6588SOL     OW20544   6.009   4.177   5.938  0.5738 -0.1789  0.4333
 6588SOL    HW120545   5.921   4.159   5.907  0.4252 -1.4685  1.5377
 6588SOL    HW220546   6.058   4.202   5.859  0.0720 -2.7569 -0.7874
 6589SOL     OW20547   7.893   8.242   5.987  0.3441  0.0593  0.3979
 6589SOL    HW120548   7.828   8.215   6.052 -0.6850  1.5100  0.0232
 6589SOL    HW220549   7.901   8.167   5.929 -2.1078  0.2933 -0.3707
 6590SOL     OW20550   2.861   2.811   6.475  0.9709  0.5258  0.0451
 6590SOL    HW120551   2.866   2.719   6.501  2.2049  0.6237  0.2078
 6590SOL    HW220552   2.794   2.849   6.531 -0.3661 -0.5258 -0.8032
 6591SOL     OW20553   4.068   7.633   5.602 -0.0164  0.1500  0.3078
 6591SOL    HW120554   4.143   7.691   5.592 -0.3539  0.4176 -0.8271
 6591SOL    HW220555   4.067   7.579   5.522 -2.1882  1.5744 -0.7393
 6592SOL     OW20556   8.037   0.896   1.855  0.1621  0.3299 -0.0493
 6592SOL    HW120557   7.950   0.934   1.838  0.3060  0.3532 -0.7718
 6592SOL    HW220558   8.097   0.970   1.848  0.4197  0.0395 -1.2534
 6593SOL     OW20559   6.910   2.155   1.876  0.4692 -0.4128  0.4621
 6593SOL    HW120560   6.933   2.177   1.785  0.3407  0.4201  0.6189
 6593SOL    HW220561   6.957   2.074   1.894  0.4970 -0.5854 -0.3483
 6594SOL     OW20562   4.777   1.695   6.643  0.7910 -0.5477  0.0417
 6594SOL    HW120563   4.796   1.789   6.635  0.0985 -0.3681  0.4128
 6594SOL    HW220564   4.861   1.655   6.663  1.3088 -0.1489 -1.2512
 6595SOL     OW20565   1.465   5.193   6.069 -0.1545 -0.0450  0.4323
 6595SOL    HW120566   1.497   5.283   6.076  0.6274 -0.3966  1.8937
 6595SOL    HW220567   1.540   5.144   6.035 -0.8692 -0.0303 -1.2711
 6596SOL     OW20568   1.574   6.068   0.716  0.3634 -0.2870  0.1202
 6596SOL    HW120569   1.575   6.140   0.654 -1.9333 -0.7394 -0.5413
 6596SOL    HW220570   1.637   6.005   0.680  0.5456  0.3213 -0.6602
 6597SOL     OW20571   6.871   3.862   1.572 -0.1966 -0.2024  0.4939
 6597SOL    HW120572   6.876   3.888   1.664 -3.3486  2.0485  0.1733
 6597SOL    HW220573   6.870   3.945   1.524 -2.6435 -1.1421 -1.2377
 6598SOL     OW20574   5.650   3.496   3.585  0.6016 -0.2035  0.0391
 6598SOL    HW120575   5.695   3.536   3.659 -0.0953  0.9681 -0.1387
 6598SOL    HW220576   5.712   3.505   3.512  1.6339 -2.1069  0.6057
 6599SOL     OW20577   3.926   0.264   1.688  0.3892  0.1455 -0.1726
 6599SOL    HW120578   3.986   0.212   1.741 -1.1605 -0.1280  1.4075
 6599SOL    HW220579   3.963   0.353   1.691  0.8645 -0.0669  0.5254
 6600SOL     OW20580   6.703   1.619   8.246 -0.0031  1.1353 -0.0669
 6600SOL    HW120581   6.781   1.564   8.238 -0.2776  0.8512 -0.8890
 6600SOL    HW220582   6.662   1.591   8.328  0.5151  0.9704  0.1392
 6601SOL     OW20583   1.656   0.463   7.011 -0.1050 -0.6025 -0.2215
 6601SOL    HW120584   1.576   0.515   7.010  0.1665 -0.1764 -0.2558
 6601SOL    HW220585   1.667   0.434   6.920  0.7303  0.8435 -0.6131
 6602SOL     OW20586   4.216   2.436   2.863 -0.1648  0.1688 -0.5938
 6602SOL    HW120587   4.239   2.344   2.848  0.1479 -0.1548  1.5584
 6602SOL    HW220588   4.296   2.476   2.896 -0.9598  0.5409  1.0139
 6603SOL     OW20589   0.739   5.596   1.161 -0.5003 -0.0270  0.3299
 6603SOL    HW120590   0.665   5.537   1.178 -0.5478  0.1246  0.6630
 6603SOL    HW220591   0.815   5.539   1.159 -0.4290  0.0035  1.5561
 6604SOL     OW20592   1.906   3.939   0.130  0.1382  0.5512 -0.0867
 6604SOL    HW120593   1.945   3.996   0.063 -0.2790  0.3024 -0.5538
 6604SOL    HW220594   1.967   3.866   0.138 -0.2534  0.1231 -0.8719
 6605SOL     OW20595   4.780   7.190   6.075 -0.8555  0.7059  0.2394
 6605SOL    HW120596   4.869   7.216   6.053 -0.9974  0.0330 -1.3082
 6605SOL    HW220597   4.784   7.095   6.084 -1.4012  0.6729  0.1907
 6606SOL     OW20598   2.010   6.548   2.999  0.6049  0.5581  0.3658
 6606SOL    HW120599   1.978   6.505   3.078 -0.3542  0.7532  0.0946
 6606SOL    HW220600   2.020   6.477   2.936 -0.0240  0.5911  0.2235
 6607SOL     OW20601   0.249   4.884   5.055 -0.2638 -0.1816  0.6807
 6607SOL    HW120602   0.272   4.814   4.994  0.7962  0.3740  0.4278
 6607SOL    HW220603   0.217   4.955   4.999 -1.6354 -0.5511  0.9559
 6608SOL     OW20604   7.836   4.729   5.342 -0.3439 -0.7385 -0.3255
 6608SOL    HW120605   7.880   4.693   5.265 -2.2297 -1.6645 -1.0072
 6608SOL    HW220606   7.769   4.787   5.307  0.5669  1.0464  0.7142
 6609SOL     OW20607   3.914   4.818   2.800 -0.9860 -0.7804  0.0506
 6609SOL    HW120608   3.877   4.890   2.749 -1.2414 -0.4239  0.7334
 6609SOL    HW220609   3.987   4.786   2.746 -1.4333 -0.6042 -0.6718
 6610SOL     OW20610   1.605   4.155   0.058  0.2726 -0.5343 -0.0474
 6610SOL    HW120611   1.701   4.151   0.059  0.3614  0.7596 -0.8631
 6610SOL    HW220612   1.585   4.246   0.037 -1.1565 -0.4738  1.3571
 6611SOL     OW20613   5.731   1.847   0.526  0.1501 -0.2923  0.6943
 6611SOL    HW120614   5.750   1.759   0.560  0.6732 -0.0335  1.0923
 6611SOL    HW220615   5.801   1.863   0.462  0.3201  0.0078  0.9519
 6612SOL     OW20616   0.531   8.255   0.608  0.5043 -0.6449 -0.4189
 6612SOL    HW120617   0.514   8.163   0.588 -2.4927 -0.2113 -0.4120
 6612SOL    HW220618   0.513   8.301   0.526 -0.1127  0.1004  0.1159
 6613SOL     OW20619   5.599   8.161   2.792 -0.5800 -0.1859 -0.5447
 6613SOL    HW120620   5.603   8.071   2.760  0.9250  0.0323 -1.0698
 6613SOL    HW220621   5.511   8.169   2.830 -0.3646 -2.1926  0.5290
 6614SOL     OW20622   3.917   7.161   4.695  0.9184 -0.1466  0.0278
 6614SOL    HW120623   3.971   7.217   4.640 -0.5992  2.1859  0.7251
 6614SOL    HW220624   3.926   7.199   4.783 -0.9839 -0.3200  0.3337
 6615SOL     OW20625   1.365   5.302   3.624 -0.5580  0.0996 -0.1955
 6615SOL    HW120626   1.318   5.251   3.558  0.3936  0.7996 -1.4610
 6615SOL    HW220627   1.328   5.274   3.707 -0.2421 -2.4892 -0.8366
 6616SOL     OW20628   4.272   7.058   8.248 -0.1040 -0.6145  0.2662
 6616SOL    HW120629   4.271   7.088   8.157  0.9174 -0.2386  0.3723
 6616SOL    HW220630   4.272   7.138   8.300  2.2114 -0.7589  0.5557
 6617SOL     OW20631   7.473   0.932   6.753  0.0547 -0.7405  0.1279
 6617SOL    HW120632   7.502   0.990   6.682 -1.1646 -0.6444 -0.3144
 6617SOL    HW220633   7.457   0.991   6.827 -0.3192 -0.6254 -0.0436
 6618SOL     OW20634   1.161   1.924   7.434 -0.6751  0.5233 -0.4899
 6618SOL    HW120635   1.119   1.896   7.515  1.4959 -0.7341  0.3172
 6618SOL    HW220636   1.090   1.933   7.371 -2.1005 -2.0169  0.5977
 6619SOL     OW20637   2.156   3.058   6.744  0.7302 -0.0117  0.0720
 6619SOL    HW120638   2.108   2.982   6.777 -0.2400  0.0042 -1.2386
 6619SOL    HW220639   2.184   3.032   6.657 -0.9381  1.6387 -1.0308
 6620SOL     OW20640   0.434   3.832   4.091  0.8248 -0.2471  0.5456
 6620SOL    HW120641   0.390   3.770   4.033  0.4984 -1.0967  1.6597
 6620SOL    HW220642   0.519   3.848   4.050  0.3891 -0.3942 -0.4338
 6621SOL     OW20643   4.142   8.060   4.811 -0.0527  0.1776  0.5035
 6621SOL    HW120644   4.210   8.000   4.779  1.0753  1.7704 -0.2336
 6621SOL    HW220645   4.060   8.013   4.795  0.5824 -0.0975 -2.6498
 6622SOL     OW20646   4.371   6.904   6.761 -0.0783 -0.1736  0.2509
 6622SOL    HW120647   4.427   6.836   6.799 -0.9372 -1.7704 -1.1728
 6622SOL    HW220648   4.404   6.915   6.672 -0.6387  0.4977  0.1143
 6623SOL     OW20649   7.768   1.250   1.979 -0.0487  1.1999  0.4283
 6623SOL    HW120650   7.731   1.163   1.998  1.4585  0.4657  0.1553
 6623SOL    HW220651   7.761   1.258   1.884 -0.2924  1.4485  0.4644
 6624SOL     OW20652   0.932   5.476   7.518  0.4834  0.4654 -0.4102
 6624SOL    HW120653   0.871   5.547   7.503 -1.8840 -1.6128 -1.3388
 6624SOL    HW220654   0.956   5.445   7.431  1.4425  0.0673 -0.0317
 6625SOL     OW20655   4.913   7.481   1.817  0.4430  0.2456  0.2345
 6625SOL    HW120656   4.930   7.411   1.881  0.4505  0.1474  0.1256
 6625SOL    HW220657   4.948   7.560   1.858  2.6941 -0.2092 -0.6794
 6626SOL     OW20658   1.604   6.499   5.578 -0.2496 -0.2760 -0.1770
 6626SOL    HW120659   1.526   6.537   5.618 -0.2605 -0.3660 -0.1122
 6626SOL    HW220660   1.674   6.513   5.642 -0.5809 -1.7689  0.5665
 6627SOL     OW20661   4.728   1.362   0.837  0.2154 -0.0073 -0.5794
 6627SOL    HW120662   4.660   1.410   0.790  1.5429  0.7464 -1.8133
 6627SOL    HW220663   4.791   1.336   0.770  0.2720 -2.2920  0.2624
 6628SOL     OW20664   3.417   2.784   4.855 -0.3738 -0.1528 -0.3672
 6628SOL    HW120665   3.494   2.738   4.822 -0.1196 -1.0570  1.3419
 6628SOL    HW220666   3.343   2.728   4.831 -0.6245  0.9752 -2.4777
 6629SOL     OW20667   3.429   0.550   0.761 -0.2593 -0.6584 -0.1931
 6629SOL    HW120668   3.493   0.488   0.726 -0.9494 -1.8817  0.6414
 6629SOL    HW220669   3.481   0.627   0.785  0.4364 -0.3494 -2.4406
 6630SOL     OW20670   0.221   0.237   2.318  0.0551  0.1416 -0.3265
 6630SOL    HW120671   0.216   0.251   2.224 -1.4589  1.1513 -0.1297
 6630SOL    HW220672   0.290   0.171   2.329  1.8719  1.6704 -1.9367
 6631SOL     OW20673   6.559   2.164   7.269  0.4736 -0.3173  0.2249
 6631SOL    HW120674   6.642   2.212   7.271  0.1520  0.4991 -2.3821
 6631SOL    HW220675   6.497   2.220   7.316  0.3997  1.2880 -1.7023
 6632SOL     OW20676   2.157   8.045   5.339  0.2771  0.1246 -0.8113
 6632SOL    HW120677   2.169   8.059   5.433  0.3758 -0.7565 -0.6775
 6632SOL    HW220678   2.069   8.008   5.332  0.2780  0.1695 -1.0572
 6633SOL     OW20679   5.429   8.033   6.658 -0.0100 -0.4637 -0.5406
 6633SOL    HW120680   5.428   7.990   6.744 -0.8597 -0.5478 -0.5802
 6633SOL    HW220681   5.486   7.978   6.604 -0.7835 -1.3386 -0.4883
 6634SOL     OW20682   5.255   6.658   4.393  0.5362 -0.1890 -0.0892
 6634SOL    HW120683   5.239   6.731   4.334  0.4109  0.1728  0.3858
 6634SOL    HW220684   5.187   6.666   4.460  2.0407  0.7652  1.3822
 6635SOL     OW20685   0.902   6.209   2.562  0.0294 -0.4799  0.1624
 6635SOL    HW120686   0.809   6.226   2.543 -0.4282 -0.9073  1.7846
 6635SOL    HW220687   0.914   6.117   2.538 -0.8766 -1.3966  2.7685
 6636SOL     OW20688   2.602   7.577   2.842 -0.0761  0.5052 -0.4718
 6636SOL    HW120689   2.547   7.546   2.913 -0.1754 -0.9601 -1.1450
 6636SOL    HW220690   2.672   7.512   2.836  1.0691  1.6739 -0.4285
 6637SOL     OW20691   7.365   2.501   7.926  0.1161 -0.1011  0.0381
 6637SOL    HW120692   7.415   2.569   7.969  0.9699 -0.7078  0.0271
 6637SOL    HW220693   7.294   2.481   7.987 -0.0926  0.7335  0.0716
 6638SOL     OW20694   4.970   8.220   7.471  0.0453  0.2296  0.4055
 6638SOL    HW120695   4.900   8.177   7.520  1.1024 -1.2214  0.7163
 6638SOL    HW220696   5.041   8.231   7.535  0.0554  1.8581  0.1518
 6639SOL     OW20697   7.970   1.716   2.092 -0.1452  0.0412  0.0809
 6639SOL    HW120698   7.916   1.648   2.051  1.0075  0.2022 -1.7788
 6639SOL    HW220699   7.919   1.744   2.168 -1.2919 -1.9095  0.0989
 6640SOL     OW20700   1.869   6.665   6.522  0.6078 -0.2895 -0.0357
 6640SOL    HW120701   1.801   6.642   6.586 -0.2162  0.3234 -0.6594
 6640SOL    HW220702   1.935   6.711   6.573  0.3620 -0.5421  0.5221
 6641SOL     OW20703   0.223   5.639   4.813 -0.4756  0.1547 -0.6186
 6641SOL    HW120704   0.256   5.706   4.753  1.6160 -0.6272 -0.4452
 6641SOL    HW220705   0.201   5.565   4.757  1.6056 -0.6249 -0.4988
 6642SOL     OW20706   4.685   6.411   2.158 -0.2127  0.7667  0.1405
 6642SOL    HW120707   4.751   6.429   2.091  0.6623  0.3631  0.8712
 6642SOL    HW220708   4.731   6.425   2.241 -0.6092 -0.8872  0.6838
 6643SOL     OW20709   2.141   1.866   7.475 -0.5648 -0.1810  0.1478
 6643SOL    HW120710   2.117   1.786   7.428 -3.9323  0.6850  0.1448
 6643SOL    HW220711   2.132   1.843   7.567 -2.0018  0.2711  0.1384
 6644SOL     OW20712   1.952   6.844   4.786 -0.3438  0.2228  0.4956
 6644SOL    HW120713   1.989   6.878   4.704  0.0637  2.9836  1.6885
 6644SOL    HW220714   1.864   6.815   4.763 -0.5033  1.6073 -0.8250
 6645SOL     OW20715   2.192   3.712   7.988 -0.7522  0.4185 -0.8049
 6645SOL    HW120716   2.201   3.683   8.078 -1.0401  0.2407 -0.8323
 6645SOL    HW220717   2.166   3.804   7.995 -0.2187  0.5615 -0.7139
 6646SOL     OW20718   2.880   7.855   3.150 -0.5832  0.2696  0.3823
 6646SOL    HW120719   2.863   7.806   3.069  0.4755 -0.1958  0.4253
 6646SOL    HW220720   2.964   7.821   3.181 -1.2466  0.0208  1.9953
 6647SOL     OW20721   5.751   0.403   2.654 -0.1049 -0.2462 -0.0773
 6647SOL    HW120722   5.747   0.326   2.597  1.1235 -1.5388  1.4685
 6647SOL    HW220723   5.673   0.396   2.709 -0.3477 -0.0029 -0.3892
 6648SOL     OW20724   7.494   5.444   1.899 -0.0736 -0.2315  0.1849
 6648SOL    HW120725   7.475   5.479   1.986 -0.0229  3.4846 -1.1460
 6648SOL    HW220726   7.587   5.464   1.886 -0.2664 -0.1125 -1.0243
 6649SOL     OW20727   0.279   0.818   7.413  0.6992 -0.1769 -0.1803
 6649SOL    HW120728   0.206   0.781   7.364  0.5698 -2.6735  1.7029
 6649SOL    HW220729   0.299   0.900   7.368 -3.2385  0.6616 -0.7774
 6650SOL     OW20730   7.857   6.588   1.133  0.2199  0.0253 -0.8629
 6650SOL    HW120731   7.843   6.677   1.166 -0.4329 -0.3317 -0.1434
 6650SOL    HW220732   7.787   6.536   1.172  1.3340 -1.0721 -0.2105
 6651SOL     OW20733   5.610   7.752   2.058 -0.0581 -0.3672 -0.4653
 6651SOL    HW120734   5.600   7.752   1.963  1.3078  0.2893 -0.6255
 6651SOL    HW220735   5.629   7.843   2.080 -2.0914 -0.1588  0.6657
 6652SOL     OW20736   2.076   2.283   5.919  0.2344  0.5200  0.1269
 6652SOL    HW120737   2.125   2.234   5.853 -0.3369  2.4053 -1.8255
 6652SOL    HW220738   2.014   2.220   5.955  2.2597 -1.2387  0.8097
 6653SOL     OW20739   2.501   6.992   5.587  0.0943 -0.8660  0.3776
 6653SOL    HW120740   2.520   7.060   5.523 -2.9774  0.9063  1.1086
 6653SOL    HW220741   2.533   7.027   5.670  1.5911 -1.9184  0.2735
 6654SOL     OW20742   3.625   1.436   0.356  0.0599  0.5615 -0.5767
 6654SOL    HW120743   3.673   1.518   0.352 -1.9226  1.7524 -1.2166
 6654SOL    HW220744   3.621   1.406   0.265 -0.7527  0.7055 -0.5984
 6655SOL     OW20745   8.061   0.778   4.075  0.1374 -0.4391 -0.3428
 6655SOL    HW120746   8.146   0.801   4.113  0.9817 -2.2463 -1.0042
 6655SOL    HW220747   8.078   0.698   4.026 -1.3264  0.6891 -2.9068
 6656SOL     OW20748   2.333   2.713   5.613  0.2625  0.4084  0.5242
 6656SOL    HW120749   2.398   2.645   5.632 -0.1574 -0.4272 -0.9021
 6656SOL    HW220750   2.278   2.716   5.691 -0.2681 -1.5738  0.2821
 6657SOL     OW20751   8.117   4.974   2.568 -0.0438  0.1680 -0.2584
 6657SOL    HW120752   8.198   4.992   2.521  0.1461 -1.8105 -0.7618
 6657SOL    HW220753   8.142   4.916   2.639 -0.6287  1.7045  1.2929
 6658SOL     OW20754   6.108   3.201   3.713 -0.0266  0.1083 -0.2361
 6658SOL    HW120755   6.153   3.222   3.631  0.4162 -0.5238 -0.1637
 6658SOL    HW220756   6.178   3.177   3.773 -0.4189 -0.4094  0.0233
 6659SOL     OW20757   5.245   8.272   2.685 -0.1011  0.1113  0.0217
 6659SOL    HW120758   5.272   8.264   2.777 -0.9973  3.3717  0.6952
 6659SOL    HW220759   5.322   8.243   2.635  0.6365 -1.1138  1.7604
 6660SOL     OW20760   1.591   2.352   7.260  0.3162 -0.5509 -0.0308
 6660SOL    HW120761   1.612   2.335   7.352  0.4619  0.3143  0.1062
 6660SOL    HW220762   1.526   2.423   7.264  2.0869  1.1930 -0.6526
 6661SOL     OW20763   2.004   3.942   1.929  0.2263 -0.3569 -0.2124
 6661SOL    HW120764   2.002   3.873   1.995 -1.0106 -0.7513 -0.6273
 6661SOL    HW220765   2.090   3.932   1.887  0.8002 -0.4596  0.9409
 6662SOL     OW20766   3.612   7.111   5.135 -0.0892 -0.1479 -0.0500
 6662SOL    HW120767   3.611   7.195   5.181  0.5850 -0.6663  0.9601
 6662SOL    HW220768   3.699   7.108   5.094 -0.3773 -0.0543 -0.6821
 6663SOL     OW20769   0.384   6.560   3.078 -0.1688 -0.7926 -0.0330
 6663SOL    HW120770   0.412   6.619   3.008 -1.0671  0.3196  0.5124
 6663SOL    HW220771   0.358   6.480   3.032 -0.4076 -0.2061 -0.9476
 6664SOL     OW20772   4.044   2.078   1.565  0.5484  0.3611 -0.4506
 6664SOL    HW120773   4.026   2.135   1.639  1.0579  1.3195 -1.0395
 6664SOL    HW220774   4.133   2.047   1.579 -0.4240 -2.0494  0.9648
 6665SOL     OW20775   5.692   3.283   2.770 -0.2874  0.3691  0.0250
 6665SOL    HW120776   5.613   3.332   2.748 -0.9073  0.5601  2.3717
 6665SOL    HW220777   5.713   3.310   2.860  0.2801 -2.4492  0.8465
 6666SOL     OW20778   1.701   6.206   7.903 -0.5691 -0.6057  0.8160
 6666SOL    HW120779   1.650   6.125   7.900 -0.8083 -0.4303 -0.3562
 6666SOL    HW220780   1.658   6.264   7.841 -0.1638  0.2893  1.3513
 6667SOL     OW20781   3.245   7.784   4.993 -0.2427 -0.1400  0.4432
 6667SOL    HW120782   3.195   7.792   4.912  1.3028 -0.0573 -0.5304
 6667SOL    HW220783   3.283   7.696   4.988  0.0861 -0.0258  0.9553
 6668SOL     OW20784   5.718   5.806   2.039 -0.1231  0.1623  0.1676
 6668SOL    HW120785   5.786   5.806   1.972 -0.7639 -0.5287 -0.5104
 6668SOL    HW220786   5.730   5.723   2.086 -0.8440 -0.2565 -0.3503
 6669SOL     OW20787   0.096   3.363   3.349  0.0106 -0.1805 -0.5436
 6669SOL    HW120788   0.093   3.453   3.316 -0.4458 -0.2854 -0.8151
 6669SOL    HW220789   0.066   3.310   3.274  2.6097 -0.8244 -1.2289
 6670SOL     OW20790   7.895   1.199   4.100 -0.2354  0.2625  0.2300
 6670SOL    HW120791   7.966   1.263   4.108  0.0017 -0.0566  0.7745
 6670SOL    HW220792   7.858   1.214   4.013  1.6821 -0.7684 -0.8219
 6671SOL     OW20793   4.616   7.753   7.846 -0.0041  0.3969 -0.5614
 6671SOL    HW120794   4.663   7.815   7.791  1.5170 -0.8765 -0.7659
 6671SOL    HW220795   4.653   7.767   7.934 -0.3747  0.4597 -0.4136
 6672SOL     OW20796   1.798   0.399   6.147  0.1014  0.5204 -0.1069
 6672SOL    HW120797   1.821   0.309   6.173 -0.0548  0.5490  0.1419
 6672SOL    HW220798   1.792   0.396   6.052  0.4218  0.3439 -0.1241
 6673SOL     OW20799   0.151   6.342   0.371  0.5188 -0.1843 -0.3280
 6673SOL    HW120800   0.225   6.281   0.371 -0.3501 -1.2842  0.2264
 6673SOL    HW220801   0.183   6.418   0.420  1.4961 -0.3631 -0.6719
 6674SOL     OW20802   2.299   8.134   7.107 -0.3805 -0.2442  0.2796
 6674SOL    HW120803   2.320   8.125   7.200  2.1934  0.1254 -0.1941
 6674SOL    HW220804   2.296   8.044   7.075  1.0647 -0.3247  0.3009
 6675SOL     OW20805   7.545   1.355   5.858  0.5123 -0.4152  0.6353
 6675SOL    HW120806   7.486   1.344   5.783  0.7506  0.4205  0.3165
 6675SOL    HW220807   7.527   1.279   5.914 -1.8224  0.4813  1.2117
 6676SOL     OW20808   2.841   6.000   0.731  0.1231  0.5531  0.2892
 6676SOL    HW120809   2.805   6.068   0.675  1.5625  0.8576 -0.3147
 6676SOL    HW220810   2.796   6.011   0.814  0.2625  2.2034  0.1833
 6677SOL     OW20811   5.710   6.431   2.225  0.3449 -0.1775  0.1704
 6677SOL    HW120812   5.775   6.477   2.172 -0.2453  0.4492 -0.0229
 6677SOL    HW220813   5.647   6.499   2.250  0.4926 -0.4994  1.5004
 6678SOL     OW20814   7.506   1.208   3.306 -0.2365  0.0431 -0.3655
 6678SOL    HW120815   7.581   1.150   3.291 -0.0907  0.4970 -1.4905
 6678SOL    HW220816   7.430   1.151   3.294 -0.0882 -0.0328 -0.9934
 6679SOL     OW20817   8.278   7.139   7.112 -0.0456  0.1023 -0.0195
 6679SOL    HW120818   8.292   7.098   7.026 -0.7034 -0.1446 -0.0198
 6679SOL    HW220819   8.187   7.170   7.108 -0.2483 -0.3765  0.7750
 6680SOL     OW20820   2.759   1.868   5.615 -0.2493 -0.1041 -0.5896
 6680SOL    HW120821   2.832   1.824   5.658  0.1151 -0.7473 -1.8372
 6680SOL    HW220822   2.721   1.923   5.684 -0.6156 -2.1861  0.9959
 6681SOL     OW20823   7.480   7.746   0.303 -0.7874 -0.5570  0.4199
 6681SOL    HW120824   7.452   7.675   0.360 -0.0135 -1.2537 -0.0301
 6681SOL    HW220825   7.526   7.702   0.231 -0.1084  0.4110  0.2395
 6682SOL     OW20826   1.570   3.782   5.528  0.5937 -0.4767  0.7400
 6682SOL    HW120827   1.519   3.794   5.447  2.3565 -0.7038 -0.4513
 6682SOL    HW220828   1.506   3.797   5.598 -1.2923 -1.4713 -0.6580
 6683SOL     OW20829   1.229   0.870   5.208 -0.0267  0.2926 -0.5078
 6683SOL    HW120830   1.165   0.903   5.271 -0.4367 -1.6178  0.1478
 6683SOL    HW220831   1.184   0.799   5.163  1.4424 -0.7345 -0.4214
 6684SOL     OW20832   5.660   2.544   5.606  0.6113  0.0580 -0.3235
 6684SOL    HW120833   5.575   2.521   5.569  0.7896 -0.2803 -0.5274
 6684SOL    HW220834   5.687   2.465   5.654 -0.8953  1.3340  2.9622
 6685SOL     OW20835   5.047   5.038   6.041 -0.0520  0.3020  0.2205
 6685SOL    HW120836   5.133   5.000   6.060 -0.4880 -0.6500  0.3307
 6685SOL    HW220837   5.012   4.985   5.970 -0.6265  0.5738  0.2949
 6686SOL     OW20838   6.567   0.550   4.509  0.2065  0.1903 -0.2215
 6686SOL    HW120839   6.574   0.520   4.418  1.1965  1.9485 -0.7733
 6686SOL    HW220840   6.654   0.584   4.530 -0.3017  0.7919  1.0095
 6687SOL     OW20841   5.827   0.887   6.902 -0.4328  0.6958  0.0805
 6687SOL    HW120842   5.755   0.844   6.949 -0.6376  0.8405 -0.0986
 6687SOL    HW220843   5.823   0.978   6.930 -1.9028  1.2782 -1.8002
 6688SOL     OW20844   1.470   5.160   4.927  0.4555  0.6717  0.1142
 6688SOL    HW120845   1.474   5.256   4.927  2.0785  0.6444  1.2876
 6688SOL    HW220846   1.478   5.136   4.835 -0.3818  1.6586 -0.2404
 6689SOL     OW20847   2.296   3.497   2.394 -0.1695  0.4187 -0.3928
 6689SOL    HW120848   2.335   3.431   2.452  0.3103  2.0794  1.2764
 6689SOL    HW220849   2.235   3.545   2.450  0.3060  2.0870 -1.2556
 6690SOL     OW20850   8.006   6.346   4.406 -0.2175  0.0096  0.6065
 6690SOL    HW120851   8.084   6.307   4.367  0.2944  0.1068  1.5063
 6690SOL    HW220852   7.933   6.296   4.370  0.2562 -0.0861 -0.2384
 6691SOL     OW20853   6.856   0.302   2.336  0.1171  0.4349 -0.2927
 6691SOL    HW120854   6.842   0.208   2.324 -0.4629  0.3504  0.8810
 6691SOL    HW220855   6.825   0.342   2.255 -2.0903 -0.1937  0.1909
 6692SOL     OW20856   2.436   7.413   1.521 -0.2488 -0.5037  0.2451
 6692SOL    HW120857   2.468   7.335   1.475  0.5824 -0.1905  0.2914
 6692SOL    HW220858   2.399   7.467   1.451 -0.9586 -0.9897  0.2285
 6693SOL     OW20859   7.523   7.494   1.098  0.2559 -0.6593  0.2622
 6693SOL    HW120860   7.494   7.418   1.047  0.3730  0.4203 -1.4675
 6693SOL    HW220861   7.604   7.523   1.055  0.9703 -0.3450  1.7330
 6694SOL     OW20862   2.011   2.948   7.814 -0.2161  0.5908 -0.3619
 6694SOL    HW120863   2.102   2.950   7.844 -0.9278 -1.1037  2.2204
 6694SOL    HW220864   2.009   2.881   7.746  0.2668 -0.1818  0.3775
 6695SOL     OW20865   3.811   6.454   7.494 -0.3931 -0.0286 -0.2765
 6695SOL    HW120866   3.738   6.501   7.534 -0.1612  1.7007 -1.7889
 6695SOL    HW220867   3.849   6.403   7.566 -2.8813 -0.7838  0.6140
 6696SOL     OW20868   3.911   1.343   6.118 -0.1030  0.0009  0.1009
 6696SOL    HW120869   3.933   1.333   6.211  2.0316  1.0997 -0.2282
 6696SOL    HW220870   3.833   1.399   6.117 -0.0980  0.0456  1.2099
 6697SOL     OW20871   5.998   8.117   6.373 -0.1584 -0.2386 -0.3402
 6697SOL    HW120872   6.067   8.183   6.381 -0.6125  0.6337 -2.7766
 6697SOL    HW220873   5.933   8.142   6.438  0.3299  0.8913 -0.2652
 6698SOL     OW20874   1.859   2.465   6.126 -0.2124  0.3596  0.4402
 6698SOL    HW120875   1.865   2.377   6.162 -0.6598  0.6204  1.1726
 6698SOL    HW220876   1.936   2.511   6.159  0.7118 -0.1173 -0.9953
 6699SOL     OW20877   3.855   5.029   7.459  0.2654 -0.0225 -0.1465
 6699SOL    HW120878   3.881   5.003   7.547  1.5265  0.3130 -0.4100
 6699SOL    HW220879   3.775   5.080   7.471  0.7435  0.5029  0.8547
 6700SOL     OW20880   1.834   8.266   1.465 -0.1270 -0.3427  0.7447
 6700SOL    HW120881   1.850   8.176   1.495  1.4689  0.2155  1.6943
 6700SOL    HW220882   1.864   8.266   1.374  2.3694 -0.2028  1.4810
 6701SOL     OW20883   1.516   5.634   7.500  0.3105 -0.7585 -0.1156
 6701SOL    HW120884   1.475   5.718   7.481 -0.1571 -0.8972  0.2684
 6701SOL    HW220885   1.457   5.592   7.562  0.7977 -1.1587  0.0848
 6702SOL     OW20886   3.246   2.564   7.572  0.0146  0.1130  0.6752
 6702SOL    HW120887   3.240   2.654   7.542  2.0748  0.3313  0.8215
 6702SOL    HW220888   3.269   2.570   7.665 -0.8630 -0.5764  0.9568
 6703SOL     OW20889   0.574   3.958   6.844 -0.1535 -0.0458  0.0336
 6703SOL    HW120890   0.664   3.943   6.816  0.1918  2.0029 -0.1302
 6703SOL    HW220891   0.522   3.948   6.765  0.0066 -0.5846 -0.0072
 6704SOL     OW20892   0.358   5.464   5.003 -0.4660 -0.2535 -0.4841
 6704SOL    HW120893   0.335   5.522   4.930 -1.7276 -1.0012 -0.6982
 6704SOL    HW220894   0.276   5.423   5.028 -0.2261  0.5852  1.9185
 6705SOL     OW20895   0.295   7.803   7.224 -0.1983 -0.3809 -0.1169
 6705SOL    HW120896   0.230   7.743   7.262 -0.8525  0.7038  0.5185
 6705SOL    HW220897   0.285   7.884   7.274  0.3694  0.4087 -1.2557
 6706SOL     OW20898   2.265   1.769   0.367  0.4558  0.2904  0.4331
 6706SOL    HW120899   2.350   1.754   0.407  1.3588  1.8875 -0.7878
 6706SOL    HW220900   2.227   1.841   0.418  0.0919  0.0126  0.5660
 6707SOL     OW20901   0.078   2.198   8.023 -0.6053 -0.1721  0.4817
 6707SOL    HW120902   0.098   2.115   8.067  0.2566 -0.0485  0.3320
 6707SOL    HW220903  -0.002   2.229   8.066  0.2853  0.0245  2.0799
 6708SOL     OW20904   5.908   2.478   1.486  0.6486 -0.4037 -0.1426
 6708SOL    HW120905   5.997   2.498   1.458  0.8652 -0.7238  0.3149
 6708SOL    HW220906   5.910   2.486   1.581 -0.1566  0.9951 -0.2109
 6709SOL     OW20907   3.226   1.192   7.450  0.3427  0.1550 -0.0361
 6709SOL    HW120908   3.136   1.222   7.436 -0.0859 -1.6008 -1.3591
 6709SOL    HW220909   3.222   1.144   7.533  0.0278 -0.0341 -0.1572
 6710SOL     OW20910   2.925   4.904   2.681 -0.8549  1.2327  0.2691
 6710SOL    HW120911   2.934   4.981   2.737  0.3423  1.0881  0.2979
 6710SOL    HW220912   2.984   4.839   2.720 -0.5967  0.8652 -0.7022
 6711SOL     OW20913   5.420   2.325   0.674  0.0694  0.5165  0.2896
 6711SOL    HW120914   5.436   2.415   0.643  1.4257  0.3150  0.3302
 6711SOL    HW220915   5.470   2.270   0.615 -0.6897 -0.2260  0.3175
 6712SOL     OW20916   1.536   6.071   2.252  0.1392 -0.1860  0.5037
 6712SOL    HW120917   1.597   6.104   2.187  0.7872 -1.3018  0.5296
 6712SOL    HW220918   1.453   6.061   2.205  0.8033 -1.7488 -0.3783
 6713SOL     OW20919   2.971   5.932   0.231 -0.2857 -0.2682  0.5403
 6713SOL    HW120920   2.945   5.896   0.146  0.0967 -1.4459  0.9095
 6713SOL    HW220921   3.026   6.007   0.209 -1.4116  0.3544 -0.2405
 6714SOL     OW20922   5.344   5.617   8.161  0.1058 -0.1479 -0.4528
 6714SOL    HW120923   5.385   5.537   8.195 -0.1009  0.3101  0.9457
 6714SOL    HW220924   5.309   5.661   8.239 -2.0629  0.0330 -1.4574
 6715SOL     OW20925   5.970   0.848   3.512  0.0478  0.4692  0.1686
 6715SOL    HW120926   6.066   0.843   3.509  0.0534  0.3619  0.4651
 6715SOL    HW220927   5.941   0.761   3.484  0.0157  0.8139 -0.8944
 6716SOL     OW20928   2.194   7.695   5.690 -0.0575 -0.1113 -0.0492
 6716SOL    HW120929   2.252   7.625   5.660 -1.3411 -0.8583 -0.9006
 6716SOL    HW220930   2.253   7.766   5.715  1.2538 -1.2693  0.2739
 6717SOL     OW20931   2.360   7.503   5.215  0.7984  0.3085  0.2893
 6717SOL    HW120932   2.330   7.560   5.286  1.5314  1.5132 -0.3501
 6717SOL    HW220933   2.440   7.544   5.183  0.1838  0.1105 -1.6344
 6718SOL     OW20934   1.170   2.891   3.059 -0.8107 -0.2082 -0.0425
 6718SOL    HW120935   1.222   2.876   3.138  1.1540  0.7468 -1.0848
 6718SOL    HW220936   1.117   2.812   3.049  1.9523 -2.1991 -0.0264
 6719SOL     OW20937   7.534   5.050   8.127 -0.1333  0.2558 -0.4201
 6719SOL    HW120938   7.611   5.067   8.072 -0.5315  1.2682 -0.6764
 6719SOL    HW220939   7.493   5.135   8.138 -1.5029 -0.3449 -0.6855
 6720SOL     OW20940   0.723   5.060   1.663  0.6808 -0.2508  0.3895
 6720SOL    HW120941   0.722   5.143   1.711 -0.9090 -0.1114  0.1757
 6720SOL    HW220942   0.815   5.048   1.638  0.8730  1.7322 -0.0542
 6721SOL     OW20943   7.372   3.649   8.061  0.5263 -0.0717  0.5574
 6721SOL    HW120944   7.411   3.561   8.063  3.9761  1.2484 -0.9927
 6721SOL    HW220945   7.417   3.694   7.989 -2.5714  2.4053 -0.0689
 6722SOL     OW20946   1.742   5.838   3.751  0.0976  0.1079 -0.9215
 6722SOL    HW120947   1.679   5.907   3.731  0.4878  0.4729 -0.8988
 6722SOL    HW220948   1.688   5.764   3.781 -0.4529 -0.1905 -2.5548
 6723SOL     OW20949   8.057   6.460   8.298 -0.0591 -0.8648  0.1897
 6723SOL    HW120950   7.966   6.473   8.272  0.2014 -1.6171 -1.1921
 6723SOL    HW220951   8.053   6.395   8.368 -0.7222  0.6921  1.6703
 6724SOL     OW20952   1.847   6.574   7.989  0.2800  0.4147 -0.0721
 6724SOL    HW120953   1.916   6.638   7.974 -0.1008  1.8834  3.5942
 6724SOL    HW220954   1.766   6.624   7.985 -0.3392 -0.5947 -0.7569
 6725SOL     OW20955   3.431   1.720   6.981 -0.1340  0.4104 -0.0035
 6725SOL    HW120956   3.471   1.747   6.898  0.8126 -0.5637  0.1140
 6725SOL    HW220957   3.421   1.801   7.031  1.5551  0.7148 -0.1094
 6726SOL     OW20958   6.673   2.444   7.757  0.2022  0.1883 -0.6920
 6726SOL    HW120959   6.678   2.521   7.701  0.4183  0.7854  0.1341
 6726SOL    HW220960   6.598   2.461   7.814  0.2678 -0.2058 -0.4831
 6727SOL     OW20961   8.285   5.178   5.268  0.0089  0.0535 -0.7556
 6727SOL    HW120962   8.348   5.171   5.340 -1.5731  1.8474  0.9199
 6727SOL    HW220963   8.241   5.093   5.267  0.3161 -0.1289  0.1535
 6728SOL     OW20964   1.641   1.778   7.194  0.2611  0.5417 -0.5561
 6728SOL    HW120965   1.571   1.844   7.191 -0.2765 -0.0584 -2.1837
 6728SOL    HW220966   1.614   1.712   7.131  0.3937 -1.6819  1.5913
 6729SOL     OW20967   3.787   2.907   1.244  0.2645  0.1206 -0.0800
 6729SOL    HW120968   3.840   2.833   1.213  0.6534  1.0285 -1.6690
 6729SOL    HW220969   3.851   2.970   1.277  0.0918  0.5736 -0.5930
 6730SOL     OW20970   7.114   0.119   7.921 -0.6671 -0.2929 -0.1959
 6730SOL    HW120971   7.058   0.044   7.898  0.2082 -1.8459  2.3695
 6730SOL    HW220972   7.162   0.090   7.998  1.0247  2.3298 -0.1622
 6731SOL     OW20973   4.888   3.204   3.501 -0.3847  0.3067  0.0761
 6731SOL    HW120974   4.977   3.230   3.476  0.0030 -0.4698  0.5984
 6731SOL    HW220975   4.864   3.266   3.570  0.4868 -0.6147  1.2367
 6732SOL     OW20976   2.732   0.987   4.947 -0.1213  0.0687  0.4338
 6732SOL    HW120977   2.805   0.934   4.915 -1.3780 -2.5484  1.6184
 6732SOL    HW220978   2.656   0.955   4.898 -1.1457 -0.2717  2.1537
 6733SOL     OW20979   7.028   3.489   3.633  0.3131 -0.0138  0.0018
 6733SOL    HW120980   7.094   3.468   3.698 -0.6944 -1.0193  0.7455
 6733SOL    HW220981   6.949   3.508   3.685 -0.1011  0.7212 -0.8705
 6734SOL     OW20982   3.584   7.550   4.007  0.3766 -0.1111  0.4839
 6734SOL    HW120983   3.560   7.458   4.008  0.0577 -0.0660 -0.9079
 6734SOL    HW220984   3.567   7.579   3.918  1.5006  1.0280  0.5946
 6735SOL     OW20985   7.258   4.649   4.976  0.4549  0.7536 -0.2275
 6735SOL    HW120986   7.217   4.733   4.953  0.5001  0.5500 -1.0733
 6735SOL    HW220987   7.185   4.588   4.984  0.5263  0.5611 -0.9945
 6736SOL     OW20988   7.151   6.557   5.738  0.5404  0.0720  0.1251
 6736SOL    HW120989   7.090   6.626   5.763 -1.0151 -1.0876 -0.2921
 6736SOL    HW220990   7.124   6.532   5.650  1.2303 -0.8907  0.1730
 6737SOL     OW20991   7.309   6.783   2.168 -0.1250  0.1378 -0.0968
 6737SOL    HW120992   7.350   6.714   2.220  3.2221  1.0636 -1.2292
 6737SOL    HW220993   7.358   6.862   2.190 -1.8760  1.5725 -1.0549
 6738SOL     OW20994   6.638   2.775   3.071  0.7137 -0.1399 -0.4792
 6738SOL    HW120995   6.679   2.700   3.028  0.6330 -1.1375  1.1038
 6738SOL    HW220996   6.671   2.771   3.161  0.1403  1.3193 -0.1812
 6739SOL     OW20997   4.525   6.231   6.308  1.0704  0.0544  0.5831
 6739SOL    HW120998   4.455   6.188   6.260  1.2102 -0.7131  1.0485
 6739SOL    HW220999   4.561   6.163   6.365 -0.8101  1.4522  3.7624
 6740SOL     OW21000   1.403   0.704   5.662 -0.1724 -0.6191 -0.7719
 6740SOL    HW121001   1.409   0.659   5.577 -0.1239 -0.2849 -0.9478
 6740SOL    HW221002   1.358   0.642   5.719  0.7398 -1.2916 -0.7458
 6741SOL     OW21003   0.674   7.941   6.919  0.1851 -0.2170  0.1155
 6741SOL    HW121004   0.744   7.903   6.971 -0.0489  0.5988  1.0685
 6741SOL    HW221005   0.669   7.886   6.840 -0.6784 -2.6118  1.7492
 6742SOL     OW21006   6.546   0.856   4.589 -0.1983  0.6506  0.0226
 6742SOL    HW121007   6.559   0.791   4.658  0.3594  1.2210  0.4599
 6742SOL    HW221008   6.634   0.884   4.565 -0.4216  1.0193 -0.3850
 6743SOL     OW21009   2.804   7.987   2.612 -0.1353 -0.6184  0.2130
 6743SOL    HW121010   2.757   7.983   2.528  0.1439 -0.8575  0.0664
 6743SOL    HW221011   2.801   8.080   2.636  0.9950 -0.3099 -0.7590
 6744SOL     OW21012   5.954   6.613   1.095  0.2280  0.1863  0.7208
 6744SOL    HW121013   6.047   6.633   1.099  0.1000  1.0321 -0.2150
 6744SOL    HW221014   5.913   6.694   1.063 -0.6135 -0.7642 -0.7009
 6745SOL     OW21015   1.585   8.060   5.859  0.1616 -0.3379 -0.0165
 6745SOL    HW121016   1.528   7.985   5.871  1.2687 -1.2965 -0.5968
 6745SOL    HW221017   1.554   8.100   5.777 -0.3504 -0.2190  0.2298
 6746SOL     OW21018   2.310   2.981   3.987 -0.2940  0.6067 -0.0043
 6746SOL    HW121019   2.393   3.011   4.023 -1.0599  0.9601  1.5599
 6746SOL    HW221020   2.327   2.970   3.893  1.2009  1.7291  0.0953
 6747SOL     OW21021   5.285   1.629   3.342  0.2364  0.3218  0.0197
 6747SOL    HW121022   5.359   1.650   3.398  1.6687  0.2453 -1.7617
 6747SOL    HW221023   5.253   1.545   3.375  0.9944  0.3089  0.7477
 6748SOL     OW21024   2.908   2.049   6.007  0.8132  0.0281  0.9335
 6748SOL    HW121025   2.911   2.140   6.038 -1.2110 -0.1588  1.8205
 6748SOL    HW221026   2.957   2.000   6.074  0.5533  0.2585  1.2944
 6749SOL     OW21027   1.445   3.570   1.045  0.4376 -0.6290 -0.2000
 6749SOL    HW121028   1.486   3.652   1.074 -1.6273  0.5425 -0.4486
 6749SOL    HW221029   1.477   3.557   0.956  0.4354  0.1302 -0.3109
 6750SOL     OW21030   3.750   7.809   1.321 -0.2254 -0.2757  0.1339
 6750SOL    HW121031   3.669   7.833   1.276  0.2517  0.8642 -0.1565
 6750SOL    HW221032   3.757   7.871   1.393 -1.3642 -2.5251  2.3831
 6751SOL     OW21033   2.535   6.057   5.040  0.3059 -0.2311  0.7533
 6751SOL    HW121034   2.519   6.075   4.948  1.6190 -0.2729  0.5070
 6751SOL    HW221035   2.561   6.141   5.077 -1.2882  0.0379  1.3588
 6752SOL     OW21036   0.816   2.212   6.064  0.1477 -0.5781  0.2766
 6752SOL    HW121037   0.814   2.148   6.136 -0.2544  0.0117  0.8017
 6752SOL    HW221038   0.901   2.254   6.072  0.5277 -1.2334 -0.2426
 6753SOL     OW21039   6.090   0.828   7.256 -0.5036 -0.7846 -0.1626
 6753SOL    HW121040   6.068   0.778   7.177  1.7136 -2.9689  0.5025
 6753SOL    HW221041   6.140   0.903   7.223 -0.0561 -1.3813 -0.8912
 6754SOL     OW21042   4.611   2.741   0.739 -0.2604 -0.2273  0.1189
 6754SOL    HW121043   4.590   2.832   0.760  1.9391  0.0417  1.5309
 6754SOL    HW221044   4.573   2.726   0.653  0.1536  2.3442 -0.5865
 6755SOL     OW21045   5.719   5.240   1.685  0.6080 -0.0319  0.3171
 6755SOL    HW121046   5.701   5.212   1.775  1.1848  0.3922  0.5742
 6755SOL    HW221047   5.814   5.244   1.680  0.5738  0.1941 -0.2426
 6756SOL     OW21048   6.014   1.722   1.293  0.5127 -0.4185 -0.4952
 6756SOL    HW121049   5.998   1.804   1.339  1.1729 -1.4984  1.8140
 6756SOL    HW221050   6.049   1.748   1.208  2.1707  1.6981  0.7455
 6757SOL     OW21051   3.087   6.830   4.358 -0.1047 -0.0190 -0.3215
 6757SOL    HW121052   3.176   6.811   4.388 -0.5186 -1.7461 -0.0997
 6757SOL    HW221053   3.032   6.766   4.403 -1.1332 -0.7392 -2.4454
 6758SOL     OW21054   7.453   4.532   4.452  0.1309  0.0190 -0.0686
 6758SOL    HW121055   7.502   4.458   4.488 -3.9970 -2.0004  2.0990
 6758SOL    HW221056   7.468   4.603   4.515  0.8842 -0.2694  0.0917
 6759SOL     OW21057   1.362   7.331   5.023 -0.7912 -0.2759 -0.7558
 6759SOL    HW121058   1.306   7.403   4.993 -0.0502 -0.0574 -1.6399
 6759SOL    HW221059   1.318   7.299   5.103 -1.0118  1.2822 -0.2122
 6760SOL     OW21060   5.804   6.730   6.100 -0.3743 -0.1039 -0.0971
 6760SOL    HW121061   5.858   6.654   6.123 -0.1244  0.4610  1.2397
 6760SOL    HW221062   5.867   6.797   6.075 -0.6386 -0.8050 -2.9625
 6761SOL     OW21063   7.091   6.324   6.200  0.1369 -0.3024  0.6663
 6761SOL    HW121064   7.036   6.371   6.138  1.3939  0.7199  0.2635
 6761SOL    HW221065   7.180   6.336   6.166  0.9894  1.1556  3.1701
 6762SOL     OW21066   7.752   4.533   7.789 -0.2763 -0.5714 -0.4958
 6762SOL    HW121067   7.799   4.505   7.868  0.6163  0.9266 -0.4410
 6762SOL    HW221068   7.666   4.560   7.820 -0.8650 -2.3797 -0.4422
 6763SOL     OW21069   6.845   6.300   4.285  0.1478 -0.0837 -0.0115
 6763SOL    HW121070   6.789   6.377   4.269 -1.7268 -0.8843  2.0409
 6763SOL    HW221071   6.872   6.310   4.377 -0.5611 -2.0572  0.4594
 6764SOL     OW21072   4.314   4.380   7.557 -0.2007  0.8922  0.1823
 6764SOL    HW121073   4.266   4.359   7.637  0.3196  0.4835  0.3914
 6764SOL    HW221074   4.281   4.466   7.532  1.9921  2.6222  2.6831
 6765SOL     OW21075   6.924   6.042   6.733  0.1494 -0.1155  0.3282
 6765SOL    HW121076   6.995   6.103   6.757  0.4572 -0.0674 -0.6626
 6765SOL    HW221077   6.937   6.027   6.640 -1.8227  0.7726 -0.1330
 6766SOL     OW21078   4.589   4.375   1.483  0.3144 -0.1357 -0.1382
 6766SOL    HW121079   4.536   4.426   1.422 -0.4959  0.8163  1.3039
 6766SOL    HW221080   4.679   4.387   1.453  0.0169  1.0991 -0.5910
 6767SOL     OW21081   0.235   0.198   7.046 -0.5640  0.5742  0.5184
 6767SOL    HW121082   0.225   0.265   6.978  1.5288  0.2443 -0.2119
 6767SOL    HW221083   0.202   0.238   7.126  0.9098  2.6372  0.1670
 6768SOL     OW21084   7.511   8.043   4.079 -0.7234  0.1182  0.6462
 6768SOL    HW121085   7.446   8.112   4.068 -0.1498  0.8265  1.6442
 6768SOL    HW221086   7.530   8.041   4.173  0.0290 -0.6956  0.4976
 6769SOL     OW21087   1.707   3.848   0.294  0.3131 -0.1135  0.1160
 6769SOL    HW121088   1.767   3.869   0.222 -0.8960  0.6004 -0.7084
 6769SOL    HW221089   1.689   3.932   0.336 -0.7873 -0.1930 -0.1824
 6770SOL     OW21090   4.924   2.325   5.487  0.1987 -0.4778 -0.2641
 6770SOL    HW121091   4.959   2.277   5.562 -1.4644  0.2755  1.0779
 6770SOL    HW221092   4.831   2.301   5.485 -0.2986  1.3210 -0.6177
 6771SOL     OW21093   6.299   4.921   4.656  0.4695  0.2267  0.1348
 6771SOL    HW121094   6.373   4.945   4.601  0.7020  0.1362  0.4084
 6771SOL    HW221095   6.243   4.999   4.655  0.4983  0.2452 -0.1826
 6772SOL     OW21096   5.184   3.282   1.217  0.4175 -0.3490  0.1282
 6772SOL    HW121097   5.184   3.378   1.217  1.8262 -0.3216  1.1055
 6772SOL    HW221098   5.240   3.258   1.144 -0.1075 -0.4305 -0.2469
 6773SOL     OW21099   0.114   3.654   6.518  0.0095  0.3827  0.2611
 6773SOL    HW121100   0.093   3.748   6.524  0.5015  0.6185 -1.2939
 6773SOL    HW221101   0.108   3.623   6.608  1.9940  2.3647  1.1667
 6774SOL     OW21102   5.536   1.053   0.708 -0.0734 -0.0871 -0.0269
 6774SOL    HW121103   5.496   1.136   0.733  0.9820 -0.0989  1.9427
 6774SOL    HW221104   5.475   1.013   0.646  0.4567  3.1660 -2.9230
 6775SOL     OW21105   5.241   6.279   2.758  0.4233  0.2225  0.5149
 6775SOL    HW121106   5.227   6.185   2.747 -1.0846  0.5864 -1.0989
 6775SOL    HW221107   5.268   6.309   2.672  0.6317  1.3150  0.9526
 6776SOL     OW21108   5.277   4.374   5.896 -1.1947  0.0233 -0.1338
 6776SOL    HW121109   5.331   4.377   5.975 -0.7728 -1.5804 -0.3242
 6776SOL    HW221110   5.338   4.396   5.825 -0.9861 -0.8965 -0.2514
 6777SOL     OW21111   2.482   4.500   6.518 -0.0359  0.3656 -0.0117
 6777SOL    HW121112   2.475   4.582   6.566 -0.2424  0.0382  0.5319
 6777SOL    HW221113   2.421   4.509   6.446 -0.9830  0.2174  0.7529
 6778SOL     OW21114   5.649   4.843   5.057 -0.2772  0.5410 -0.4788
 6778SOL    HW121115   5.662   4.878   5.145  0.6179 -2.1928  0.5791
 6778SOL    HW221116   5.725   4.787   5.042 -0.8208  0.3033 -2.6797
 6779SOL     OW21117   2.117   0.846   1.093 -0.4651 -0.0022 -0.7741
 6779SOL    HW121118   2.135   0.770   1.149 -1.9650 -0.4720 -0.8852
 6779SOL    HW221119   2.070   0.907   1.150  0.1255  0.5467 -0.8734
 6780SOL     OW21120   4.544   0.667   5.552  0.0128  0.3067  0.2230
 6780SOL    HW121121   4.489   0.655   5.475 -1.4585  0.2593  1.2489
 6780SOL    HW221122   4.531   0.587   5.603  0.6439  0.5189  0.7269
 6781SOL     OW21123   5.252   3.822   4.839  0.2658  0.1927 -0.3617
 6781SOL    HW121124   5.235   3.846   4.929  0.3925 -3.0377  0.6692
 6781SOL    HW221125   5.344   3.847   4.824  1.1052 -1.5498  1.3891
 6782SOL     OW21126   6.455   0.194   0.662 -0.2122  0.0113  0.0088
 6782SOL    HW121127   6.385   0.128   0.668 -1.0203  1.0006  2.0202
 6782SOL    HW221128   6.420   0.260   0.601  0.2437 -0.9195 -1.3230
 6783SOL     OW21129   4.136   0.563   1.580  0.3460  0.2636  0.2163
 6783SOL    HW121130   4.145   0.657   1.569 -3.3645  0.6751 -0.6482
 6783SOL    HW221131   4.075   0.553   1.653 -0.5489 -1.3775 -0.6994
 6784SOL     OW21132   4.218   7.681   6.233  0.4830  0.0294  0.1900
 6784SOL    HW121133   4.159   7.666   6.307  1.2157 -0.7619  0.6329
 6784SOL    HW221134   4.277   7.749   6.263 -0.2657  0.9146 -0.3021
 6785SOL     OW21135   7.537   1.864   6.100 -0.0844  0.1073  0.2239
 6785SOL    HW121136   7.621   1.894   6.065 -0.2244 -0.4514 -0.6041
 6785SOL    HW221137   7.521   1.923   6.174 -0.0181  1.6575 -0.9392
 6786SOL     OW21138   7.471   4.180   5.122  0.4964 -0.4038 -0.1803
 6786SOL    HW121139   7.546   4.235   5.142 -0.0592 -0.4377  2.2254
 6786SOL    HW221140   7.423   4.172   5.204 -1.4813 -1.4140 -1.3385
 6787SOL     OW21141   4.115   1.763   2.725  0.2526 -0.2831  0.0722
 6787SOL    HW121142   4.102   1.672   2.752  0.4011  0.3651  2.5185
 6787SOL    HW221143   4.208   1.768   2.702  0.0300 -0.9504 -1.0452
 6788SOL     OW21144   7.175   0.001   0.093  0.6865 -0.2088  0.0241
 6788SOL    HW121145   7.094  -0.022   0.048  0.2752 -0.9188  1.0881
 6788SOL    HW221146   7.162   0.092   0.120  0.3102 -0.2693  0.0542
 6789SOL     OW21147   3.579   7.349   7.488 -0.1548 -0.0719 -0.1055
 6789SOL    HW121148   3.614   7.409   7.553  2.5072 -0.4932 -1.0365
 6789SOL    HW221149   3.627   7.369   7.407 -1.3699 -1.4006 -1.2312
 6790SOL     OW21150   5.350   3.092   7.939 -0.2121  0.4683 -0.0701
 6790SOL    HW121151   5.323   3.071   8.028  0.2750 -1.2841 -0.3071
 6790SOL    HW221152   5.302   3.172   7.918 -0.8869  0.5048  1.4959
 6791SOL     OW21153   5.273   8.155   0.453  0.1633 -0.2999  0.5078
 6791SOL    HW121154   5.233   8.164   0.539  1.0668  0.0762  0.9092
 6791SOL    HW221155   5.366   8.142   0.472  1.0976  3.7777 -0.4480
 6792SOL     OW21156   0.860   2.060   4.325  0.4905 -0.8776  0.1508
 6792SOL    HW121157   0.817   2.106   4.253  0.8899 -1.3259 -0.3864
 6792SOL    HW221158   0.943   2.030   4.288  0.3865 -1.7319  0.5835
 6793SOL     OW21159   2.408   1.736   4.051  0.4137  0.3733 -0.1019
 6793SOL    HW121160   2.380   1.759   3.963  0.5305  0.6300 -0.0709
 6793SOL    HW221161   2.327   1.725   4.100  0.3641  2.2669  0.2905
 6794SOL     OW21162   1.286   6.152   7.780 -0.9085 -0.4956 -0.2553
 6794SOL    HW121163   1.257   6.214   7.713  0.7305 -0.4573 -0.9804
 6794SOL    HW221164   1.330   6.083   7.731 -0.5080 -0.9561  0.7309
 6795SOL     OW21165   0.989   6.693   7.866  0.2237 -0.4374 -0.4414
 6795SOL    HW121166   1.026   6.627   7.809  3.3103  0.9038 -0.1877
 6795SOL    HW221167   0.958   6.762   7.807 -1.2722 -1.2402 -0.6283
 6796SOL     OW21168   5.293   0.555   0.514 -0.1515  0.2707 -0.0274
 6796SOL    HW121169   5.329   0.577   0.599  1.5503  0.6436 -0.8046
 6796SOL    HW221170   5.258   0.466   0.525  1.6717 -0.4155  0.6076
 6797SOL     OW21171   2.423   5.434   7.026 -0.0599 -0.5291  0.0036
 6797SOL    HW121172   2.361   5.489   6.977  1.2189  1.8922  0.9388
 6797SOL    HW221173   2.398   5.447   7.118  0.4850 -1.3076  0.2718
 6798SOL     OW21174   2.503   1.477   0.598  0.2587 -0.2102 -0.3209
 6798SOL    HW121175   2.580   1.532   0.614 -0.6705  0.9832  0.2368
 6798SOL    HW221176   2.530   1.417   0.528  2.2655 -1.0473  1.0853
 6799SOL     OW21177   1.651   0.420   0.417 -0.0455 -0.4641  0.1033
 6799SOL    HW121178   1.608   0.506   0.420  0.8003  0.0229 -0.7714
 6799SOL    HW221179   1.580   0.357   0.419 -0.6645  0.2493  1.1515
 6800SOL     OW21180   8.248   2.650   1.356  0.1007 -0.1203 -0.3938
 6800SOL    HW121181   8.209   2.724   1.402  1.0038  0.0989  0.0386
 6800SOL    HW221182   8.190   2.576   1.376  0.3627  0.0175  0.9494
 6801SOL     OW21183   6.470   8.200   0.024  0.1726  0.0468 -0.1044
 6801SOL    HW121184   6.477   8.294   0.039  0.2735 -0.0267  0.3097
 6801SOL    HW221185   6.502   8.187  -0.065  0.3955  0.3737 -0.0705
 6802SOL     OW21186   0.990   5.424   4.640 -0.4191 -0.3415  0.6976
 6802SOL    HW121187   1.009   5.367   4.715 -1.8578  1.8118  2.8510
 6802SOL    HW221188   1.064   5.484   4.637  0.5334 -1.5282 -0.8463
 6803SOL     OW21189   4.407   3.641   0.901  0.4909  0.0018  0.5312
 6803SOL    HW121190   4.448   3.608   0.980  0.3795 -4.2890 -0.9432
 6803SOL    HW221191   4.314   3.618   0.911  0.1451  1.0757 -0.0772
 6804SOL     OW21192   5.821   6.289   3.914 -0.5713 -0.7414 -0.2230
 6804SOL    HW121193   5.739   6.331   3.887 -0.3378  1.5854  2.1836
 6804SOL    HW221194   5.809   6.271   4.008  1.7695  0.1211  0.3162
 6805SOL     OW21195   1.281   1.559   1.788  0.1310 -0.6046 -0.8534
 6805SOL    HW121196   1.190   1.536   1.765  0.5506 -0.9996 -2.2231
 6805SOL    HW221197   1.273   1.607   1.870 -1.2593 -1.2535 -0.5637
 6806SOL     OW21198   4.920   2.849   7.421 -0.6936 -0.2764  0.0943
 6806SOL    HW121199   5.005   2.894   7.425 -1.2346  0.9902 -1.4311
 6806SOL    HW221200   4.941   2.756   7.432  0.9976 -0.0626 -0.9995
 6807SOL     OW21201   5.872   2.710   0.495  0.2914  0.1906 -0.3858
 6807SOL    HW121202   5.881   2.644   0.427  0.7180  2.4411 -2.6909
 6807SOL    HW221203   5.782   2.741   0.487  0.0586 -0.1637  0.7368
 6808SOL     OW21204   4.167   4.025   3.769  0.0161  0.0027 -0.0140
 6808SOL    HW121205   4.232   4.070   3.823 -0.5729 -0.4663  1.1087
 6808SOL    HW221206   4.210   3.944   3.742  0.3542  0.2934 -0.3704
 6809SOL     OW21207   1.960   0.754   5.886 -0.0931 -0.3006  0.1584
 6809SOL    HW121208   1.960   0.711   5.800 -0.3344  1.3392 -0.7188
 6809SOL    HW221209   1.871   0.787   5.896 -0.2250 -0.9719  1.3230
 6810SOL     OW21210   4.821   4.769   2.214  0.0177  0.4625 -0.2172
 6810SOL    HW121211   4.763   4.835   2.254 -0.5178  0.8930 -1.6460
 6810SOL    HW221212   4.767   4.690   2.209 -0.2019  0.6525 -0.8686
 6811SOL     OW21213   7.113   4.150   6.799  0.0855  0.4358 -0.6788
 6811SOL    HW121214   7.033   4.139   6.747  0.8280 -1.0227 -1.5630
 6811SOL    HW221215   7.148   4.235   6.771 -0.4564  0.4698 -1.2662
 6812SOL     OW21216   6.366   4.373   7.612  0.1195 -0.0016  0.0924
 6812SOL    HW121217   6.296   4.433   7.585  1.0494  1.1889  0.2060
 6812SOL    HW221218   6.431   4.379   7.542  1.3921  1.1429  1.2920
 6813SOL     OW21219   2.091   2.599   5.004  0.0786 -0.1890  0.4377
 6813SOL    HW121220   2.116   2.514   4.967 -1.0097  0.3143 -1.6432
 6813SOL    HW221221   2.009   2.581   5.051 -2.3038  0.1860 -3.1509
 6814SOL     OW21222   3.291   6.698   7.342 -0.2459 -0.1304  0.6057
 6814SOL    HW121223   3.282   6.788   7.373  1.2804  0.3767 -0.3192
 6814SOL    HW221224   3.219   6.688   7.279 -1.0918  0.0477  1.5061
 6815SOL     OW21225   1.325   4.480   5.631  0.0039 -0.2529  0.1404
 6815SOL    HW121226   1.361   4.404   5.586 -0.2182 -0.2057 -0.1211
 6815SOL    HW221227   1.354   4.555   5.578  1.2829 -0.0509  1.0904
 6816SOL     OW21228   7.821   5.408   7.860  0.3251  0.0075  0.3618
 6816SOL    HW121229   7.741   5.358   7.844 -0.2050  0.8995  0.2011
 6816SOL    HW221230   7.824   5.418   7.955  0.0664  0.2576  0.3456
 6817SOL     OW21231   3.783   7.957   4.998  0.5312  1.2176  0.5672
 6817SOL    HW121232   3.693   7.925   4.995  1.1586 -0.7965  1.4112
 6817SOL    HW221233   3.826   7.913   4.925  0.7785  2.4504 -0.0522
 6818SOL     OW21234   0.857   1.058   5.776 -0.2588 -0.6161  0.2025
 6818SOL    HW121235   0.851   1.103   5.861 -0.8195  2.5315 -1.3622
 6818SOL    HW221236   0.950   1.040   5.765 -0.1914 -1.2302  1.5145
 6819SOL     OW21237   5.425   4.219   1.461  0.6270 -0.5095  0.3322
 6819SOL    HW121238   5.380   4.240   1.542 -0.6717 -1.9221  0.0258
 6819SOL    HW221239   5.515   4.199   1.488  1.5169  3.4374  0.8146
 6820SOL     OW21240   2.824   5.174   5.882  0.7123  0.2776  0.0018
 6820SOL    HW121241   2.914   5.174   5.851  0.4829 -1.1048 -0.8046
 6820SOL    HW221242   2.825   5.223   5.963  2.0787  0.7616 -0.2936
 6821SOL     OW21243   6.692   5.963   6.875 -0.6850  0.5802  0.4621
 6821SOL    HW121244   6.699   6.007   6.959  0.1159  0.8847  0.2483
 6821SOL    HW221245   6.768   5.993   6.826 -1.3106  0.6533 -0.4881
 6822SOL     OW21246   3.028   0.074   2.517 -0.4016  0.7014 -0.1060
 6822SOL    HW121247   2.987   0.155   2.485 -1.8176  0.1284  0.1822
 6822SOL    HW221248   3.122   0.091   2.511 -0.6501  2.6382  0.5797
 6823SOL     OW21249   2.711   2.500   7.230  0.6056  0.6233 -0.4915
 6823SOL    HW121250   2.615   2.502   7.237  0.6120 -0.7747  0.5943
 6823SOL    HW221251   2.739   2.587   7.258 -0.3333  0.9018 -0.3693
 6824SOL     OW21252   2.486   2.815   7.268 -0.5911  0.4570  0.0228
 6824SOL    HW121253   2.522   2.861   7.344 -0.9249  0.6569  0.0617
 6824SOL    HW221254   2.459   2.884   7.208  2.4192  0.3382 -1.6474
 6825SOL     OW21255   6.605   7.414   7.837 -0.3104  0.0269  0.3503
 6825SOL    HW121256   6.513   7.439   7.851 -0.1163  2.0701 -1.3650
 6825SOL    HW221257   6.601   7.347   7.768 -0.5078  2.4320 -2.1930
 6826SOL     OW21258   1.840   6.393   5.971 -0.1822  0.0439  0.0855
 6826SOL    HW121259   1.759   6.379   6.021 -0.4043  0.6829 -0.0892
 6826SOL    HW221260   1.822   6.469   5.916  0.5730  0.2548  0.1169
 6827SOL     OW21261   4.935   5.430   8.213 -0.3973  0.2914 -0.1281
 6827SOL    HW121262   4.844   5.462   8.209 -0.6451 -0.4393 -0.4505
 6827SOL    HW221263   4.933   5.346   8.168  0.2878 -0.1011  0.5417
 6828SOL     OW21264   2.464   7.054   0.819 -0.2333 -0.5860 -0.8866
 6828SOL    HW121265   2.537   7.013   0.773  0.8724 -0.2583  0.5029
 6828SOL    HW221266   2.387   7.006   0.789  0.5709 -1.1113 -2.1991
 6829SOL     OW21267   6.452   5.402   4.556  0.5322 -0.5871  0.6071
 6829SOL    HW121268   6.368   5.406   4.602  0.1266  0.4457 -0.2044
 6829SOL    HW221269   6.517   5.424   4.624 -0.0067  0.3017  0.8502
 6830SOL     OW21270   1.189   3.861   1.152 -0.2536 -0.2853 -0.6525
 6830SOL    HW121271   1.148   3.890   1.233 -0.1650  0.7423 -0.9590
 6830SOL    HW221272   1.149   3.775   1.134 -0.7495 -0.2274  0.1249
 6831SOL     OW21273   1.015   4.273   6.117  0.2364  0.3163  0.1106
 6831SOL    HW121274   1.069   4.347   6.091 -0.9301  1.2066  0.1227
 6831SOL    HW221275   0.953   4.262   6.045 -0.4015  0.1828  0.6695
 6832SOL     OW21276   5.650   6.268   6.875 -0.1217 -0.5487 -0.2505
 6832SOL    HW121277   5.657   6.179   6.841  0.7173 -0.4365 -0.3818
 6832SOL    HW221278   5.677   6.324   6.802 -0.9469 -0.1589 -0.2730
 6833SOL     OW21279   5.330   3.290   0.040 -0.0900 -0.5629  0.2639
 6833SOL    HW121280   5.319   3.357   0.108 -0.6190  0.2142 -0.5685
 6833SOL    HW221281   5.301   3.332  -0.040 -0.8899 -1.9477 -0.2069
 6834SOL     OW21282   8.291   3.027   6.346  0.2245  0.6602  0.4087
 6834SOL    HW121283   8.230   3.013   6.419  0.8852  0.6694  0.9732
 6834SOL    HW221284   8.275   2.953   6.288  0.6051 -0.0874  1.2185
 6835SOL     OW21285   6.854   5.679   4.030  0.5976  0.2967  0.1823
 6835SOL    HW121286   6.854   5.732   3.950 -0.8498  1.2975  0.8041
 6835SOL    HW221287   6.914   5.725   4.089  0.6662  0.2963  0.1124
 6836SOL     OW21288   0.358   2.252   6.342 -0.2509 -0.1116  0.0499
 6836SOL    HW121289   0.444   2.274   6.379  0.8647 -0.1464 -2.3113
 6836SOL    HW221290   0.353   2.157   6.348  0.5770 -0.2466 -1.1595
 6837SOL     OW21291   2.298   7.475   6.645  0.1155  0.1228 -0.0565
 6837SOL    HW121292   2.351   7.432   6.712 -2.4918  1.5101  3.2349
 6837SOL    HW221293   2.333   7.564   6.641  0.0728  0.1282 -0.3617
 6838SOL     OW21294   0.492   4.346   1.660  0.1119 -0.1297 -0.4924
 6838SOL    HW121295   0.408   4.326   1.618 -0.4846  0.3078  0.4683
 6838SOL    HW221296   0.552   4.359   1.587 -0.8228  0.2393 -1.2222
 6839SOL     OW21297   1.700   3.012   2.487  0.5932  0.5594 -0.2414
 6839SOL    HW121298   1.626   3.071   2.497  1.6201  1.6485  1.3361
 6839SOL    HW221299   1.729   2.994   2.576  0.9389 -1.5658 -0.7222
 6840SOL     OW21300   4.211   4.369   2.596 -0.0209 -0.8439  0.2986
 6840SOL    HW121301   4.272   4.410   2.657  0.5050 -0.1446 -0.6715
 6840SOL    HW221302   4.224   4.275   2.607 -0.5014 -0.7525  1.8135
 6841SOL     OW21303   7.591   2.272   1.773 -0.0743  0.1327 -0.2769
 6841SOL    HW121304   7.586   2.368   1.776 -0.9600  0.1228 -1.1602
 6841SOL    HW221305   7.501   2.242   1.784  0.3090 -0.6487  0.9450
 6842SOL     OW21306   7.387   3.115   4.560 -0.2206 -0.0833  0.7624
 6842SOL    HW121307   7.450   3.075   4.500 -0.5304  0.0233  0.3647
 6842SOL    HW221308   7.432   3.115   4.645 -0.0797 -0.9302  0.6908
 6843SOL     OW21309   6.954   4.460   0.881 -0.5344  0.3163 -0.1527
 6843SOL    HW121310   6.900   4.440   0.804  0.0971 -0.7700 -0.3436
 6843SOL    HW221311   6.983   4.374   0.912  1.7328  0.8786 -0.5252
 6844SOL     OW21312   3.482   3.750   6.728 -0.3814  0.3833  0.5160
 6844SOL    HW121313   3.389   3.773   6.723 -0.0814  1.3209 -2.8450
 6844SOL    HW221314   3.505   3.721   6.640  2.5369  0.1477  1.2447
 6845SOL     OW21315   1.513   3.241   1.729 -0.0656  0.0808  0.1773
 6845SOL    HW121316   1.553   3.309   1.675  1.1403 -1.8831 -1.5608
 6845SOL    HW221317   1.426   3.229   1.691 -0.4823  0.9911  0.8260
 6846SOL     OW21318   2.674   3.800   7.689  0.1987  0.1045 -0.2835
 6846SOL    HW121319   2.685   3.736   7.759 -0.6642  0.0336 -0.2094
 6846SOL    HW221320   2.652   3.882   7.734  3.4835  1.1044 -0.1763
 6847SOL     OW21321   1.357   7.034   6.992 -0.4526  0.2107 -0.6273
 6847SOL    HW121322   1.382   6.958   6.939 -1.6276 -0.0014 -0.9117
 6847SOL    HW221323   1.440   7.074   7.018  0.1818  0.1846 -2.4305
 6848SOL     OW21324   3.954   3.540   2.053  0.0094  0.0259 -0.0550
 6848SOL    HW121325   4.046   3.516   2.061  0.4331  0.5286 -2.5604
 6848SOL    HW221326   3.916   3.472   1.999 -1.1654 -0.2780  1.1253
 6849SOL     OW21327   0.656   4.619   4.048 -0.0772 -0.0984 -0.3249
 6849SOL    HW121328   0.637   4.645   3.957  0.4931  0.3100 -0.3297
 6849SOL    HW221329   0.623   4.692   4.100 -0.5182 -0.3896 -0.1899
 6850SOL     OW21330   1.403   5.583   1.528  0.3410  0.4406 -0.0938
 6850SOL    HW121331   1.324   5.629   1.555 -0.4646 -0.5699 -0.6666
 6850SOL    HW221332   1.375   5.523   1.459  1.1855 -1.3915  1.0518
 6851SOL     OW21333   0.296   2.713   0.772  0.4526  0.9986 -0.2508
 6851SOL    HW121334   0.380   2.755   0.757 -0.1033  2.4931  0.6155
 6851SOL    HW221335   0.298   2.634   0.717  1.9527  1.5863 -1.0858
 6852SOL     OW21336   4.062   6.431   6.956  0.2254 -0.0913 -0.4715
 6852SOL    HW121337   4.095   6.347   6.989 -1.9052 -0.9006 -0.2358
 6852SOL    HW221338   4.100   6.496   7.016 -1.2882 -1.2770  1.9502
 6853SOL     OW21339   3.023   4.843   0.648 -0.1192 -0.1835  0.0556
 6853SOL    HW121340   3.116   4.850   0.669 -0.2421 -1.1543  1.0400
 6853SOL    HW221341   3.018   4.771   0.586 -0.0211  1.1708 -1.5947
 6854SOL     OW21342   4.824   1.933   5.442 -0.4812 -0.2573  0.2748
 6854SOL    HW121343   4.792   2.023   5.452 -1.2742 -0.6496  1.6048
 6854SOL    HW221344   4.858   1.911   5.529  0.3499 -1.0116 -0.2315
 6855SOL     OW21345   0.120   4.270   4.568  0.0015 -0.5108  0.1638
 6855SOL    HW121346   0.199   4.245   4.614 -0.0657 -1.0085  0.0086
 6855SOL    HW221347   0.126   4.226   4.483  0.0929  0.3393 -0.2854
 6856SOL     OW21348   7.448   6.660   5.044 -0.4192 -0.1892  0.6820
 6856SOL    HW121349   7.494   6.580   5.019 -0.5275 -0.3781  1.0670
 6856SOL    HW221350   7.509   6.731   5.025  0.1462 -0.4595  1.4536
 6857SOL     OW21351   4.165   2.763   2.255 -0.3791  0.3893  0.1115
 6857SOL    HW121352   4.116   2.686   2.286 -0.8718  0.8415  0.4826
 6857SOL    HW221353   4.100   2.833   2.251 -0.5781  0.1526 -2.9330
 6858SOL     OW21354   1.330   0.593   2.938 -0.1640 -0.7370 -0.1210
 6858SOL    HW121355   1.301   0.683   2.948 -4.0213 -1.6941 -1.0701
 6858SOL    HW221356   1.384   0.576   3.015 -3.5918  0.9365  2.9200
 6859SOL     OW21357   7.418   3.694   0.482  0.2713  0.3997  0.3713
 6859SOL    HW121358   7.333   3.682   0.438 -0.0196 -0.8559  1.2230
 6859SOL    HW221359   7.398   3.682   0.575  1.1009  1.7652  0.7502
 6860SOL     OW21360   1.346   4.773   0.802  0.0001  0.2047 -0.1203
 6860SOL    HW121361   1.363   4.698   0.745  2.6715  0.5913  0.0428
 6860SOL    HW221362   1.377   4.746   0.888  0.1745  1.1918  0.1410
 6861SOL     OW21363   0.425   5.703   3.578  0.0610 -0.3091 -0.3976
 6861SOL    HW121364   0.410   5.766   3.507 -0.9331  0.9473  0.8840
 6861SOL    HW221365   0.514   5.671   3.563 -0.2162 -0.2749 -2.3564
 6862SOL     OW21366   7.602   3.338   7.029 -0.2666 -0.0150 -0.3157
 6862SOL    HW121367   7.510   3.345   7.056 -0.1714 -0.8554  0.2889
 6862SOL    HW221368   7.598   3.306   6.939 -0.5715 -0.1501 -0.2565
 6863SOL     OW21369   5.835   6.476   4.964  0.1314  0.7651 -0.2079
 6863SOL    HW121370   5.908   6.417   4.945 -0.9165  0.1584 -2.7453
 6863SOL    HW221371   5.872   6.564   4.960  0.5456  0.5363 -2.7877
 6864SOL     OW21372   5.948   5.716   3.926 -0.3308  0.0513 -0.3279
 6864SOL    HW121373   6.033   5.751   3.953  0.0877  0.3978 -1.9973
 6864SOL    HW221374   5.901   5.791   3.891 -1.1965 -0.2160  0.2414
 6865SOL     OW21375   7.856   7.264   4.541  0.6519 -0.3804 -0.2268
 6865SOL    HW121376   7.828   7.184   4.585  2.5316 -0.5184  0.8415
 6865SOL    HW221377   7.949   7.273   4.564  0.7971  1.4691 -1.3026
 6866SOL     OW21378   1.586   5.071   4.517  0.3507 -0.4405  0.3953
 6866SOL    HW121379   1.607   4.978   4.513 -0.0560 -0.5304  0.3310
 6866SOL    HW221380   1.640   5.105   4.589 -1.2380 -1.1923  2.0187
 6867SOL     OW21381   1.890   7.659   6.137 -0.1517 -0.2254 -0.5466
 6867SOL    HW121382   1.872   7.723   6.206 -0.1853 -0.3004 -0.4857
 6867SOL    HW221383   1.846   7.695   6.060 -2.2673 -1.3572  0.0420
 6868SOL     OW21384   8.039   6.478   7.970  0.0474 -0.5014  0.2345
 6868SOL    HW121385   7.969   6.413   7.984 -0.3036 -0.3838 -0.8406
 6868SOL    HW221386   8.099   6.435   7.909 -0.5985  0.4289 -1.1253
 6869SOL     OW21387   7.616   6.108   2.059 -0.3291 -0.4644 -0.0279
 6869SOL    HW121388   7.592   6.092   1.968 -1.7982  0.4027  0.1755
 6869SOL    HW221389   7.664   6.191   2.058  3.0658 -2.2413 -0.4468
 6870SOL     OW21390   2.506   3.711   8.104  0.0948  0.5363  0.2517
 6870SOL    HW121391   2.465   3.796   8.095  2.4305  1.5477 -2.2652
 6870SOL    HW221392   2.473   3.660   8.030  0.4880  0.0627  0.3936
 6871SOL     OW21393   7.944   0.136   7.001  0.0529 -0.2859  0.3842
 6871SOL    HW121394   8.008   0.195   6.960  0.3456  0.0631  1.3127
 6871SOL    HW221395   7.976   0.048   6.980 -0.5689 -0.1476 -1.2944
 6872SOL     OW21396   1.366   6.306   2.927 -0.5121  0.0686  0.3336
 6872SOL    HW121397   1.352   6.281   3.019  0.3730  0.9043  0.7165
 6872SOL    HW221398   1.385   6.400   2.931  1.3018 -0.2291 -0.5147
 6873SOL     OW21399   0.581   7.924   2.824  0.0596 -0.0162  0.5249
 6873SOL    HW121400   0.554   8.002   2.775 -1.4449  0.4799  2.0375
 6873SOL    HW221401   0.597   7.857   2.757 -1.1331  0.8617 -0.6826
 6874SOL     OW21402   2.811   0.640   8.272 -0.1048  0.2917 -0.5157
 6874SOL    HW121403   2.727   0.684   8.285  0.1102  0.2811  1.0542
 6874SOL    HW221404   2.844   0.676   8.190 -0.4150  2.2892  0.1733
 6875SOL     OW21405   1.752   2.582   8.157 -0.2931  0.7088 -0.0496
 6875SOL    HW121406   1.816   2.651   8.141  2.4322 -1.2004  1.7129
 6875SOL    HW221407   1.804   2.506   8.184 -3.1850 -1.7287 -0.7296
 6876SOL     OW21408   4.733   8.073   4.771  0.7610 -0.4596  0.2389
 6876SOL    HW121409   4.651   8.096   4.728  0.9739  0.0851  0.1125
 6876SOL    HW221410   4.722   7.982   4.798 -0.4720  0.0508  1.5891
 6877SOL     OW21411   5.640   6.673   3.606  0.4385  0.0902 -0.2567
 6877SOL    HW121412   5.549   6.677   3.578 -0.0753 -1.0849  1.0990
 6877SOL    HW221413   5.690   6.669   3.524 -0.6719  1.2146 -1.0271
 6878SOL     OW21414   1.884   3.839   6.594  0.2857 -0.0016 -0.1108
 6878SOL    HW121415   1.930   3.769   6.548 -0.2931  0.1864 -1.0062
 6878SOL    HW221416   1.866   3.803   6.681 -0.4602 -1.1597 -0.7237
 6879SOL     OW21417   5.644   2.929   6.906 -0.0251 -0.2416 -0.4279
 6879SOL    HW121418   5.635   2.880   6.988  1.9037 -2.1149 -1.2388
 6879SOL    HW221419   5.634   2.864   6.837  1.9746  0.5568 -1.5770
 6880SOL     OW21420   6.204   3.566   7.098 -0.4755 -0.4700 -0.4549
 6880SOL    HW121421   6.190   3.556   7.004 -1.3293 -1.9195 -0.2058
 6880SOL    HW221422   6.155   3.494   7.137 -1.4917  1.0413  1.2216
 6881SOL     OW21423   8.140   1.922   0.006 -0.3794 -0.5857  0.9415
 6881SOL    HW121424   8.129   1.879   0.091  1.0504  0.6336  1.7960
 6881SOL    HW221425   8.210   1.986   0.021  0.1121 -0.5440 -1.2409
 6882SOL     OW21426   7.934   5.878   0.843  0.1954 -0.1269 -0.3597
 6882SOL    HW121427   7.902   5.804   0.792 -0.6402  0.5299 -0.8081
 6882SOL    HW221428   8.007   5.842   0.894  0.5905 -0.9685 -1.4738
 6883SOL     OW21429   5.842   0.226   2.451 -0.2056 -0.7867 -0.0894
 6883SOL    HW121430   5.803   0.140   2.435 -0.0021 -0.7173 -1.0205
 6883SOL    HW221431   5.802   0.282   2.385  0.8852 -0.5404 -0.5528
 6884SOL     OW21432   0.590   3.470   0.555 -0.2323  0.0935 -0.2418
 6884SOL    HW121433   0.559   3.519   0.479  1.4613  2.1960  0.3375
 6884SOL    HW221434   0.578   3.529   0.629 -0.4671 -1.3564  0.9255
 6885SOL     OW21435   5.054   5.320   7.016 -0.0137 -0.0013  0.1346
 6885SOL    HW121436   5.146   5.314   6.989 -0.8485 -0.8994 -2.9354
 6885SOL    HW221437   5.024   5.404   6.980 -0.4369  0.2178  0.9817
 6886SOL     OW21438   8.162   4.722   0.620 -0.2421 -0.0542  0.2412
 6886SOL    HW121439   8.208   4.653   0.667 -0.8813  0.2996  1.4190
 6886SOL    HW221440   8.152   4.687   0.531  0.1597 -1.1355  0.5976
 6887SOL     OW21441   2.802   5.512   7.890 -0.3949  0.2175 -0.2785
 6887SOL    HW121442   2.711   5.518   7.863 -0.4810 -1.0063 -0.3135
 6887SOL    HW221443   2.825   5.419   7.880  0.2409  0.1031  1.6838
 6888SOL     OW21444   6.465   0.151   6.834  0.2526  0.2023 -0.0671
 6888SOL    HW121445   6.394   0.090   6.816  0.9751 -0.5372 -0.4565
 6888SOL    HW221446   6.489   0.134   6.925  0.6631 -0.3216 -0.2705
 6889SOL     OW21447   1.300   1.675   3.957  0.8967 -0.1152 -0.3691
 6889SOL    HW121448   1.359   1.715   3.894  0.1243  0.2604 -0.8639
 6889SOL    HW221449   1.288   1.741   4.025 -0.5156  0.5976 -1.2727
 6890SOL     OW21450   5.639   6.889   2.903  0.7017  0.1710 -0.1353
 6890SOL    HW121451   5.558   6.922   2.864  1.0061  2.1470  0.7577
 6890SOL    HW221452   5.693   6.864   2.828  0.3429  1.5273 -0.8851
 6891SOL     OW21453   0.952   0.499   7.541 -0.0221  0.0566 -0.7377
 6891SOL    HW121454   0.954   0.517   7.447 -0.3262 -0.6106 -0.8799
 6891SOL    HW221455   0.958   0.404   7.547 -2.0356 -0.0809 -0.1792
 6892SOL     OW21456   7.859   3.036   2.161 -0.1582 -0.0582  0.4333
 6892SOL    HW121457   7.797   3.047   2.089 -0.3991  0.0819  0.6615
 6892SOL    HW221458   7.905   2.954   2.141  0.2986  0.3521 -0.2633
 6893SOL     OW21459   1.648   6.560   1.686 -0.3633 -0.0726  0.3152
 6893SOL    HW121460   1.671   6.628   1.622  0.4064 -0.5853  0.0206
 6893SOL    HW221461   1.620   6.608   1.763  2.1380  0.6892  0.8676
 6894SOL     OW21462   4.268   0.331   4.319 -0.1787 -0.1371 -0.0461
 6894SOL    HW121463   4.191   0.279   4.340  0.8153 -0.9137  1.9612
 6894SOL    HW221464   4.253   0.415   4.361  0.4722 -0.6492  1.2835
 6895SOL     OW21465   4.503   4.991   3.851  0.2206  0.0637  0.2857
 6895SOL    HW121466   4.422   4.952   3.884  0.6884 -1.2575 -0.0638
 6895SOL    HW221467   4.487   5.004   3.758  0.1793  0.4321  0.3424
 6896SOL     OW21468   1.757   7.975   7.508  0.2080  0.2909  0.0249
 6896SOL    HW121469   1.709   8.030   7.447  1.1463 -0.5535 -1.5348
 6896SOL    HW221470   1.695   7.906   7.532 -0.0455  0.4168 -0.2649
 6897SOL     OW21471   7.981   0.204   1.780  0.0966 -0.4510 -0.3085
 6897SOL    HW121472   7.976   0.109   1.781  2.0864 -0.6197  1.2410
 6897SOL    HW221473   8.051   0.224   1.718 -0.6995  0.0645 -1.0643
 6898SOL     OW21474   2.645   8.253   1.237 -0.5636  0.2262 -0.0887
 6898SOL    HW121475   2.641   8.291   1.149 -2.0539 -3.6142 -1.8641
 6898SOL    HW221476   2.739   8.242   1.253 -0.2241  1.8597 -0.6984
 6899SOL     OW21477   2.306   0.792   7.668  0.2486 -0.4761  0.3844
 6899SOL    HW121478   2.332   0.818   7.756  0.2465 -0.5292  0.4006
 6899SOL    HW221479   2.237   0.727   7.682 -0.8564  0.6397  0.3393
 6900SOL     OW21480   2.899   2.479   4.161 -0.2452 -0.6639  0.1901
 6900SOL    HW121481   2.928   2.398   4.204 -0.7506 -1.8819 -1.6301
 6900SOL    HW221482   2.803   2.476   4.166 -0.4389 -1.6837 -2.2682
 6901SOL     OW21483   2.834   6.577   7.325 -0.4151 -0.0615 -0.1566
 6901SOL    HW121484   2.908   6.629   7.358  0.3394 -0.7741 -0.6745
 6901SOL    HW221485   2.776   6.567   7.400 -0.0032  0.5381  0.2526
 6902SOL     OW21486   4.377   1.631   4.787 -0.3887 -0.0060  0.0058
 6902SOL    HW121487   4.407   1.705   4.840 -0.8183  0.4340 -0.3623
 6902SOL    HW221488   4.322   1.580   4.845 -0.4787  0.2222  0.1215
 6903SOL     OW21489   1.024   7.724   2.632 -0.0880 -0.1320 -0.6326
 6903SOL    HW121490   1.018   7.630   2.647  0.8023 -0.0627  0.2486
 6903SOL    HW221491   0.967   7.763   2.698 -1.4489 -0.0760 -1.7883
 6904SOL     OW21492   4.983   3.968   0.779 -0.4141  0.2995 -0.0826
 6904SOL    HW121493   4.964   4.006   0.693  1.1129  0.8994 -0.1862
 6904SOL    HW221494   4.900   3.929   0.807 -1.2899  1.2689 -1.2261
 6905SOL     OW21495   3.836   5.029   3.383  0.6216  0.0253 -0.4342
 6905SOL    HW121496   3.769   4.986   3.331  2.5822 -0.4505 -2.7828
 6905SOL    HW221497   3.842   4.977   3.463  0.1940 -1.6914 -1.4588
 6906SOL     OW21498   2.927   5.414   2.064  0.6714 -0.8459  0.4788
 6906SOL    HW121499   2.964   5.450   2.144  1.4800  0.1360 -0.3169
 6906SOL    HW221500   2.974   5.332   2.050  0.9468 -0.7253  0.6966
 6907SOL     OW21501   0.733   1.486   5.727 -0.4690  0.7592 -0.6868
 6907SOL    HW121502   0.676   1.493   5.651 -1.7433 -0.7469  0.0654
 6907SOL    HW221503   0.739   1.392   5.745 -1.0509  1.0925  1.6347
 6908SOL     OW21504   1.504   2.662   4.195  0.0155 -0.0710 -0.2591
 6908SOL    HW121505   1.584   2.652   4.246  0.5835  0.2277 -1.0719
 6908SOL    HW221506   1.438   2.612   4.243  0.3228  0.8854  1.1995
 6909SOL     OW21507   7.582   0.547   5.846  0.1472 -0.1082 -0.1142
 6909SOL    HW121508   7.496   0.511   5.823  0.0023  0.1949 -0.0555
 6909SOL    HW221509   7.644   0.495   5.796 -0.0550 -0.4927  0.0377
 6910SOL     OW21510   2.585   4.479   2.254  0.1050 -0.4244 -0.2763
 6910SOL    HW121511   2.532   4.549   2.214 -0.1343 -0.8293 -0.6809
 6910SOL    HW221512   2.543   4.398   2.225 -0.5879 -0.7340  1.4967
 6911SOL     OW21513   5.188   2.240   4.156 -0.3056 -0.4377  0.6039
 6911SOL    HW121514   5.178   2.218   4.063 -2.6592  0.5976  0.5406
 6911SOL    HW221515   5.130   2.179   4.202  0.8201 -0.9235  1.4378
 6912SOL     OW21516   3.280   3.708   4.988 -0.3580  0.4742  0.4168
 6912SOL    HW121517   3.187   3.728   4.980 -0.1879  1.2504  0.2946
 6912SOL    HW221518   3.322   3.761   4.920  0.2876  1.0256  1.2316
 6913SOL     OW21519   3.609   7.197   6.262  0.0878  0.2868 -0.6114
 6913SOL    HW121520   3.692   7.230   6.295  0.1204 -1.0805  0.7653
 6913SOL    HW221521   3.633   7.128   6.200  0.1193 -2.5474  2.2833
 6914SOL     OW21522   2.945   3.813   3.469 -0.6636 -0.4474  0.0023
 6914SOL    HW121523   2.939   3.741   3.531 -0.9112 -1.5357 -1.2303
 6914SOL    HW221524   3.024   3.794   3.418 -0.5866  0.2977 -0.1714
 6915SOL     OW21525   4.069   0.108   5.527  0.4532  0.1911 -0.1923
 6915SOL    HW121526   3.983   0.118   5.567  0.5665 -0.0502  0.1124
 6915SOL    HW221527   4.050   0.084   5.436  0.1876 -1.3118  0.2314
 6916SOL     OW21528   1.062   6.361   3.255  0.0439 -0.4140 -0.2944
 6916SOL    HW121529   1.125   6.401   3.195 -1.1298  1.2514 -0.5022
 6916SOL    HW221530   1.075   6.267   3.245  1.7129 -0.1286 -1.1412
 6917SOL     OW21531   1.059   7.762   1.158 -0.2486  0.2829 -0.4857
 6917SOL    HW121532   1.147   7.726   1.147 -0.2484  0.3103 -0.5697
 6917SOL    HW221533   1.001   7.688   1.141 -0.2489  0.3280 -0.6799
 6918SOL     OW21534   0.615   7.071   3.478  0.9545  0.7024 -0.1842
 6918SOL    HW121535   0.565   7.060   3.397 -0.5760  0.3865  0.7437
 6918SOL    HW221536   0.644   6.983   3.500 -3.2306 -0.3549  2.3070
 6919SOL     OW21537   2.423   0.965   1.109 -0.1207 -0.1358  0.5297
 6919SOL    HW121538   2.356   0.963   1.177 -1.1148 -0.3195 -0.4312
 6919SOL    HW221539   2.467   0.881   1.116  0.8770  0.4566  1.9747
 6920SOL     OW21540   0.110   0.863   6.326  0.0510 -0.1637 -0.4062
 6920SOL    HW121541   0.192   0.813   6.324 -0.2269 -0.7656  1.3924
 6920SOL    HW221542   0.054   0.819   6.262 -0.2021 -2.2803  1.1589
 6921SOL     OW21543   3.120   1.995   6.909 -0.0959 -0.4330 -0.0997
 6921SOL    HW121544   3.161   2.010   6.824 -0.4864 -1.4679 -0.4934
 6921SOL    HW221545   3.115   1.899   6.916 -1.3999 -0.3445  0.4358
 6922SOL     OW21546   2.890   4.912   6.429 -0.0166 -0.6879  0.1207
 6922SOL    HW121547   2.911   4.853   6.501  2.0328 -1.9254 -1.3506
 6922SOL    HW221548   2.852   4.855   6.362  1.9319 -0.4511 -1.2943
 6923SOL     OW21549   0.932   1.470   4.105 -0.2274 -0.0214 -0.4209
 6923SOL    HW121550   0.848   1.507   4.079 -1.0849 -1.6605 -0.1266
 6923SOL    HW221551   0.926   1.378   4.081  1.1202 -0.3819  0.4991
 6924SOL     OW21552   3.398   6.843   1.142 -0.1481  0.3301 -0.3151
 6924SOL    HW121553   3.425   6.868   1.231  1.9754 -2.7163  0.0629
 6924SOL    HW221554   3.343   6.765   1.154  0.1622 -0.1299 -1.6557
 6925SOL     OW21555   7.041   1.922   1.973 -0.1157 -0.3570 -0.2664
 6925SOL    HW121556   7.103   1.852   1.952 -0.3881 -0.3218 -1.2095
 6925SOL    HW221557   6.961   1.876   2.000 -0.3335 -0.4144 -1.0024
 6926SOL     OW21558   4.494   1.114   3.087  0.3301  0.0961  0.1111
 6926SOL    HW121559   4.569   1.174   3.090  1.3198 -1.1144  0.2517
 6926SOL    HW221560   4.480   1.089   3.178 -1.7946  2.1079  0.4262
 6927SOL     OW21561   1.209   4.876   0.526  0.5123 -0.7543 -0.1693
 6927SOL    HW121562   1.259   4.850   0.603  0.1845  0.6550  0.5550
 6927SOL    HW221563   1.239   4.817   0.457  2.6859 -0.3867  0.3905
 6928SOL     OW21564   0.598   7.508   7.673 -0.4743 -0.2615 -0.0635
 6928SOL    HW121565   0.675   7.523   7.619  0.4600  0.7228  1.4516
 6928SOL    HW221566   0.555   7.433   7.633 -0.2033  0.7986 -2.5136
 6929SOL     OW21567   3.543   3.212   0.273 -0.2634 -0.5826  0.3559
 6929SOL    HW121568   3.489   3.155   0.328  1.6427 -2.0722  0.8001
 6929SOL    HW221569   3.605   3.251   0.335  0.3674 -0.3817 -0.3967
 6930SOL     OW21570   7.958   4.183   7.832 -0.0513  0.0326 -0.0431
 6930SOL    HW121571   7.956   4.253   7.766  1.3661  0.7851  0.6766
 6930SOL    HW221572   7.901   4.214   7.902  0.1237  0.2223  0.0185
 6931SOL     OW21573   1.292   8.243   1.679  0.4980  0.5864 -0.9135
 6931SOL    HW121574   1.221   8.185   1.707  0.1811  1.6277  0.5895
 6931SOL    HW221575   1.259   8.282   1.597 -0.8648  1.3348 -0.0548
 6932SOL     OW21576   4.882   5.119   0.032  0.2337  0.5260 -0.3449
 6932SOL    HW121577   4.881   5.118   0.128 -1.1130  0.2592 -0.3472
 6932SOL    HW221578   4.890   5.211   0.009  1.3102  0.5354  0.0131
 6933SOL     OW21579   1.162   4.941   1.113 -0.1301  0.1276 -0.6302
 6933SOL    HW121580   1.254   4.944   1.086 -0.0264  1.5951 -0.1997
 6933SOL    HW221581   1.118   4.897   1.041  0.7522  0.3557 -1.3339
 6934SOL     OW21582   6.335   5.573   6.847 -0.3223 -0.0730 -0.1396
 6934SOL    HW121583   6.426   5.555   6.872  0.0959  0.4575 -1.1923
 6934SOL    HW221584   6.341   5.600   6.755 -1.4927  0.4955 -0.0625
 6935SOL     OW21585   3.185   1.070   6.419 -0.6778  0.4991 -0.1675
 6935SOL    HW121586   3.274   1.105   6.417 -0.8237  1.0164  1.1889
 6935SOL    HW221587   3.195   0.979   6.448 -0.4740  0.0192 -1.6589
 6936SOL     OW21588   7.510   2.320   7.760  0.0414  0.0592  0.6627
 6936SOL    HW121589   7.477   2.230   7.758 -1.3257  0.5242  0.8977
 6936SOL    HW221590   7.462   2.361   7.832  2.9885  0.1507  2.7532
 6937SOL     OW21591   5.272   6.717   7.718  0.2246 -0.0125 -0.3146
 6937SOL    HW121592   5.194   6.716   7.774  1.1622  1.9511  1.1207
 6937SOL    HW221593   5.246   6.665   7.642 -2.3201  0.1276  0.3380
 6938SOL     OW21594   1.845   4.256   5.776  0.0954  0.2952 -0.0189
 6938SOL    HW121595   1.883   4.242   5.863  3.5902 -1.7940 -1.6414
 6938SOL    HW221596   1.790   4.179   5.761  0.5366 -0.0119 -0.0974
 6939SOL     OW21597   4.542   7.225   5.117  0.2702 -0.2793 -0.4503
 6939SOL    HW121598   4.458   7.192   5.084 -1.2485  1.5602  1.3867
 6939SOL    HW221599   4.575   7.154   5.171 -0.6333 -0.6242 -0.3242
 6940SOL     OW21600   3.990   3.496   6.059  0.2418 -0.4050  0.2373
 6940SOL    HW121601   3.937   3.515   5.982 -1.8586  0.5743  1.8011
 6940SOL    HW221602   4.047   3.572   6.069 -0.3770  0.0508  0.3434
 6941SOL     OW21603   2.085   6.940   6.975  0.7608 -0.2028 -0.4465
 6941SOL    HW121604   2.101   6.987   7.057  0.9772  0.8835 -1.0908
 6941SOL    HW221605   2.074   7.009   6.909 -1.1577 -0.9956 -1.0437
 6942SOL     OW21606   7.882   4.745   3.093  0.4543 -0.0494 -0.5038
 6942SOL    HW121607   7.849   4.796   3.019  1.4753  1.1455 -0.1832
 6942SOL    HW221608   7.974   4.772   3.102  0.6689 -1.0166  0.4830
 6943SOL     OW21609   3.308   0.418   7.860 -0.4183  0.2737 -0.4192
 6943SOL    HW121610   3.285   0.387   7.948 -1.0544  0.7794 -0.3950
 6943SOL    HW221611   3.248   0.372   7.802 -1.7608  1.8012 -0.3330
 6944SOL     OW21612   4.484   1.028   5.190 -0.1635 -0.1909 -0.4534
 6944SOL    HW121613   4.472   1.088   5.117 -0.7110  1.1873  0.7333
 6944SOL    HW221614   4.440   1.070   5.264  1.0553 -1.1473  0.8819
 6945SOL     OW21615   4.079   2.534   5.112 -0.0131  0.9392 -0.1791
 6945SOL    HW121616   4.027   2.461   5.145  0.6535 -0.0909 -1.3108
 6945SOL    HW221617   4.021   2.579   5.051 -0.5385  1.5869  0.7715
 6946SOL     OW21618   0.989   6.760   0.360  0.1863  0.2622  0.0976
 6946SOL    HW121619   0.898   6.764   0.332  0.3133 -1.8413 -0.7559
 6946SOL    HW221620   1.040   6.773   0.280  0.5864 -0.7897  0.1611
 6947SOL     OW21621   4.007   6.359   0.997  0.3959  0.2934  0.1854
 6947SOL    HW121622   3.948   6.434   0.991 -0.3796 -0.0870  2.1825
 6947SOL    HW221623   4.002   6.318   0.911 -0.4389  1.5970 -0.4184
 6948SOL     OW21624   3.063   5.595   4.584  0.0376 -0.0924  0.1809
 6948SOL    HW121625   3.124   5.664   4.559  2.0860 -1.8605  0.0272
 6948SOL    HW221626   3.052   5.607   4.679  0.4260  0.3904  0.1713
 6949SOL     OW21627   5.855   4.614   6.073  0.5830  0.4232  0.1792
 6949SOL    HW121628   5.812   4.547   6.126 -0.0598  0.5775 -0.1354
 6949SOL    HW221629   5.926   4.646   6.129  0.3762  0.0711  0.6577
 6950SOL     OW21630   0.422   7.237   4.690 -0.2051 -0.5209  0.5207
 6950SOL    HW121631   0.337   7.216   4.650  0.0922 -0.1072 -0.3469
 6950SOL    HW221632   0.486   7.219   4.622  0.3074  0.3011  0.7717
 6951SOL     OW21633   5.559   6.653   4.877  0.3468 -0.4269 -0.0272
 6951SOL    HW121634   5.491   6.649   4.809  0.6085 -1.4498 -0.2363
 6951SOL    HW221635   5.534   6.585   4.939 -0.2334  0.9080  1.2506
 6952SOL     OW21636   4.950   7.603   6.711  0.2337 -0.0654  0.2221
 6952SOL    HW121637   4.974   7.599   6.804 -0.8146  0.2485  0.5226
 6952SOL    HW221638   4.859   7.634   6.711  0.1698 -0.2059 -0.9054
 6953SOL     OW21639   4.218   6.711   2.339  0.1265 -0.3965  0.2905
 6953SOL    HW121640   4.245   6.646   2.404  2.3433  0.7499  0.5959
 6953SOL    HW221641   4.247   6.795   2.375 -0.0032  0.4442 -1.4602
 6954SOL     OW21642   4.608   0.300   4.819 -0.5108  0.4529  0.2456
 6954SOL    HW121643   4.669   0.318   4.747 -1.2572  1.5068 -0.1598
 6954SOL    HW221644   4.651   0.338   4.896 -0.3904  0.6950  0.0644
 6955SOL     OW21645   7.968   8.047   0.004 -0.9186  0.1753 -0.2437
 6955SOL    HW121646   7.922   8.054   0.088  0.7478  0.1386  0.6988
 6955SOL    HW221647   8.054   8.086   0.019 -0.1689 -0.8278 -1.6208
 6956SOL     OW21648   8.174   0.545   5.877 -0.0575 -0.1870  0.5373
 6956SOL    HW121649   8.101   0.525   5.935 -0.1848  1.6512  1.0499
 6956SOL    HW221650   8.244   0.486   5.906  0.3982  1.6537  3.6406
 6957SOL     OW21651   6.340   0.692   5.991 -0.7305 -0.3887  0.1384
 6957SOL    HW121652   6.302   0.621   5.940 -0.7893 -1.1429  1.2301
 6957SOL    HW221653   6.433   0.669   5.998 -0.9448 -0.9247  1.4036
 6958SOL     OW21654   4.572   2.136   3.282  0.1374 -0.0860  0.1965
 6958SOL    HW121655   4.532   2.165   3.364  0.3779  1.4961 -0.2175
 6958SOL    HW221656   4.529   2.052   3.263  0.0657 -0.4963  1.9114
 6959SOL     OW21657   0.674   6.110   2.300 -0.3971 -0.3234  0.1977
 6959SOL    HW121658   0.676   6.190   2.247 -1.2634 -0.6414 -0.3309
 6959SOL    HW221659   0.667   6.140   2.390 -3.2323  0.2159 -0.1202
 6960SOL     OW21660   1.669   0.381   5.056  0.1262  0.7037 -0.3584
 6960SOL    HW121661   1.684   0.408   5.147  0.5650  1.6422 -0.6954
 6960SOL    HW221662   1.651   0.287   5.062  0.3281  0.7137  0.6799
 6961SOL     OW21663   3.457   4.607   3.656 -0.3259  0.5324 -0.4696
 6961SOL    HW121664   3.417   4.521   3.671 -0.2480  0.3524 -1.2712
 6961SOL    HW221665   3.388   4.659   3.614 -0.4819  0.9732  0.3088
 6962SOL     OW21666   6.600   2.336   4.927  0.1588 -0.3238  0.1006
 6962SOL    HW121667   6.577   2.409   4.869  0.9665 -0.4098 -0.3502
 6962SOL    HW221668   6.546   2.349   5.004  0.5070  0.9334  0.1601
 6963SOL     OW21669   3.180   0.725   0.881  0.1087 -0.3281 -0.1572
 6963SOL    HW121670   3.117   0.684   0.940 -1.4896  1.9837 -0.1168
 6963SOL    HW221671   3.216   0.798   0.930 -0.1119  0.7138 -1.4699
 6964SOL     OW21672   7.004   3.779   3.224  0.3646  0.2928 -0.2618
 6964SOL    HW121673   7.042   3.859   3.188  2.1229 -1.2796 -2.1829
 6964SOL    HW221674   7.059   3.759   3.300 -1.1916  1.7723  1.3374
 6965SOL     OW21675   5.236   7.782   2.311 -0.2294  0.0606  0.0722
 6965SOL    HW121676   5.201   7.841   2.377 -0.7761 -0.6828  0.4656
 6965SOL    HW221677   5.231   7.831   2.229 -1.7697  0.1621  0.1922
 6966SOL     OW21678   2.892   4.587   6.758 -0.4084 -0.3968 -0.4125
 6966SOL    HW121679   2.983   4.617   6.757 -1.1064  2.1831  1.4995
 6966SOL    HW221680   2.892   4.515   6.820  0.2041  0.2381  0.3538
 6967SOL     OW21681   4.531   0.474   5.057  0.4218 -0.2783 -0.3590
 6967SOL    HW121682   4.549   0.565   5.033 -0.5938  0.1893  0.5772
 6967SOL    HW221683   4.437   0.464   5.045 -0.0476 -0.2241  2.5197
 6968SOL     OW21684   3.614   6.251   2.736 -0.8959  0.0505  0.3157
 6968SOL    HW121685   3.706   6.224   2.744 -0.9533 -0.1032  0.4800
 6968SOL    HW221686   3.608   6.290   2.649 -0.7047 -0.0590  0.2517
 6969SOL     OW21687   6.311   2.128   1.161  0.2395 -0.3415 -0.2863
 6969SOL    HW121688   6.371   2.066   1.120  1.1143 -0.1352  0.6558
 6969SOL    HW221689   6.315   2.107   1.255 -0.4501  0.2899 -0.1071
 6970SOL     OW21690   7.615   8.181   5.295  0.0522  0.6877 -0.0864
 6970SOL    HW121691   7.706   8.154   5.300  0.0568  0.1758 -2.0256
 6970SOL    HW221692   7.618   8.269   5.256 -0.3350 -0.8716 -4.0642
 6971SOL     OW21693   1.625   6.251   2.797 -0.1750  0.0740  0.3112
 6971SOL    HW121694   1.584   6.258   2.711  0.1578 -0.6980  0.0793
 6971SOL    HW221695   1.552   6.253   2.859 -0.2888  2.9058  0.1842
 6972SOL     OW21696   3.710   2.545   4.545  0.0502  0.0737 -0.1784
 6972SOL    HW121697   3.664   2.473   4.502  2.1859 -0.7541 -1.2162
 6972SOL    HW221698   3.800   2.539   4.513  1.4475  0.3593  3.2308
 6973SOL     OW21699   2.895   5.416   1.334  0.0803  0.3232  0.1829
 6973SOL    HW121700   2.985   5.428   1.303  0.2086 -0.8581  0.0651
 6973SOL    HW221701   2.904   5.370   1.417 -0.4546 -2.0487 -0.9799
 6974SOL     OW21702   3.635   4.738   4.687  0.2131  0.3769 -0.1810
 6974SOL    HW121703   3.679   4.788   4.618  1.0577 -0.0263  0.0530
 6974SOL    HW221704   3.618   4.803   4.756 -0.7815  0.8163 -0.8082
 6975SOL     OW21705   0.014   6.242   1.215 -0.3047 -0.9685 -0.3305
 6975SOL    HW121706  -0.028   6.226   1.131 -2.5660 -0.1299  0.5780
 6975SOL    HW221707   0.034   6.154   1.249 -0.6452 -1.3631 -1.1323
 6976SOL     OW21708   6.213   0.460   0.219 -0.1421 -0.1054  0.3791
 6976SOL    HW121709   6.263   0.532   0.179 -0.7720 -0.2409 -0.6796
 6976SOL    HW221710   6.127   0.498   0.236  0.1660  0.0036  1.8216
 6977SOL     OW21711   8.311   0.301   2.949  0.0262  0.1401  0.0033
 6977SOL    HW121712   8.227   0.258   2.965 -0.4417  1.0585  0.0936
 6977SOL    HW221713   8.291   0.371   2.887  1.0483 -0.6818 -1.3172
 6978SOL     OW21714   8.313   5.738   6.179 -0.1079  0.2578 -0.0786
 6978SOL    HW121715   8.305   5.811   6.118 -2.0861 -0.0097 -0.2005
 6978SOL    HW221716   8.343   5.665   6.125  0.0546  0.5071 -0.3282
 6979SOL     OW21717   0.690   7.225   2.096  0.4614 -0.0224 -0.7805
 6979SOL    HW121718   0.612   7.174   2.118  0.1122  0.9068  0.2344
 6979SOL    HW221719   0.665   7.275   2.018 -0.3582  1.0741  0.1542
 6980SOL     OW21720   2.084   4.489   6.258 -0.2163 -0.2570 -0.5857
 6980SOL    HW121721   2.005   4.505   6.310  0.2341 -1.8714  0.6795
 6980SOL    HW221722   2.063   4.412   6.206  0.6031 -0.8694 -0.0273
 6981SOL     OW21723   5.251   0.074   3.866 -0.1600 -0.3921 -0.1775
 6981SOL    HW121724   5.208   0.059   3.950 -0.4354 -0.4703 -0.3326
 6981SOL    HW221725   5.270  -0.014   3.833 -0.2272 -0.3653 -0.2882
 6982SOL     OW21726   3.822   5.550   7.411 -0.5265 -0.0765 -0.0138
 6982SOL    HW121727   3.790   5.616   7.473  1.2880 -0.5334  1.5041
 6982SOL    HW221728   3.917   5.556   7.417 -0.3194 -1.3382 -1.4978
 6983SOL     OW21729   1.588   2.599   0.056  0.0530 -0.7176 -0.2652
 6983SOL    HW121730   1.564   2.508   0.069 -1.6266  0.0455  2.7362
 6983SOL    HW221731   1.674   2.595   0.014  0.0267 -3.6383 -0.2268
 6984SOL     OW21732   1.345   6.113   0.827  0.6617  0.3958  0.1808
 6984SOL    HW121733   1.324   6.201   0.797  1.3023  0.6195  0.3710
 6984SOL    HW221734   1.435   6.099   0.799  0.3106 -0.5061 -0.5477
 6985SOL     OW21735   8.318   4.275   2.804 -0.0303  0.5400 -0.0492
 6985SOL    HW121736   8.310   4.370   2.790 -2.3897  0.5682  1.1541
 6985SOL    HW221737   8.270   4.258   2.885  1.0813 -1.6025  0.2346
 6986SOL     OW21738   3.537   5.877   4.481 -0.4706 -0.2629 -0.0670
 6986SOL    HW121739   3.511   5.966   4.504  0.8833 -0.4387  2.5328
 6986SOL    HW221740   3.456   5.835   4.454 -1.9438  0.6716  2.5562
 6987SOL     OW21741   6.544   7.798   3.384  0.0496  0.0412  0.2073
 6987SOL    HW121742   6.607   7.865   3.357  0.7367 -0.0424  1.5012
 6987SOL    HW221743   6.593   7.744   3.446 -0.7694 -1.1191 -0.1320
 6988SOL     OW21744   3.908   2.110   2.071  0.1152  0.4209 -0.1848
 6988SOL    HW121745   3.817   2.129   2.093 -0.3374 -1.6090 -0.1180
 6988SOL    HW221746   3.929   2.031   2.122  1.5125  0.1411 -1.1436
 6989SOL     OW21747   4.433   4.395   3.493 -0.3360 -0.3075 -0.5932
 6989SOL    HW121748   4.420   4.472   3.436  0.0493 -0.5170 -0.9699
 6989SOL    HW221749   4.353   4.391   3.546  0.1481  1.0656  0.2907
 6990SOL     OW21750   7.597   6.487   1.887 -0.3949 -0.2591 -0.1340
 6990SOL    HW121751   7.671   6.532   1.845 -1.2770  0.0326 -1.4520
 6990SOL    HW221752   7.578   6.539   1.965 -0.1739  0.5493 -0.6050
 6991SOL     OW21753   0.148   8.312   0.212  0.6253  0.0490  0.3067
 6991SOL    HW121754   0.134   8.240   0.274 -0.0613 -1.1611 -1.1835
 6991SOL    HW221755   0.177   8.269   0.131  1.8604  1.6073 -0.1268
 6992SOL     OW21756   4.004   5.184   7.838 -0.5096  0.1162  0.1442
 6992SOL    HW121757   3.933   5.224   7.788 -0.4942 -2.3957 -2.1080
 6992SOL    HW221758   4.081   5.194   7.782  0.7259  1.5946  1.9617
 6993SOL     OW21759   5.717   7.381   0.817  0.0383 -0.4101  0.3410
 6993SOL    HW121760   5.636   7.332   0.831  0.0104 -0.8167 -1.0451
 6993SOL    HW221761   5.689   7.469   0.793  0.0489 -0.1687  1.1945
 6994SOL     OW21762   2.956   0.792   6.406 -0.5431  0.5151  0.3412
 6994SOL    HW121763   2.935   0.701   6.424  0.2705 -0.0435 -1.3603
 6994SOL    HW221764   2.965   0.832   6.493 -0.7431 -1.0533  1.1097
 6995SOL     OW21765   6.131   5.152   4.649 -0.4586  0.1951  0.4315
 6995SOL    HW121766   6.068   5.176   4.580  0.2553 -0.2003 -0.3815
 6995SOL    HW221767   6.168   5.235   4.678 -1.6200  0.4693  1.2012
 6996SOL     OW21768   3.507   3.295   7.305  0.4324 -0.0630 -0.4365
 6996SOL    HW121769   3.552   3.366   7.259 -0.8149  0.6340 -0.6394
 6996SOL    HW221770   3.422   3.289   7.261 -0.4294 -0.0358  1.1665
 6997SOL     OW21771   0.438   3.710   4.892  0.3154 -0.3029 -0.4681
 6997SOL    HW121772   0.491   3.756   4.956  1.0311 -0.5238 -0.8923
 6997SOL    HW221773   0.458   3.618   4.905 -2.7046 -0.7936  1.8394
 6998SOL     OW21774   1.092   2.505   1.498 -0.0147 -0.0379 -0.2393
 6998SOL    HW121775   1.141   2.429   1.467 -0.3670 -0.0694 -0.7303
 6998SOL    HW221776   1.025   2.519   1.431 -1.5068 -0.7714  1.0265
 6999SOL     OW21777   3.094   1.778   0.960 -0.0633 -0.0631  0.0945
 6999SOL    HW121778   3.183   1.754   0.988  0.2319 -0.0991 -0.8478
 6999SOL    HW221779   3.082   1.733   0.876 -1.0137 -0.1384  0.2531
 7000SOL     OW21780   4.072   5.636   2.754  0.3244  0.6716 -0.1910
 7000SOL    HW121781   4.073   5.546   2.789 -0.8639  1.1365  1.1128
 7000SOL    HW221782   4.107   5.689   2.825  0.0893  1.3550 -0.5840
 7001SOL     OW21783   0.069   7.047   5.646 -0.4812  0.2263  0.3791
 7001SOL    HW121784   0.145   7.083   5.692 -0.7092 -0.5523  1.4189
 7001SOL    HW221785   0.102   6.967   5.605  0.0688  1.6362 -2.0658
 7002SOL     OW21786   0.284   4.130   2.924 -0.3178  0.6343 -0.5459
 7002SOL    HW121787   0.247   4.072   2.991  0.7379  0.7259  0.1475
 7002SOL    HW221788   0.260   4.089   2.841 -1.5018  0.4246 -0.1172
 7003SOL     OW21789   8.062   6.062   8.117  0.4227  0.3598 -0.4954
 7003SOL    HW121790   8.097   6.063   8.029  0.2713 -0.6205 -0.5809
 7003SOL    HW221791   8.096   5.981   8.156  1.0903  1.1378  0.5949
 7004SOL     OW21792   1.208   7.423   0.039 -0.3504  0.0806  0.5122
 7004SOL    HW121793   1.278   7.447   0.100  0.0883 -0.7081  0.3369
 7004SOL    HW221794   1.242   7.448  -0.047 -0.6800  0.5553  0.5168
 7005SOL     OW21795   2.874   4.457   2.299 -0.6133 -0.7299  0.1738
 7005SOL    HW121796   2.803   4.503   2.255  0.8100 -0.7621 -2.3088
 7005SOL    HW221797   2.942   4.523   2.310 -0.3393 -1.1248  0.9396
 7006SOL     OW21798   8.314   5.726   7.751  0.0380 -0.4505  0.1012
 7006SOL    HW121799   8.288   5.641   7.786  0.3347 -0.0775  1.3054
 7006SOL    HW221800   8.399   5.712   7.711  0.0251 -0.7567  0.1827
 7007SOL     OW21801   1.495   3.276   8.115 -0.1102  0.1323  0.1990
 7007SOL    HW121802   1.568   3.228   8.156  0.7843  0.8105 -0.5422
 7007SOL    HW221803   1.470   3.223   8.040 -0.9617 -0.5241  0.9344
 7008SOL     OW21804   0.784   0.178   5.337 -0.4033 -0.0706  0.1986
 7008SOL    HW121805   0.751   0.145   5.421  1.5916  1.8567  1.8629
 7008SOL    HW221806   0.854   0.239   5.361 -0.7637  1.7315 -2.8202
 7009SOL     OW21807   2.760   3.915   4.908 -0.7042  0.7035 -0.1260
 7009SOL    HW121808   2.792   3.971   4.838  3.2085 -0.6665  0.3271
 7009SOL    HW221809   2.753   3.828   4.868 -3.1844  0.7380  0.0757
 7010SOL     OW21810   5.869   1.078   3.597  0.3749  0.0820  0.7233
 7010SOL    HW121811   5.899   0.990   3.574 -2.7210 -0.1178 -3.8156
 7010SOL    HW221812   5.787   1.065   3.644 -0.0084  0.5227  0.1933
 7011SOL     OW21813   4.658   1.641   0.371 -0.7192  0.0226  0.2560
 7011SOL    HW121814   4.632   1.570   0.312 -1.9287  0.2887  0.4375
 7011SOL    HW221815   4.578   1.661   0.421 -0.2690  1.1930  0.5342
 7012SOL     OW21816   6.899   0.275   1.924  0.0108  0.2672  0.3001
 7012SOL    HW121817   6.824   0.286   1.982  0.7892 -1.3826  1.7047
 7012SOL    HW221818   6.926   0.364   1.903 -1.2001  0.8946  1.2542
 7013SOL     OW21819   0.483   1.389   1.873  0.1010  0.0438 -0.3642
 7013SOL    HW121820   0.557   1.444   1.898  0.1265 -0.5841  1.0337
 7013SOL    HW221821   0.519   1.329   1.807  0.8457 -0.2846  0.3322
 7014SOL     OW21822   1.667   5.651   4.317 -0.5425 -0.5682 -0.1706
 7014SOL    HW121823   1.708   5.735   4.338  0.4081 -0.5523 -1.9380
 7014SOL    HW221824   1.578   5.674   4.290 -0.3066 -0.1357 -0.5913
 7015SOL     OW21825   0.535   1.621   5.481 -0.5768  0.3246  0.1267
 7015SOL    HW121826   0.448   1.659   5.467 -0.9069 -0.5584 -0.2576
 7015SOL    HW221827   0.551   1.568   5.403  0.4374  0.7019  0.0531
 7016SOL     OW21828   0.041   1.577   3.936  0.0212  0.8304 -0.1519
 7016SOL    HW121829   0.127   1.549   3.906 -0.5239  0.3703 -1.3520
 7016SOL    HW221830   0.038   1.550   4.028  1.0246  0.5557 -0.1830
 7017SOL     OW21831   5.633   1.685   5.758 -0.6476 -0.2932 -0.0495
 7017SOL    HW121832   5.619   1.747   5.829  0.1307  0.0047 -0.1532
 7017SOL    HW221833   5.549   1.639   5.750 -0.7815 -0.2472  0.9722
 7018SOL     OW21834   4.550   8.161   4.347 -1.0156  0.0477  0.5657
 7018SOL    HW121835   4.528   8.118   4.264  0.5863 -0.2338  0.2522
 7018SOL    HW221836   4.486   8.231   4.355 -2.7867 -1.4652  0.3717
 7019SOL     OW21837   7.856   6.313   0.597 -0.0589 -0.0521  0.0074
 7019SOL    HW121838   7.789   6.314   0.529 -0.2082  1.7815  0.1287
 7019SOL    HW221839   7.938   6.300   0.549 -0.1840  1.0248 -0.5435
 7020SOL     OW21840   0.982   7.461   6.367 -0.8417  0.3446  0.2949
 7020SOL    HW121841   0.968   7.370   6.391 -0.1582 -0.0298 -0.6498
 7020SOL    HW221842   1.060   7.487   6.415  0.0201 -0.1380 -0.8078
 7021SOL     OW21843   7.254   2.788   0.385  0.1728 -0.2574  0.3910
 7021SOL    HW121844   7.269   2.759   0.295  1.4140  0.9120  0.1905
 7021SOL    HW221845   7.200   2.867   0.376  1.1954  0.4852  0.5781
 7022SOL     OW21846   8.088   7.624   4.559 -0.3561  0.2058  1.1375
 7022SOL    HW121847   8.119   7.557   4.620  0.2245 -0.4461  0.1649
 7022SOL    HW221848   8.164   7.680   4.545  0.5631 -1.5117 -1.4119
 7023SOL     OW21849   3.314   7.459   3.868  0.4367  0.5989  0.0593
 7023SOL    HW121850   3.353   7.534   3.823  0.3373  1.0279  0.6893
 7023SOL    HW221851   3.371   7.386   3.845  0.5381  0.8619 -0.5518
 7024SOL     OW21852   5.835   7.884   3.190 -0.1767 -0.0790 -1.5875
 7024SOL    HW121853   5.917   7.905   3.235 -0.1790  0.9024 -2.0118
 7024SOL    HW221854   5.772   7.947   3.225 -0.8964 -1.1443 -0.8955
 7025SOL     OW21855   1.083   6.407   3.925 -0.0590  0.7944  0.3487
 7025SOL    HW121856   1.124   6.479   3.973 -1.9683  0.6835  2.3140
 7025SOL    HW221857   1.040   6.355   3.993 -1.6029 -0.2675 -1.3488
 7026SOL     OW21858   8.188   3.505   5.860 -0.1855  0.0557  0.4940
 7026SOL    HW121859   8.243   3.516   5.938  0.5716 -1.8003  0.2661
 7026SOL    HW221860   8.139   3.425   5.877 -2.7101  1.5031  0.5686
 7027SOL     OW21861   8.076   8.102   4.332 -0.4682 -0.2520  0.3256
 7027SOL    HW121862   8.042   8.059   4.253  0.5636 -0.1845 -0.1687
 7027SOL    HW221863   8.135   8.170   4.298  0.5548 -0.7035  1.1598
 7028SOL     OW21864   4.197   1.779   8.056 -0.5377 -0.5135  0.4856
 7028SOL    HW121865   4.160   1.866   8.074  0.2892 -0.6182  3.0257
 7028SOL    HW221866   4.129   1.718   8.083 -0.3164 -0.6714  0.6856
 7029SOL     OW21867   7.717   5.574   3.873  0.0785  0.4607  0.1551
 7029SOL    HW121868   7.693   5.583   3.780  2.6211  0.9067 -0.5288
 7029SOL    HW221869   7.710   5.663   3.908 -0.4327  0.3676  0.3096
 7030SOL     OW21870   5.685   6.617   5.174  0.3099  0.4368 -0.4250
 7030SOL    HW121871   5.750   6.644   5.110 -0.3323  1.3939 -0.6976
 7030SOL    HW221872   5.696   6.522   5.181  1.8093  0.5939 -0.3485
 7031SOL     OW21873   6.177   6.751   1.168  0.5887  0.4524 -0.0231
 7031SOL    HW121874   6.272   6.751   1.178  0.6347  2.8453  0.1106
 7031SOL    HW221875   6.144   6.755   1.258  0.2764 -1.6282 -0.0001
 7032SOL     OW21876   1.328   0.658   0.866 -0.2897  0.1805 -0.5066
 7032SOL    HW121877   1.399   0.603   0.898  0.2687 -0.2094 -2.3014
 7032SOL    HW221878   1.346   0.744   0.904  2.1428  0.5245 -2.2008
 7033SOL     OW21879   0.507   1.334   1.562 -0.2488 -0.5049 -0.0774
 7033SOL    HW121880   0.523   1.317   1.469 -0.3905 -1.9650  0.1354
 7033SOL    HW221881   0.519   1.248   1.604  1.5387  0.4283  1.4949
 7034SOL     OW21882   2.121   1.947   6.350 -0.3456  0.4577  0.3034
 7034SOL    HW121883   2.211   1.921   6.369 -1.7435 -4.3848  1.5977
 7034SOL    HW221884   2.119   1.958   6.254  1.3808 -0.4356  0.1319
 7035SOL     OW21885   0.868   7.835   4.733  0.5664  0.1234  0.3132
 7035SOL    HW121886   0.861   7.750   4.778 -0.3392 -0.4263 -0.8032
 7035SOL    HW221887   0.921   7.816   4.656  1.6825  0.9439  0.8566
 7036SOL     OW21888   1.518   6.827   4.172 -0.4095 -0.0253  0.1348
 7036SOL    HW121889   1.529   6.745   4.124  1.2001 -2.9384  4.7334
 7036SOL    HW221890   1.424   6.832   4.189 -0.3899 -1.9766  1.1382
 7037SOL     OW21891   6.962   8.037   2.806 -0.5276 -0.4928  0.1772
 7037SOL    HW121892   6.888   8.074   2.855  0.0536 -0.2077  0.8563
 7037SOL    HW221893   6.939   8.052   2.714 -1.7754 -1.3194  0.3324
 7038SOL     OW21894   2.666   1.539   0.310 -0.2330 -0.6733  0.0610
 7038SOL    HW121895   2.744   1.587   0.339 -0.4940 -0.4774  0.4517
 7038SOL    HW221896   2.673   1.453   0.353 -1.0966 -0.0605  1.5207
 7039SOL     OW21897   2.903   0.659   4.283 -0.4594 -0.5712  0.0635
 7039SOL    HW121898   2.917   0.752   4.265 -1.4401  0.0224  2.0643
 7039SOL    HW221899   2.962   0.614   4.223  1.8586  1.4063  0.6845
 7040SOL     OW21900   4.208   1.712   5.699  0.8123 -0.4842  0.1259
 7040SOL    HW121901   4.201   1.808   5.702  3.3976 -0.2321  0.2400
 7040SOL    HW221902   4.119   1.683   5.678  0.0979  1.9726 -0.6728
 7041SOL     OW21903   3.837   4.929   1.263 -0.1580 -0.3552 -0.2627
 7041SOL    HW121904   3.841   4.850   1.318  1.1376 -0.3276 -0.3003
 7041SOL    HW221905   3.767   4.910   1.200 -1.6113 -0.4208  1.3036
 7042SOL     OW21906   5.343   7.103   6.982 -0.2996 -0.0396 -0.0339
 7042SOL    HW121907   5.331   7.194   6.953  0.4476  0.1186  0.1461
 7042SOL    HW221908   5.335   7.107   7.077  0.8266  0.0190  0.0650
 7043SOL     OW21909   2.920   5.203   0.606 -0.2776  0.3754 -0.5994
 7043SOL    HW121910   2.911   5.196   0.701 -0.3981 -1.2252 -0.6951
 7043SOL    HW221911   2.903   5.295   0.587  0.5757  0.9145  1.0069
 7044SOL     OW21912   6.188   4.372   5.815  0.6913  0.0522  0.3324
 7044SOL    HW121913   6.236   4.351   5.734  1.4571  1.7745  0.2854
 7044SOL    HW221914   6.136   4.449   5.791  0.8389  0.5066  1.4369
 7045SOL     OW21915   3.276   2.636   5.623 -0.2783 -0.2264  0.3903
 7045SOL    HW121916   3.190   2.632   5.663 -0.5017 -0.6970 -0.1183
 7045SOL    HW221917   3.258   2.649   5.529  0.1963 -0.4618  0.2642
 7046SOL     OW21918   7.020   4.115   4.804  1.0327  0.3234 -0.0404
 7046SOL    HW121919   7.006   4.111   4.709  1.7399  1.6141 -0.2300
 7046SOL    HW221920   7.106   4.155   4.814  0.2222  1.8853  1.1416
 7047SOL     OW21921   7.334   2.406   3.512  0.3351 -0.0638  0.3180
 7047SOL    HW121922   7.270   2.423   3.580 -0.8064 -0.6263 -0.5719
 7047SOL    HW221923   7.323   2.478   3.449  0.0290 -0.5686 -0.2195
 7048SOL     OW21924   3.939   5.175   0.899 -0.2119 -0.5374  0.3001
 7048SOL    HW121925   4.001   5.224   0.845  1.9856 -2.7292  0.5926
 7048SOL    HW221926   3.895   5.116   0.838 -0.5882 -0.3260  0.3666
 7049SOL     OW21927   1.892   4.500   0.585  0.5128 -0.0933  0.3732
 7049SOL    HW121928   1.969   4.452   0.615  0.8993 -1.0980 -1.9653
 7049SOL    HW221929   1.922   4.592   0.581  1.4358 -0.3902  0.0513
 7050SOL     OW21930   0.231   1.307   1.247 -0.0377  0.4255 -0.1304
 7050SOL    HW121931   0.223   1.354   1.330 -1.1414 -0.4807  0.3037
 7050SOL    HW221932   0.317   1.267   1.250  0.9769  2.4249 -0.5455
 7051SOL     OW21933   6.438   6.996   2.107 -0.4847  0.7652 -0.4536
 7051SOL    HW121934   6.513   7.051   2.132 -0.3266  0.0548  0.6861
 7051SOL    HW221935   6.362   7.043   2.141 -0.2556 -0.3118  1.7111
 7052SOL     OW21936   7.399   7.486   8.137  0.5676 -0.3612 -0.1997
 7052SOL    HW121937   7.447   7.413   8.098 -2.5200 -2.7729  0.1058
 7052SOL    HW221938   7.341   7.517   8.067 -0.3999 -0.3751  0.5742
 7053SOL     OW21939   5.376   0.144   0.622 -0.2094 -0.1091  0.5710
 7053SOL    HW121940   5.461   0.168   0.659  0.4138  0.9591 -1.4098
 7053SOL    HW221941   5.315   0.150   0.696  0.9718  1.8287  1.4637
 7054SOL     OW21942   0.089   4.472   7.233 -0.0096  0.4137  0.7681
 7054SOL    HW121943   0.085   4.376   7.237  4.1226 -0.1484 -2.0575
 7054SOL    HW221944   0.019   4.496   7.172  0.7733 -1.2523 -0.9047
 7055SOL     OW21945   5.520   7.759   8.010 -0.1656 -0.1928 -0.4302
 7055SOL    HW121946   5.612   7.783   8.005  0.0678  0.1710  3.1359
 7055SOL    HW221947   5.519   7.677   8.058 -1.7207 -0.2952 -0.5746
 7056SOL     OW21948   8.058   4.096   7.341  0.1969  0.2626  0.3409
 7056SOL    HW121949   8.074   4.103   7.435  3.0135  1.7133 -0.1135
 7056SOL    HW221950   8.109   4.019   7.314 -2.6655 -1.7575  0.2554
 7057SOL     OW21951   1.963   5.302   2.772  0.4041 -0.4140 -0.1353
 7057SOL    HW121952   2.030   5.238   2.796 -0.5316 -0.4789  2.6028
 7057SOL    HW221953   1.882   5.267   2.808 -0.4110  1.5727  0.0951
 7058SOL     OW21954   1.955   3.328   5.679 -0.1040  0.0984 -0.7677
 7058SOL    HW121955   1.871   3.374   5.675 -0.1721 -0.0436 -1.0258
 7058SOL    HW221956   1.967   3.292   5.591  0.8718  1.2474 -1.1337
 7059SOL     OW21957   0.444   5.317   4.036  0.1725 -0.2049 -0.1928
 7059SOL    HW121958   0.491   5.332   4.117  0.9765 -0.8463 -0.5243
 7059SOL    HW221959   0.511   5.326   3.967 -0.8317  2.1415 -0.9584
 7060SOL     OW21960   4.127   4.197   7.332  0.0889  0.4412  0.3316
 7060SOL    HW121961   4.096   4.202   7.423  0.2685  0.6450  0.3823
 7060SOL    HW221962   4.182   4.275   7.321  0.5748  0.0909  0.2399
 7061SOL     OW21963   7.739   1.790   0.960  0.1830 -0.2639  0.5819
 7061SOL    HW121964   7.750   1.861   1.023 -2.4612 -1.1699  2.2865
 7061SOL    HW221965   7.699   1.719   1.012  0.5581 -2.1470 -1.5406
 7062SOL     OW21966   4.822   5.542   2.115  0.2889 -0.4636 -0.4364
 7062SOL    HW121967   4.748   5.508   2.166 -0.8764 -0.2179 -1.8807
 7062SOL    HW221968   4.821   5.636   2.132  1.9343 -0.7321  1.5622
 7063SOL     OW21969   3.250   7.605   4.366 -0.1240 -0.1286  1.1832
 7063SOL    HW121970   3.180   7.570   4.311 -1.0788  1.9796  0.9988
 7063SOL    HW221971   3.303   7.528   4.388 -2.1580 -1.6819  0.8876
 7064SOL     OW21972   0.297   5.424   2.849 -0.0899  0.3046  0.4444
 7064SOL    HW121973   0.220   5.464   2.890 -0.2066  1.1661 -0.5865
 7064SOL    HW221974   0.272   5.333   2.836 -2.4510  1.2645 -3.2118
 7065SOL     OW21975   6.088   8.003   2.309 -0.5416  0.5140 -0.0580
 7065SOL    HW121976   6.077   7.908   2.309  0.9302  0.1632  3.8832
 7065SOL    HW221977   6.019   8.036   2.366  0.4769  1.4723  0.6807
 7066SOL     OW21978   0.844   0.141   1.379 -0.2862  0.2350 -0.3377
 7066SOL    HW121979   0.870   0.147   1.288  1.8447  1.7116  0.2901
 7066SOL    HW221980   0.851   0.231   1.412 -1.5197 -0.1709  1.1553
 7067SOL     OW21981   6.412   3.375   7.968  0.5197  0.2058  0.0983
 7067SOL    HW121982   6.455   3.438   7.910 -0.8025  0.0096 -1.1654
 7067SOL    HW221983   6.434   3.290   7.931 -0.0484  0.0663  0.0684
 7068SOL     OW21984   4.559   3.603   5.846 -0.6187 -0.1120 -0.0372
 7068SOL    HW121985   4.649   3.570   5.851 -0.1740  1.1995  1.2335
 7068SOL    HW221986   4.561   3.686   5.893 -2.9068 -0.9446  1.7221
 7069SOL     OW21987   5.237   8.118   3.728 -0.3509  0.1537  0.2421
 7069SOL    HW121988   5.259   8.102   3.820 -1.4217  0.1036  0.5012
 7069SOL    HW221989   5.197   8.037   3.698  0.7068 -0.1149 -0.5199
 7070SOL     OW21990   4.411   4.562   2.690 -0.0942  0.2326  0.2822
 7070SOL    HW121991   4.492   4.550   2.740 -0.1229  0.3671  0.3618
 7070SOL    HW221992   4.433   4.532   2.601  0.0888  0.4123  0.2649
 7071SOL     OW21993   0.864   2.335   3.475 -0.2374 -0.7392 -0.4494
 7071SOL    HW121994   0.813   2.366   3.551  0.1767  0.1237 -0.5048
 7071SOL    HW221995   0.923   2.269   3.511 -0.2143 -0.5108 -0.0649
 7072SOL     OW21996   5.594   5.776   0.439 -0.0368 -0.0851  0.1162
 7072SOL    HW121997   5.528   5.842   0.458 -0.3844 -0.3470 -0.1610
 7072SOL    HW221998   5.578   5.752   0.348  0.0044 -0.6354  0.2471
 7073SOL     OW21999   4.519   4.875   8.127 -0.2731  0.1695 -0.2066
 7073SOL    HW122000   4.590   4.839   8.073 -1.1014 -0.4905 -0.8998
 7073SOL    HW222001   4.509   4.965   8.097  2.5987  1.4705  2.3358
 7074SOL     OW22002   5.870   3.085   8.070 -0.1084  0.0710  0.6113
 7074SOL    HW122003   5.869   3.180   8.061 -1.1678  0.1281  1.2036
 7074SOL    HW222004   5.779   3.061   8.088  0.1526 -1.0537  0.5284
 7075SOL     OW22005   6.177   5.394   7.005  0.2348  1.0702 -0.2895
 7075SOL    HW122006   6.269   5.416   7.023  0.8333 -0.6188 -1.0722
 7075SOL    HW222007   6.168   5.405   6.910 -0.5852  1.9089 -0.1258
 7076SOL     OW22008   6.358   0.838   7.334  0.0560  0.0782 -0.0546
 7076SOL    HW122009   6.262   0.838   7.328 -0.0187 -2.7663 -0.4902
 7076SOL    HW222010   6.378   0.758   7.384  2.2567 -1.1910 -2.7456
 7077SOL     OW22011   3.821   7.266   0.385 -0.4801 -0.3222 -0.6438
 7077SOL    HW122012   3.867   7.189   0.351  1.1623  0.7082 -0.8550
 7077SOL    HW222013   3.810   7.323   0.309 -0.6899  0.1398 -0.2735
 7078SOL     OW22014   3.940   6.739   1.461 -0.2756  0.0382 -0.2826
 7078SOL    HW122015   3.927   6.688   1.541  2.3401 -0.2456  0.0581
 7078SOL    HW222016   3.874   6.706   1.400 -0.9690 -1.2254  1.0912
 7079SOL     OW22017   5.722   8.157   0.006  0.2234  0.0157 -0.1545
 7079SOL    HW122018   5.678   8.213  -0.058  1.2002  1.0102  0.0164
 7079SOL    HW222019   5.650   8.122   0.059 -0.4009  1.7175  0.2135
 7080SOL     OW22020   6.879   4.075   1.421 -0.0275  0.8003 -0.2822
 7080SOL    HW122021   6.790   4.106   1.409 -0.3072  1.2108  2.1871
 7080SOL    HW222022   6.930   4.119   1.353 -1.3844  2.0984 -0.4988
 7081SOL     OW22023   3.163   1.461   5.722  0.0172 -0.0896 -0.1536
 7081SOL    HW122024   3.253   1.480   5.749 -0.0691  0.6128 -0.3396
 7081SOL    HW222025   3.132   1.397   5.786 -0.1515  1.4744  1.4267
 7082SOL     OW22026   3.384   4.880   6.920  0.5362 -0.1953  0.8470
 7082SOL    HW122027   3.456   4.819   6.900 -0.0965 -1.0028  0.9574
 7082SOL    HW222028   3.425   4.949   6.972  0.9900 -1.3611  2.0935
 7083SOL     OW22029   3.401   7.071   7.154  0.3411 -0.2473  0.2222
 7083SOL    HW122030   3.308   7.065   7.177 -1.0575 -0.6700 -4.4547
 7083SOL    HW222031   3.409   7.154   7.106  2.4832 -0.1092  0.7122
 7084SOL     OW22032   8.229   0.255   7.688 -0.1071 -0.6737  0.4090
 7084SOL    HW122033   8.220   0.350   7.700  0.9113 -0.5380  0.1601
 7084SOL    HW222034   8.314   0.234   7.727 -0.5819 -1.5922  0.9904
 7085SOL     OW22035   6.336   7.639   7.363  0.3477 -0.7378  0.0718
 7085SOL    HW122036   6.286   7.579   7.418 -2.8720  2.1634  0.6451
 7085SOL    HW222037   6.389   7.690   7.424  1.1074 -1.2677 -0.1388
 7086SOL     OW22038   5.360   7.941   2.069  0.0340 -0.4454 -0.4262
 7086SOL    HW122039   5.274   7.959   2.032  0.2313 -0.3547 -0.8532
 7086SOL    HW222040   5.402   7.883   2.006  1.1063  1.2653 -1.3661
 7087SOL     OW22041   0.861   7.052   0.239 -0.3208  0.3223 -0.3577
 7087SOL    HW122042   0.832   7.098   0.318 -1.0895 -0.1071 -0.3822
 7087SOL    HW222043   0.956   7.046   0.248 -0.4810 -0.6127  1.0495
 7088SOL     OW22044   2.147   6.960   1.162 -0.2685 -0.0337  0.1696
 7088SOL    HW122045   2.147   7.041   1.110 -0.5587 -0.3951 -0.4031
 7088SOL    HW222046   2.205   6.901   1.114 -1.4975 -0.7973 -0.4425
 7089SOL     OW22047   2.116   5.538   7.509  0.6712  0.3442 -0.5796
 7089SOL    HW122048   2.080   5.536   7.420  0.4857 -2.6670 -0.5504
 7089SOL    HW222049   2.041   5.551   7.566  0.3356 -0.7031 -0.7630
 7090SOL     OW22050   8.302   4.531   4.536 -0.1064  0.4420  0.3444
 7090SOL    HW122051   8.359   4.457   4.557  1.4062  1.5356  0.2206
 7090SOL    HW222052   8.362   4.603   4.516 -1.5137  1.9655  1.3525
 7091SOL     OW22053   4.281   6.058   0.135 -0.6331  0.3815 -0.4340
 7091SOL    HW122054   4.307   6.013   0.215 -0.6804  1.2248  0.0685
 7091SOL    HW222055   4.212   6.003   0.098  0.4778 -0.8440 -0.7504
 7092SOL     OW22056   1.048   7.701   4.589  0.4221 -0.0873 -0.1832
 7092SOL    HW122057   1.141   7.705   4.614  0.6632 -1.4996 -0.7919
 7092SOL    HW222058   1.049   7.663   4.501 -0.7796 -0.6955  0.0546
 7093SOL     OW22059   5.926   7.977   0.069 -0.1085 -0.4226  0.2112
 7093SOL    HW122060   5.861   8.041   0.040 -1.4794 -1.8056  0.1068
 7093SOL    HW222061   5.907   7.964   0.162  2.6457  2.1073  1.2737
 7094SOL     OW22062   4.814   0.780   5.472 -0.1153  0.0905  0.1113
 7094SOL    HW122063   4.849   0.693   5.491  0.4335  0.4661  0.8770
 7094SOL    HW222064   4.741   0.790   5.533 -1.3636 -0.5278 -1.2050
 7095SOL     OW22065   5.871   4.326   6.387 -1.4051 -0.4901  0.1404
 7095SOL    HW122066   5.871   4.232   6.367  0.1855 -0.6293  0.6501
 7095SOL    HW222067   5.832   4.333   6.474 -0.9314 -0.7520  0.3745
 7096SOL     OW22068   2.292   0.186   4.779  0.0955 -0.1583  0.0409
 7096SOL    HW122069   2.200   0.199   4.800 -0.0042 -1.6734  0.6268
 7096SOL    HW222070   2.316   0.104   4.822  1.9418  0.6243  0.6180
 7097SOL     OW22071   1.645   4.670   5.917 -0.2521  0.1357  0.0015
 7097SOL    HW122072   1.687   4.754   5.897 -0.4806  0.2012 -0.1955
 7097SOL    HW222073   1.558   4.676   5.877 -0.6503  0.2048  0.8377
 7098SOL     OW22074   1.767   7.474   7.120 -0.0079  0.1662  0.1905
 7098SOL    HW122075   1.821   7.402   7.152  0.9928  0.3692 -0.9906
 7098SOL    HW222076   1.766   7.464   7.025 -1.5320  0.5504  0.1369
 7099SOL     OW22077   0.969   6.760   5.532 -0.7568  0.3535 -0.3659
 7099SOL    HW122078   1.038   6.700   5.504  1.5118  3.1127 -1.2642
 7099SOL    HW222079   0.975   6.761   5.627 -0.6967 -0.6449 -0.3487
 7100SOL     OW22080   0.619   2.874   2.829  0.1016  0.0886  0.1166
 7100SOL    HW122081   0.565   2.799   2.802 -1.1426  1.2702 -0.8427
 7100SOL    HW222082   0.687   2.836   2.883 -0.8047 -1.6782  0.1016
 7101SOL     OW22083   2.592   0.034   2.017 -0.5830  0.4088 -0.1272
 7101SOL    HW122084   2.529   0.105   2.030 -0.3089  0.4592  1.0339
 7101SOL    HW222085   2.538  -0.045   2.020 -1.0900  0.5622 -2.7516
 7102SOL     OW22086   5.704   5.433   4.185  0.1410  0.4833 -0.4195
 7102SOL    HW122087   5.719   5.524   4.161 -0.9747  0.7651 -0.0817
 7102SOL    HW222088   5.656   5.437   4.267  0.4980 -0.4250 -0.1492
 7103SOL     OW22089   1.465   2.269   0.284 -0.0735 -0.2701 -0.0399
 7103SOL    HW122090   1.546   2.303   0.247 -0.3950  0.1271 -0.3943
 7103SOL    HW222091   1.486   2.250   0.375  0.6225 -0.8847 -0.3130
 7104SOL     OW22092   7.346   4.635   3.966 -0.2600 -0.8917  0.2157
 7104SOL    HW122093   7.273   4.626   4.027 -2.9612  2.5197 -2.1424
 7104SOL    HW222094   7.422   4.653   4.023 -2.1205 -0.2197  2.6592
 7105SOL     OW22095   6.558   3.415   0.043 -0.2978 -0.2713  0.3941
 7105SOL    HW122096   6.507   3.413   0.125  0.8037 -1.4363  1.1003
 7105SOL    HW222097   6.542   3.329   0.004  0.7257 -0.4702  0.3888
 7106SOL     OW22098   3.145   4.637   6.691  0.3520  0.1876 -0.0463
 7106SOL    HW122099   3.205   4.564   6.705  0.5421  0.2794 -0.3528
 7106SOL    HW222100   3.123   4.633   6.598  1.5820  1.4090 -0.4396
 7107SOL     OW22101   6.920   2.776   7.516 -0.4577  0.1055  0.3235
 7107SOL    HW122102   6.961   2.715   7.455 -1.3884 -1.6155  1.3397
 7107SOL    HW222103   6.988   2.794   7.581 -0.1766  0.1845  0.0131
 7108SOL     OW22104   0.719   1.024   7.360 -0.1451 -0.1926 -0.0825
 7108SOL    HW122105   0.726   1.079   7.282 -0.0774  0.2611  0.2439
 7108SOL    HW222106   0.645   0.967   7.342  0.0693 -0.3053 -0.6145
 7109SOL     OW22107   2.772   1.917   4.352 -0.0166 -0.2528  0.2403
 7109SOL    HW122108   2.721   1.853   4.301  1.0923 -2.7491  2.0283
 7109SOL    HW222109   2.707   1.978   4.386 -1.2638 -0.9379 -0.7864
 7110SOL     OW22110   4.965   6.837   0.356 -0.1679  0.1049 -0.0713
 7110SOL    HW122111   5.026   6.869   0.423 -0.4720  0.5765 -0.0185
 7110SOL    HW222112   4.892   6.897   0.360 -0.6549 -0.4760 -0.1160
 7111SOL     OW22113   3.987   7.565   5.848  0.1298  0.6141  0.6516
 7111SOL    HW122114   4.000   7.596   5.759 -1.6420 -3.7006 -1.4032
 7111SOL    HW222115   3.903   7.604   5.875 -0.6711 -0.1092 -0.6973
 7112SOL     OW22116   3.027   5.735   7.332 -0.4565  0.2068 -0.0668
 7112SOL    HW122117   3.074   5.718   7.250 -1.4404 -2.2524 -0.2089
 7112SOL    HW222118   3.094   5.768   7.391  0.4614  1.1931 -1.5668
 7113SOL     OW22119   5.364   3.779   0.291 -0.1679  0.2444 -0.4928
 7113SOL    HW122120   5.353   3.849   0.355 -1.1799  1.3408 -1.8214
 7113SOL    HW222121   5.455   3.788   0.260  0.3915 -0.4178  0.8759
 7114SOL     OW22122   0.947   1.128   3.540 -0.3059 -0.0350 -0.2634
 7114SOL    HW122123   0.872   1.105   3.485  2.5304  0.1968 -4.7155
 7114SOL    HW222124   0.921   1.210   3.581 -2.3301  0.3601 -2.0988
 7115SOL     OW22125   2.222   0.409   1.085 -0.3801  0.2215  0.0436
 7115SOL    HW122126   2.287   0.472   1.051 -1.2361  1.1688  0.1342
 7115SOL    HW222127   2.156   0.404   1.016 -1.0375  0.5196  0.6381
 7116SOL     OW22128   6.735   6.823   5.088  0.0033  0.2510  0.0330
 7116SOL    HW122129   6.726   6.919   5.093  1.0772  0.3800 -0.4466
 7116SOL    HW222130   6.706   6.800   5.000  0.0427  0.1700  0.0411
 7117SOL     OW22131   8.064   5.996   5.445  0.0991  0.1616  0.1303
 7117SOL    HW122132   8.042   5.935   5.374  0.6980  1.9914 -1.7163
 7117SOL    HW222133   8.024   6.079   5.418  0.1247  0.8505  2.0895
 7118SOL     OW22134   7.308   6.917   4.825  0.0206 -0.0289 -0.0417
 7118SOL    HW122135   7.385   6.888   4.777  0.3655 -0.8672  0.9682
 7118SOL    HW222136   7.235   6.873   4.782  0.4279 -1.5840  0.7754
 7119SOL     OW22137   6.104   7.181   5.722  0.3864 -0.3746  0.5092
 7119SOL    HW122138   6.044   7.177   5.648  2.0367 -0.6623 -0.8745
 7119SOL    HW222139   6.050   7.210   5.795 -1.4502 -0.7851 -0.6258
 7120SOL     OW22140   2.791   5.170   1.756 -0.1091 -0.0641  0.0748
 7120SOL    HW122141   2.721   5.210   1.808 -1.5125 -1.8546 -0.3616
 7120SOL    HW222142   2.854   5.241   1.744 -1.3472  1.3378  1.3303
 7121SOL     OW22143   6.271   2.889   3.700  0.1969  0.5343  0.1141
 7121SOL    HW122144   6.325   2.809   3.700  0.3374  0.5934 -1.6073
 7121SOL    HW222145   6.281   2.924   3.789 -0.1843 -1.5434  1.0542
 7122SOL     OW22146   7.332   5.496   0.450  0.4419 -0.3422  0.0781
 7122SOL    HW122147   7.335   5.513   0.544  0.6028 -2.0299  0.4132
 7122SOL    HW222148   7.389   5.419   0.438  0.2630 -0.2783 -1.3704
 7123SOL     OW22149   1.550   4.786   2.545 -0.3354  0.2842  0.3900
 7123SOL    HW122150   1.520   4.828   2.465  2.4521  0.1982 -0.8321
 7123SOL    HW222151   1.531   4.849   2.615 -0.0781  1.6995 -0.7844
 7124SOL     OW22152   5.861   7.025   6.846  0.1298 -0.5987 -0.0611
 7124SOL    HW122153   5.773   7.018   6.809  0.4156 -0.4553 -0.7816
 7124SOL    HW222154   5.847   7.033   6.940 -0.6508  0.0164 -0.2206
 7125SOL     OW22155   7.453   0.220   1.576 -0.4287 -0.4142 -0.6826
 7125SOL    HW122156   7.527   0.167   1.544 -1.1970 -0.0648 -3.3165
 7125SOL    HW222157   7.446   0.291   1.512 -1.5875  0.9159  0.8537
 7126SOL     OW22158   2.656   3.700   6.495 -0.4172  0.4519  0.0117
 7126SOL    HW122159   2.739   3.737   6.465 -0.4866  1.1535  0.6455
 7126SOL    HW222160   2.618   3.769   6.550 -1.0897 -0.1319  0.2891
 7127SOL     OW22161   3.014   4.054   7.509 -0.1344 -0.2107  0.1679
 7127SOL    HW122162   2.938   4.092   7.554  0.8068  1.0157  0.7777
 7127SOL    HW222163   3.043   4.123   7.449  0.8304 -0.4378  0.3542
 7128SOL     OW22164   7.730   4.563   6.641 -0.5581 -0.4820  0.6026
 7128SOL    HW122165   7.735   4.621   6.565  2.4585  0.4702  1.3711
 7128SOL    HW222166   7.722   4.622   6.716 -0.0896 -1.1890  1.2244
 7129SOL     OW22167   2.261   6.002   2.053 -0.5156  0.0152 -0.5403
 7129SOL    HW122168   2.341   5.954   2.033 -0.4913 -0.0561 -0.2704
 7129SOL    HW222169   2.254   6.068   1.984  0.9840  1.5539  0.6843
 7130SOL     OW22170   1.991   0.067   2.301 -0.1323 -0.6394  0.8142
 7130SOL    HW122171   1.946   0.134   2.353 -0.3762 -0.0686 -0.1219
 7130SOL    HW222172   2.068   0.112   2.266 -1.5395 -0.0651 -1.8222
 7131SOL     OW22173   3.691   3.974   7.501 -0.3999  0.2138 -0.2025
 7131SOL    HW122174   3.609   3.925   7.505 -1.2305  1.6571  0.8330
 7131SOL    HW222175   3.665   4.065   7.496  1.1161  0.5928 -3.0283
 7132SOL     OW22176   3.616   5.772   6.790  0.5944  0.0499  0.1100
 7132SOL    HW122177   3.611   5.811   6.702 -0.3143  0.4902  0.3402
 7132SOL    HW222178   3.597   5.845   6.850  0.1317 -0.4652  0.6060
 7133SOL     OW22179   0.763   5.060   0.096 -0.4714 -0.3152  0.4880
 7133SOL    HW122180   0.771   5.155   0.090  0.3718 -0.4458 -2.3999
 7133SOL    HW222181   0.710   5.044   0.174 -1.9759  2.5847  0.1797
 7134SOL     OW22182   7.878   4.413   7.029 -0.1424  0.0162 -0.0462
 7134SOL    HW122183   7.963   4.412   6.987  1.4629 -0.3543  2.9362
 7134SOL    HW222184   7.828   4.345   6.985  0.6948  0.8733 -2.4849
 7135SOL     OW22185   0.302   4.043   4.289  0.3359 -0.0169 -0.2715
 7135SOL    HW122186   0.334   4.102   4.220 -0.4781  1.4242  0.5417
 7135SOL    HW222187   0.260   3.971   4.241  0.6435  0.4509 -1.2839
 7136SOL     OW22188   7.046   5.090   7.109  0.1312  0.1460  0.2637
 7136SOL    HW122189   6.965   5.043   7.090  1.4317 -2.2159  0.2147
 7136SOL    HW222190   7.059   5.147   7.034 -0.5227 -0.8442 -0.6297
 7137SOL     OW22191   5.845   1.152   2.108 -0.0768  0.3332 -0.0885
 7137SOL    HW122192   5.907   1.096   2.155 -2.7225 -2.1195  0.7921
 7137SOL    HW222193   5.869   1.241   2.135  2.0369 -0.5899  1.4212
 7138SOL     OW22194   3.999   1.897   5.203  0.6724 -0.4062 -0.1565
 7138SOL    HW122195   4.010   1.963   5.272  1.0167 -0.5447 -0.0729
 7138SOL    HW222196   3.955   1.824   5.246 -2.7758  0.9956 -1.0056
 7139SOL     OW22197   6.059   3.272   6.808 -0.1130 -0.4781  0.0812
 7139SOL    HW122198   5.994   3.208   6.779  0.3010 -1.3458  0.9868
 7139SOL    HW222199   6.119   3.221   6.862 -1.0092  1.0764  2.7062
 7140SOL     OW22200   5.833   4.749   0.116  0.3622 -0.0651  0.3124
 7140SOL    HW122201   5.915   4.699   0.126  0.1586 -0.4104  0.2822
 7140SOL    HW222202   5.821   4.753   0.021  0.1884 -0.2740  0.3252
 7141SOL     OW22203   8.034   2.524   2.408  0.2036  0.1214  0.5404
 7141SOL    HW122204   8.018   2.480   2.491 -0.5375  1.3983  1.1139
 7141SOL    HW222205   7.987   2.607   2.416 -1.3030 -0.4120 -1.7966
 7142SOL     OW22206   6.832   7.262   0.558  1.3726 -0.6809  0.7869
 7142SOL    HW122207   6.924   7.257   0.535  1.0099 -0.6233 -0.8283
 7142SOL    HW222208   6.798   7.174   0.545  0.5748 -0.0905 -1.7800
 7143SOL     OW22209   5.438   6.795   5.928 -0.1449  0.1330  0.2776
 7143SOL    HW122210   5.513   6.744   5.898  0.9625  1.8114  0.0792
 7143SOL    HW222211   5.388   6.814   5.849  0.6365  1.1852  0.0140
 7144SOL     OW22212   3.470   8.224   6.074  0.2929  0.4616  0.4231
 7144SOL    HW122213   3.510   8.297   6.123 -0.2861  0.1449  1.3889
 7144SOL    HW222214   3.510   8.146   6.111  1.6111  0.2892 -1.2549
 7145SOL     OW22215   2.646   7.119   6.678 -0.3509 -0.4099  0.4510
 7145SOL    HW122216   2.609   7.112   6.590  0.7060  0.5077 -0.0924
 7145SOL    HW222217   2.576   7.090   6.736 -0.8919 -1.5520 -0.7157
 7146SOL     OW22218   3.300   4.870   5.792  0.1176 -0.6016  0.5576
 7146SOL    HW122219   3.233   4.803   5.780 -0.5559  0.0677  0.5491
 7146SOL    HW222220   3.315   4.874   5.886 -0.8893  0.2433  0.6905
 7147SOL     OW22221   3.481   8.270   8.298 -0.0534 -0.4043  0.0360
 7147SOL    HW122222   3.513   8.206   8.233 -0.3126  1.4158 -2.0104
 7147SOL    HW222223   3.551   8.274   8.363  0.3862 -2.0607 -0.2749
 7148SOL     OW22224   4.654   4.990   6.281  0.1400  0.0655  0.5239
 7148SOL    HW122225   4.611   4.906   6.299  2.9037 -1.7460 -0.6400
 7148SOL    HW222226   4.653   4.997   6.186  1.6085  0.3818  0.5177
 7149SOL     OW22227   3.602   3.264   4.948 -0.2058 -0.5044  0.6315
 7149SOL    HW122228   3.540   3.285   5.018  1.6736  0.3766  2.1199
 7149SOL    HW222229   3.576   3.177   4.918 -2.1643 -0.1354  1.1608
 7150SOL     OW22230   3.765   2.377   0.719  0.0579 -0.1840 -0.5154
 7150SOL    HW122231   3.737   2.391   0.628  0.9589 -2.3879 -1.1975
 7150SOL    HW222232   3.831   2.308   0.713 -1.0527 -1.6029  1.9745
 7151SOL     OW22233   8.192   4.599   1.219  0.6345  0.5305  0.0952
 7151SOL    HW122234   8.162   4.533   1.157  0.1090  1.3629 -0.5640
 7151SOL    HW222235   8.285   4.580   1.232  0.7311  0.2936 -0.8798
 7152SOL     OW22236   0.877   0.958   6.357  0.7105  0.1240  0.7495
 7152SOL    HW122237   0.853   1.050   6.367  0.7536  0.0836  1.2609
 7152SOL    HW222238   0.905   0.950   6.265 -3.7536 -0.4235 -0.7757
 7153SOL     OW22239   4.946   4.080   0.531  0.0828 -0.3531 -0.0492
 7153SOL    HW122240   5.011   4.145   0.503 -0.3952 -0.0571 -0.4939
 7153SOL    HW222241   4.880   4.132   0.577  0.8588 -0.8266  1.6722
 7154SOL     OW22242   3.313   2.870   2.730  0.2842 -0.1394 -0.0305
 7154SOL    HW122243   3.225   2.847   2.700  0.6677 -1.2331 -0.3373
 7154SOL    HW222244   3.370   2.846   2.658  0.7936  1.1376 -0.0771
 7155SOL     OW22245   1.844   7.864   1.984  0.2432  0.1981  0.2099
 7155SOL    HW122246   1.831   7.827   1.897 -0.2105  0.6925  0.0623
 7155SOL    HW222247   1.764   7.914   2.002  0.5703  0.5761  0.6635
 7156SOL     OW22248   5.312   6.507   6.970  0.3952 -0.1657 -0.2196
 7156SOL    HW122249   5.348   6.536   6.886  0.2897  0.0567 -0.1892
 7156SOL    HW222250   5.318   6.412   6.967  1.4962 -0.1057  0.0204
 7157SOL     OW22251   6.951   0.088   1.732 -0.5543 -0.5701 -0.4970
 7157SOL    HW122252   7.046   0.093   1.733 -0.4679 -0.6997 -2.7727
 7157SOL    HW222253   6.923   0.156   1.794  0.9936 -0.9689  0.6962
 7158SOL     OW22254   7.351   1.945   3.729  0.0498  0.5077 -0.3810
 7158SOL    HW122255   7.289   2.014   3.707  1.7928  2.3446  0.1605
 7158SOL    HW222256   7.319   1.909   3.812 -0.6534  0.9488 -0.4549
 7159SOL     OW22257   1.387   2.522   7.274  0.6439  0.3942 -0.4960
 7159SOL    HW122258   1.379   2.551   7.365  0.8818 -0.5748 -0.1594
 7159SOL    HW222259   1.327   2.579   7.226  0.6658  1.0535  0.2303
 7160SOL     OW22260   2.137   6.312   3.560  0.4133 -0.3822  0.5773
 7160SOL    HW122261   2.203   6.281   3.622  0.1896  0.3138  1.1822
 7160SOL    HW222262   2.109   6.234   3.514  1.1094 -0.8044  0.8485
 7161SOL     OW22263   3.804   2.311   3.452  0.9461 -0.0130  0.0684
 7161SOL    HW122264   3.865   2.242   3.479 -0.8422 -2.3736 -1.6341
 7161SOL    HW222265   3.718   2.280   3.480 -0.0668  0.9099 -1.8311
 7162SOL     OW22266   2.305   6.489   5.093  0.0848 -0.0101 -0.2006
 7162SOL    HW122267   2.301   6.579   5.062  0.4750  0.0331 -0.1312
 7162SOL    HW222268   2.316   6.497   5.188 -2.1438 -0.1390  0.1139
 7163SOL     OW22269   2.674   3.175   3.065 -0.6334 -0.0379 -0.1538
 7163SOL    HW122270   2.763   3.204   3.088 -0.8943 -0.0856  1.0019
 7163SOL    HW222271   2.657   3.213   2.979  1.6403 -2.4411 -1.8479
 7164SOL     OW22272   0.358   2.730   5.929  0.1488 -0.1782  0.0814
 7164SOL    HW122273   0.361   2.649   5.981 -1.8087 -0.6866 -0.5117
 7164SOL    HW222274   0.327   2.796   5.990  0.6383 -0.1283  0.2784
 7165SOL     OW22275   2.052   5.830   4.820 -0.7093 -0.0762 -0.6669
 7165SOL    HW122276   2.092   5.794   4.742 -1.6282  0.0142 -1.2000
 7165SOL    HW222277   1.967   5.786   4.827 -0.4435 -0.4436  0.5552
 7166SOL     OW22278   2.693   5.422   0.702 -0.1406 -0.1718 -0.0733
 7166SOL    HW122279   2.642   5.502   0.714  0.0102 -0.0520 -0.2171
 7166SOL    HW222280   2.763   5.448   0.641 -0.8707 -0.7464 -1.1911
 7167SOL     OW22281   6.365   0.863   2.440  0.0080 -0.1105 -0.6593
 7167SOL    HW122282   6.295   0.823   2.490  0.4929 -0.1224  0.0268
 7167SOL    HW222283   6.401   0.792   2.386  0.1575 -0.3481 -0.2519
 7168SOL     OW22284   1.350   5.759   4.458  0.3399 -0.2536  0.3033
 7168SOL    HW122285   1.348   5.855   4.460  1.2114 -0.1964 -0.7276
 7168SOL    HW222286   1.363   5.737   4.365 -0.4450 -1.3869  0.4386
 7169SOL     OW22287   8.092   7.068   5.069  0.4048  0.2451 -0.0585
 7169SOL    HW122288   8.147   7.013   5.124 -0.1702 -1.4914 -1.1192
 7169SOL    HW222289   8.095   7.154   5.109  0.2447 -0.8569  2.4968
 7170SOL     OW22290   1.381   0.606   7.444 -0.1070  0.5269 -0.1774
 7170SOL    HW122291   1.347   0.632   7.359  1.1441  0.4742 -0.7164
 7170SOL    HW222292   1.327   0.531   7.470 -0.2117  0.2700 -1.1258
 7171SOL     OW22293   4.611   3.603   6.232  0.2808 -0.4544 -0.1008
 7171SOL    HW122294   4.560   3.678   6.261 -0.8059 -0.8885 -0.8408
 7171SOL    HW222295   4.678   3.640   6.174  2.2630  0.3817  2.5122
 7172SOL     OW22296   6.417   5.618   2.479  0.0477  0.0859  0.0101
 7172SOL    HW122297   6.401   5.524   2.470 -1.3968  0.1404  1.4966
 7172SOL    HW222298   6.354   5.659   2.420  0.2683  0.1342 -0.1924
 7173SOL     OW22299   8.052   1.750   5.468  0.6606  0.3251  0.0475
 7173SOL    HW122300   7.986   1.689   5.502  1.6707 -1.3867 -0.9428
 7173SOL    HW222301   8.113   1.763   5.541  2.0255 -2.1983 -0.5207
 7174SOL     OW22302   3.811   5.066   0.390 -0.2138 -0.2442 -0.0214
 7174SOL    HW122303   3.905   5.054   0.376 -0.0019  2.0488 -1.1461
 7174SOL    HW222304   3.798   5.048   0.483  0.8601 -2.9417 -0.3085
 7175SOL     OW22305   6.102   0.743   4.221  0.2295 -0.4390  0.6779
 7175SOL    HW122306   6.129   0.810   4.158 -0.3050  0.4848  1.3996
 7175SOL    HW222307   6.043   0.685   4.172  1.4981 -0.9983 -0.2281
 7176SOL     OW22308   1.790   5.573   1.006 -0.7067  0.3753 -0.0731
 7176SOL    HW122309   1.722   5.622   1.052  0.2392 -0.0302  1.8967
 7176SOL    HW222310   1.793   5.489   1.052  0.7997  0.2201 -0.4181
 7177SOL     OW22311   0.519   6.794   5.406  0.1857 -0.4303  0.0739
 7177SOL    HW122312   0.547   6.778   5.496 -1.3133  0.0646  0.6615
 7177SOL    HW222313   0.529   6.709   5.363 -0.9665 -1.1981  1.2500
 7178SOL     OW22314   0.977   0.376   5.440  0.2076 -0.2148  0.0069
 7178SOL    HW122315   0.984   0.337   5.528 -3.2340 -3.0017 -0.7222
 7178SOL    HW222316   0.930   0.458   5.454 -2.0750 -1.5612  0.7058
 7179SOL     OW22317   6.044   3.397   8.297 -0.1737  0.0485 -0.1561
 7179SOL    HW122318   6.001   3.393   8.383 -1.3858 -0.7879 -0.7785
 7179SOL    HW222319   6.135   3.419   8.317 -0.3443 -0.5085  1.3727
 7180SOL     OW22320   4.163   7.132   5.206 -0.4380  0.8669  0.0073
 7180SOL    HW122321   4.212   7.132   5.124  1.2534 -0.3416  0.9720
 7180SOL    HW222322   4.218   7.181   5.267 -1.4469  1.3119  0.5888
 7181SOL     OW22323   1.099   0.976   5.639 -0.3239 -1.0770 -0.5363
 7181SOL    HW122324   1.078   0.937   5.555  0.1206 -1.5708 -0.4225
 7181SOL    HW222325   1.191   1.000   5.632 -0.8411  0.9793 -0.9972
 7182SOL     OW22326   5.328   5.497   5.877  0.6719  0.0011  0.1043
 7182SOL    HW122327   5.327   5.511   5.782  0.3333 -0.4173  0.0431
 7182SOL    HW222328   5.285   5.573   5.913  1.8097  0.7232  0.0032
 7183SOL     OW22329   5.517   5.350   2.412 -0.0757  0.2592  0.5969
 7183SOL    HW122330   5.464   5.398   2.348 -0.2985 -0.3564  0.3103
 7183SOL    HW222331   5.478   5.372   2.497 -0.4015  0.3007  0.4395
 7184SOL     OW22332   1.674   5.071   2.096 -0.3252 -0.1462  0.3326
 7184SOL    HW122333   1.600   5.057   2.037 -1.6542 -0.7803  2.0754
 7184SOL    HW222334   1.693   4.985   2.133  2.7155 -0.4602 -1.5728
 7185SOL     OW22335   1.434   7.806   7.392  0.0898  0.3550  0.5812
 7185SOL    HW122336   1.483   7.831   7.313 -1.4498 -0.2259 -0.5991
 7185SOL    HW222337   1.501   7.798   7.460  1.5639  0.0712 -0.8480
 7186SOL     OW22338   5.373   1.576   6.478 -0.2432  0.3982  0.0158
 7186SOL    HW122339   5.312   1.506   6.457 -1.1104  0.9219  0.7563
 7186SOL    HW222340   5.427   1.541   6.549  0.0145  0.1067 -0.3227
 7187SOL     OW22341   5.816   6.348   6.340  0.2685 -0.1611 -0.1275
 7187SOL    HW122342   5.751   6.307   6.283 -0.3354 -1.1182  1.2049
 7187SOL    HW222343   5.855   6.417   6.286 -0.7763 -0.5641 -1.4496
 7188SOL     OW22344   1.842   0.317   3.952 -0.1039  0.2506  0.0107
 7188SOL    HW122345   1.751   0.290   3.948 -0.0886  0.3319 -2.2904
 7188SOL    HW222346   1.844   0.403   3.911  1.3520 -0.9646 -2.7130
 7189SOL     OW22347   5.164   5.156   2.344  0.0922 -0.0763  0.0093
 7189SOL    HW122348   5.098   5.224   2.357 -0.6628 -0.3701 -2.0122
 7189SOL    HW222349   5.175   5.151   2.249  1.0660 -1.9080  0.1798
 7190SOL     OW22350   4.822   7.393   5.603  0.3629 -0.0304 -0.3604
 7190SOL    HW122351   4.751   7.419   5.662 -0.0893 -0.5397 -0.6692
 7190SOL    HW222352   4.788   7.411   5.516  0.8170  0.1988 -0.4942
 7191SOL     OW22353   6.689   5.084   6.445 -0.3432 -0.8976  0.1981
 7191SOL    HW122354   6.659   5.065   6.356 -1.2554  1.5904 -0.0978
 7191SOL    HW222355   6.608   5.096   6.496  0.0734  1.7432  0.3593
 7192SOL     OW22356   4.059   4.889   3.835  0.0153 -0.0530 -0.2149
 7192SOL    HW122357   4.143   4.896   3.881 -0.2548  4.8739  0.0559
 7192SOL    HW222358   3.995   4.925   3.897 -2.2643 -2.7823 -0.7879
 7193SOL     OW22359   4.766   6.691   6.937 -0.2675  0.0309  0.0002
 7193SOL    HW122360   4.698   6.748   6.973 -0.6322  0.0831 -0.7425
 7193SOL    HW222361   4.718   6.618   6.897  0.1619 -0.4153  0.2958
 7194SOL     OW22362   6.408   4.813   7.181  0.1795  0.2563 -0.3270
 7194SOL    HW122363   6.414   4.893   7.232  1.4965 -0.4409  0.6933
 7194SOL    HW222364   6.316   4.807   7.156 -0.4377  0.8574  1.6148
 7195SOL     OW22365   5.549   7.124   1.052 -0.1973 -0.0219 -0.2644
 7195SOL    HW122366   5.609   7.149   1.122 -0.1383 -1.0097  0.0565
 7195SOL    HW222367   5.520   7.207   1.014  1.0460  0.4821 -0.1543
 7196SOL     OW22368   3.872   3.405   6.810 -0.0809 -0.2975 -0.1973
 7196SOL    HW122369   3.949   3.460   6.802 -0.1922 -0.1973 -0.5894
 7196SOL    HW222370   3.906   3.316   6.821  0.0969 -0.1550  0.4286
 7197SOL     OW22371   4.862   0.684   6.309  0.6422  0.0208  0.3078
 7197SOL    HW122372   4.775   0.645   6.308 -0.7418  2.8344  0.7684
 7197SOL    HW222373   4.856   0.757   6.248  2.5608  0.5527  0.6951
 7198SOL     OW22374   2.433   3.805   4.090  0.1846  0.9839  0.3236
 7198SOL    HW122375   2.380   3.885   4.086 -1.4687 -0.1019 -2.7547
 7198SOL    HW222376   2.478   3.803   4.006  0.2318 -1.2839  0.3581
 7199SOL     OW22377   5.652   5.309   7.499  0.0801 -0.0026 -0.0546
 7199SOL    HW122378   5.559   5.331   7.496  0.4254  1.4248 -1.4394
 7199SOL    HW222379   5.671   5.274   7.412  1.5665  3.0598 -1.0823
 7200SOL     OW22380   8.013   3.798   2.546  0.3845 -0.0921 -0.4730
 7200SOL    HW122381   8.006   3.867   2.480 -1.5779  1.1888  0.9633
 7200SOL    HW222382   8.054   3.725   2.500  0.4919  1.2609 -2.6708
 7201SOL     OW22383   6.831   6.534   7.381 -0.3126 -0.2545  0.1232
 7201SOL    HW122384   6.792   6.621   7.385 -2.4694 -1.1991  1.4195
 7201SOL    HW222385   6.789   6.493   7.305  0.0531 -0.4596  0.0279
 7202SOL     OW22386   0.674   5.980   4.293  0.0961 -0.4918 -0.5561
 7202SOL    HW122387   0.668   6.062   4.244 -0.4218 -0.8789 -1.1496
 7202SOL    HW222388   0.608   5.989   4.362 -1.1050 -1.0382 -1.5851
 7203SOL     OW22389   7.880   5.222   1.437 -0.3553 -0.1253  0.0753
 7203SOL    HW122390   7.827   5.193   1.363  0.6445  2.4793 -1.8446
 7203SOL    HW222391   7.904   5.142   1.483 -2.4129 -1.7050 -1.4364
 7204SOL     OW22392   1.158   2.873   6.099  0.0743  0.0095  0.5809
 7204SOL    HW122393   1.180   2.966   6.114  0.8757  0.0246 -0.5531
 7204SOL    HW222394   1.126   2.870   6.009 -1.8805 -0.5208  1.2581
 7205SOL     OW22395   1.068   3.831   5.009  0.4914  0.3857  0.6400
 7205SOL    HW122396   0.975   3.855   5.015  0.5122  0.7790 -0.3450
 7205SOL    HW222397   1.073   3.774   4.933  0.4409 -3.0036  2.9448
 7206SOL     OW22398   6.301   1.458   6.354 -0.2982  0.1419  0.1573
 7206SOL    HW122399   6.313   1.493   6.442  1.7466 -1.4922  0.6048
 7206SOL    HW222400   6.339   1.523   6.296 -0.5015  0.6472  0.5899
 7207SOL     OW22401   6.635   7.798   1.882 -0.4335 -0.5553  0.2617
 7207SOL    HW122402   6.571   7.730   1.861 -0.5223 -0.1367 -0.9474
 7207SOL    HW222403   6.706   7.784   1.819 -0.1204  0.0201  0.4782
 7208SOL     OW22404   8.280   6.422   0.785  0.8692 -0.4600  0.3418
 7208SOL    HW122405   8.254   6.331   0.771 -3.3108  0.2196  2.1916
 7208SOL    HW222406   8.261   6.466   0.702  2.0596 -1.0503 -0.2685
 7209SOL     OW22407   6.667   0.285   7.516 -0.4523  0.4108 -0.5675
 7209SOL    HW122408   6.625   0.363   7.550  0.0465  0.8779 -0.9950
 7209SOL    HW222409   6.747   0.276   7.568  0.0678  0.8495 -1.2746
 7210SOL     OW22410   0.571   7.774   7.630 -0.2091 -0.6308  0.7642
 7210SOL    HW122411   0.593   7.686   7.660 -0.3572 -1.4321 -1.3432
 7210SOL    HW222412   0.642   7.829   7.663 -0.9468 -1.1874  3.5062
 7211SOL     OW22413   5.816   3.892   5.387 -0.1519 -0.0460  0.1398
 7211SOL    HW122414   5.759   3.966   5.366 -1.0533 -0.5597  0.7104
 7211SOL    HW222415   5.813   3.886   5.482 -0.2482 -0.9270  0.0861
 7212SOL     OW22416   1.726   6.797   3.850 -0.3917 -0.0015 -0.0842
 7212SOL    HW122417   1.756   6.860   3.784  4.0643 -0.1110  1.5040
 7212SOL    HW222418   1.758   6.832   3.933 -1.0617 -2.5417  1.3422
 7213SOL     OW22419   2.352   3.094   3.037 -0.0170 -0.3632 -0.1998
 7213SOL    HW122420   2.315   3.097   2.949 -0.6614 -0.8513  0.0511
 7213SOL    HW222421   2.389   3.006   3.045 -0.4345 -0.5045  0.2073
 7214SOL     OW22422   8.107   4.557   2.341 -0.0871 -0.4760 -0.5971
 7214SOL    HW122423   8.101   4.462   2.329 -0.5839 -0.5151 -0.1307
 7214SOL    HW222424   8.044   4.593   2.279 -1.1599 -0.5629  0.3922
 7215SOL     OW22425   2.931   5.099   1.503 -0.3364 -0.0645 -0.1864
 7215SOL    HW122426   3.000   5.042   1.469 -0.5432 -0.3683 -0.1083
 7215SOL    HW222427   2.869   5.108   1.431  0.1520  0.8190 -0.5053
 7216SOL     OW22428   7.709   3.534   1.702  0.0467  0.0571  0.5180
 7216SOL    HW122429   7.721   3.484   1.783 -0.0282  0.7974  0.9935
 7216SOL    HW222430   7.793   3.527   1.657  0.0925 -0.3516  0.6572
 7217SOL     OW22431   3.752   0.669   6.988  0.3796 -0.0187 -0.2430
 7217SOL    HW122432   3.706   0.691   7.069 -0.0292  0.3366 -0.5664
 7217SOL    HW222433   3.780   0.578   7.000 -0.4159 -0.2451 -0.0427
 7218SOL     OW22434   1.332   7.908   4.106  0.0533  0.8020 -0.4840
 7218SOL    HW122435   1.238   7.918   4.123 -0.0401 -1.0473  0.3440
 7218SOL    HW222436   1.338   7.895   4.011 -0.2805  2.9230 -0.8493
 7219SOL     OW22437   0.994   4.060   5.334  0.1037  0.2975  0.3064
 7219SOL    HW122438   0.979   4.029   5.423 -0.4781  1.3634  0.6058
 7219SOL    HW222439   0.938   4.138   5.326  0.8222  0.7402 -0.6882
 7220SOL     OW22440   1.132   7.762   6.913  0.1795 -0.3937  0.0472
 7220SOL    HW122441   1.096   7.849   6.898  0.1228 -0.7751 -2.3631
 7220SOL    HW222442   1.227   7.774   6.907  0.1375 -0.6882 -1.8536
 7221SOL     OW22443   1.398   0.139   2.767  0.7784  0.1388 -0.0775
 7221SOL    HW122444   1.303   0.130   2.758  0.4718  0.8146  1.9329
 7221SOL    HW222445   1.423   0.068   2.826  1.1924  1.1368  0.9844
 7222SOL     OW22446   2.410   6.738   0.714 -0.0166  0.7358  0.1325
 7222SOL    HW122447   2.341   6.804   0.711  0.5643  1.5190  2.1631
 7222SOL    HW222448   2.439   6.737   0.805 -0.2422 -2.6156  0.3005
 7223SOL     OW22449   2.605   2.710   0.827 -0.1130  0.0621  0.2061
 7223SOL    HW122450   2.558   2.652   0.767 -0.9713 -0.0591  0.9816
 7223SOL    HW222451   2.538   2.742   0.887  0.8181 -0.1834  1.3944
 7224SOL     OW22452   7.154   0.029   5.420 -0.6556  0.0735 -0.5965
 7224SOL    HW122453   7.064   0.062   5.425 -1.0400 -1.0714  0.8324
 7224SOL    HW222454   7.165  -0.021   5.501  2.2992  2.7304  0.8834
 7225SOL     OW22455   0.327   3.611   1.439  0.5519 -0.6358  0.5410
 7225SOL    HW122456   0.337   3.651   1.526 -0.8218 -0.9756  0.8868
 7225SOL    HW222457   0.233   3.614   1.423  0.9193  2.5038 -2.4079
 7226SOL     OW22458   6.518   3.475   5.762  0.2905  0.0002 -0.1642
 7226SOL    HW122459   6.436   3.517   5.737 -0.0124  0.7686  1.9682
 7226SOL    HW222460   6.525   3.489   5.856  1.6203 -2.2885  0.1496
 7227SOL     OW22461   6.383   5.898   1.031  0.0513 -0.7547 -0.6086
 7227SOL    HW122462   6.385   5.974   1.089 -1.3820  0.3631 -1.9376
 7227SOL    HW222463   6.350   5.827   1.085 -1.2272  0.2583 -0.0149
 7228SOL     OW22464   3.885   3.395   1.803 -0.0269  0.1298  0.3532
 7228SOL    HW122465   3.845   3.441   1.730  0.6103  0.9982  0.5342
 7228SOL    HW222466   3.871   3.302   1.783 -0.4114  0.3686 -0.5465
 7229SOL     OW22467   0.191   6.456   0.111  0.0394 -0.2205 -0.3634
 7229SOL    HW122468   0.165   6.440   0.202 -1.1542 -0.8391 -0.7848
 7229SOL    HW222469   0.149   6.539   0.088  0.2126 -0.1398 -0.3829
 7230SOL     OW22470   7.539   3.054   6.211  0.2413  0.1551 -0.2313
 7230SOL    HW122471   7.605   2.986   6.229  0.4553 -0.0508 -1.6558
 7230SOL    HW222472   7.501   3.074   6.297  2.0485  0.1656  0.6206
 7231SOL     OW22473   6.286   7.656   1.316 -0.2686 -0.0788 -0.2473
 7231SOL    HW122474   6.216   7.687   1.258  1.2734  1.7751 -1.2252
 7231SOL    HW222475   6.305   7.731   1.372 -1.4927 -1.7283  2.5843
 7232SOL     OW22476   7.278   5.599   3.789  0.3164 -0.2292 -0.0471
 7232SOL    HW122477   7.218   5.673   3.787 -0.3508 -0.7423 -1.9197
 7232SOL    HW222478   7.361   5.634   3.755  0.9228  0.3005  1.8404
 7233SOL     OW22479   4.724   4.451   7.270  0.0288 -0.3417 -0.3423
 7233SOL    HW122480   4.644   4.400   7.283 -1.5849  1.8529 -1.0481
 7233SOL    HW222481   4.733   4.458   7.175  0.6300  0.0747 -0.2581
 7234SOL     OW22482   2.937   0.134   7.900 -0.1518 -0.0508 -0.9087
 7234SOL    HW122483   2.978   0.220   7.914 -1.2783  0.5155 -0.9582
 7234SOL    HW222484   2.994   0.090   7.837 -0.2249  1.1776 -1.8830
 7235SOL     OW22485   5.960   1.108   1.344 -0.0250  0.0098  0.1309
 7235SOL    HW122486   5.886   1.091   1.402 -0.3335 -1.3972 -0.6217
 7235SOL    HW222487   5.998   1.189   1.377 -0.8582 -0.1488  1.5982
 7236SOL     OW22488   7.812   0.336   7.467  0.0427 -0.1746  0.1219
 7236SOL    HW122489   7.872   0.365   7.397 -0.6959  2.0374  0.3243
 7236SOL    HW222490   7.847   0.376   7.546 -0.8633 -0.0431  0.4707
 7237SOL     OW22491   6.384   4.849   5.545 -0.0877 -0.2517  0.3696
 7237SOL    HW122492   6.386   4.834   5.639 -0.5393 -0.2042  0.3888
 7237SOL    HW222493   6.291   4.846   5.522  0.0940 -1.4741 -0.2720
 7238SOL     OW22494   3.930   4.688   6.008 -0.0069  0.6510  1.0367
 7238SOL    HW122495   4.012   4.682   6.057  0.2008  0.7623  0.7070
 7238SOL    HW222496   3.863   4.699   6.075 -0.1049 -2.2306  1.5833
 7239SOL     OW22497   5.881   2.131   2.562  0.2464 -1.0340 -0.4544
 7239SOL    HW122498   5.848   2.136   2.473 -0.1128  1.6199 -0.2441
 7239SOL    HW222499   5.806   2.100   2.614 -0.5582  0.4543 -0.6657
 7240SOL     OW22500   3.986   5.523   5.240 -0.2064 -0.2323 -0.2897
 7240SOL    HW122501   4.024   5.438   5.215 -0.2764  0.0902 -1.5608
 7240SOL    HW222502   3.945   5.507   5.325  0.2796 -1.3242 -0.2452
 7241SOL     OW22503   0.167   2.177   1.449  0.2725 -0.3617 -0.4676
 7241SOL    HW122504   0.144   2.259   1.492  1.4183 -1.0463  1.5972
 7241SOL    HW222505   0.091   2.120   1.462  0.5610 -0.5224  0.6201
 7242SOL     OW22506   1.607   7.301   5.146 -0.5086  0.5736  0.6646
 7242SOL    HW122507   1.588   7.388   5.181  0.3534  1.1286 -0.1955
 7242SOL    HW222508   1.531   7.279   5.092 -0.8842  0.6330  1.1654
 7243SOL     OW22509   3.085   3.005   0.369  0.3669 -0.2354  0.4028
 7243SOL    HW122510   3.056   2.943   0.436  2.1085  1.0436  2.4616
 7243SOL    HW222511   3.024   3.079   0.378  0.7877  0.0659  0.8067
 7244SOL     OW22512   3.936   0.228   2.326  0.1280 -0.3620 -1.0949
 7244SOL    HW122513   3.877   0.245   2.400  0.1726  0.0689 -1.1541
 7244SOL    HW222514   3.880   0.188   2.260  0.5684 -3.1042  0.0553
 7245SOL     OW22515   7.275   1.630   4.231 -0.0765  0.1495 -0.1466
 7245SOL    HW122516   7.217   1.630   4.155  1.0374  2.3913 -1.0731
 7245SOL    HW222517   7.247   1.554   4.283 -1.5384 -0.8258 -2.2545
 7246SOL     OW22518   4.458   2.884   6.122  0.8784  0.0023  0.1756
 7246SOL    HW122519   4.398   2.836   6.178 -0.1698  0.9179 -0.1382
 7246SOL    HW222520   4.545   2.859   6.154  0.3334 -0.6303  1.2279
 7247SOL     OW22521   3.282   1.988   6.709 -0.3068  0.2524  0.4394
 7247SOL    HW122522   3.345   1.925   6.746 -0.6557  1.0312  2.5288
 7247SOL    HW222523   3.335   2.045   6.654  0.7527  0.5442  1.7108
 7248SOL     OW22524   5.477   3.086   0.778 -0.0296  0.2282  0.3791
 7248SOL    HW122525   5.384   3.088   0.756 -0.3680 -0.2099  1.6561
 7248SOL    HW222526   5.521   3.127   0.703 -1.2297  0.3084 -0.3029
 7249SOL     OW22527   6.521   5.445   3.345  0.4545 -0.0574 -0.1652
 7249SOL    HW122528   6.442   5.404   3.311  0.4596  0.1491 -0.4290
 7249SOL    HW222529   6.525   5.416   3.436  0.4118 -0.5643 -0.3223
 7250SOL     OW22530   1.052   5.034   6.559  0.4622  0.1696 -0.0810
 7250SOL    HW122531   1.029   5.003   6.647  0.7271 -3.0995 -1.0356
 7250SOL    HW222532   0.969   5.039   6.513  0.5486 -0.7027 -0.3533
 7251SOL     OW22533   1.763   1.983   1.575  0.4496  0.3013  0.2505
 7251SOL    HW122534   1.714   1.998   1.656  1.3702 -1.7617  1.2686
 7251SOL    HW222535   1.695   1.976   1.507 -0.3825  1.3243  0.9423
 7252SOL     OW22536   6.734   6.631   7.795 -0.1800 -0.5065 -0.0606
 7252SOL    HW122537   6.735   6.720   7.760  1.8071  0.0485  1.2675
 7252SOL    HW222538   6.707   6.576   7.721  1.4343  0.8872 -1.7733
 7253SOL     OW22539   4.612   2.117   6.383  0.1951  0.0272  0.1345
 7253SOL    HW122540   4.611   2.040   6.326 -1.9786 -0.7583  1.1425
 7253SOL    HW222541   4.562   2.183   6.335 -0.4830 -0.1911  0.5309
 7254SOL     OW22542   7.121   2.528   1.297 -0.6286 -0.0567  0.4547
 7254SOL    HW122543   7.043   2.473   1.292  0.3480 -1.5924  1.3363
 7254SOL    HW222544   7.087   2.617   1.301 -2.3055 -0.6356  0.0669
 7255SOL     OW22545   7.247   5.073   5.992 -0.0137 -0.4104  0.4112
 7255SOL    HW122546   7.158   5.100   5.969 -0.0265 -0.9821 -0.2584
 7255SOL    HW222547   7.284   5.041   5.909  0.8612 -0.0469  0.6550
 7256SOL     OW22548   7.205   6.747   6.069  0.2338 -0.2926 -0.0880
 7256SOL    HW122549   7.129   6.759   6.012  0.0913  0.1221  0.1830
 7256SOL    HW222550   7.271   6.705   6.013  0.4759  1.0617 -0.8747
 7257SOL     OW22551   0.740   7.430   5.769  0.3349  0.8832 -0.1079
 7257SOL    HW122552   0.747   7.336   5.753 -0.4206  1.0819 -1.7674
 7257SOL    HW222553   0.658   7.440   5.817  0.5658  0.6673  0.3333
 7258SOL     OW22554   5.088   0.754   1.735 -0.3020 -0.2581 -0.3036
 7258SOL    HW122555   5.079   0.846   1.758 -2.7586 -0.0398 -1.7571
 7258SOL    HW222556   5.174   0.747   1.694  0.2474  1.1898  0.5323
 7259SOL     OW22557   7.124   5.780   2.999  0.4873 -0.2805  0.1450
 7259SOL    HW122558   7.115   5.717   3.070  0.8399 -0.5293 -0.0284
 7259SOL    HW222559   7.199   5.834   3.025  0.7619 -0.5183 -0.1443
 7260SOL     OW22560   6.351   7.188   8.186 -0.2192 -0.3006 -0.0345
 7260SOL    HW122561   6.361   7.124   8.115 -1.7143  2.0397 -2.5314
 7260SOL    HW222562   6.424   7.248   8.174 -0.4734  0.1082  0.4400
 7261SOL     OW22563   5.433   0.225   3.557 -0.2232  0.1926  0.4738
 7261SOL    HW122564   5.442   0.319   3.539 -1.1288 -0.0613 -1.5680
 7261SOL    HW222565   5.348   0.217   3.600 -0.2837  0.2877  0.3735
 7262SOL     OW22566   1.454   6.402   0.197 -0.2435 -0.4009 -0.3049
 7262SOL    HW122567   1.518   6.358   0.140 -0.5827 -1.6109  0.2093
 7262SOL    HW222568   1.426   6.478   0.148  0.3466 -0.7804 -1.2556
 7263SOL     OW22569   7.574   1.489   6.865 -0.4037 -0.2834  0.4023
 7263SOL    HW122570   7.508   1.527   6.923 -0.2271  0.6400  0.0194
 7263SOL    HW222571   7.549   1.519   6.778 -0.4639 -1.3677  0.0344
 7264SOL     OW22572   2.777   2.809   2.873 -0.3038  0.3621  0.0007
 7264SOL    HW122573   2.834   2.862   2.817  1.2952  0.5522  1.6953
 7264SOL    HW222574   2.811   2.823   2.962 -2.3871 -0.3493  0.9762
 7265SOL     OW22575   4.227   2.285   3.785  0.0374 -0.3508 -0.2881
 7265SOL    HW122576   4.181   2.225   3.844 -0.3731 -0.3340 -0.5962
 7265SOL    HW222577   4.309   2.240   3.765  0.8499  0.2530  1.4412
 7266SOL     OW22578   7.081   6.591   0.564  0.3406 -0.5903  0.7196
 7266SOL    HW122579   7.058   6.603   0.656  1.6805  1.4046  0.8603
 7266SOL    HW222580   7.177   6.596   0.562  0.3074  0.1889 -0.8488
 7267SOL     OW22581   2.713   1.615   0.694 -0.4755  0.3918  0.7557
 7267SOL    HW122582   2.803   1.583   0.687 -0.3458  0.6750  1.1301
 7267SOL    HW222583   2.721   1.704   0.729 -0.7977  1.0480 -0.7406
 7268SOL     OW22584   5.479   3.216   6.355 -0.1711 -0.2028 -0.3662
 7268SOL    HW122585   5.402   3.257   6.395  0.4440  1.3618 -0.7119
 7268SOL    HW222586   5.443   3.160   6.286 -0.9990  2.1483 -2.0027
 7269SOL     OW22587   6.319   7.597   4.304 -0.2507  0.1320  0.3668
 7269SOL    HW122588   6.226   7.592   4.325 -0.3538 -0.1636 -0.1333
 7269SOL    HW222589   6.340   7.511   4.268  0.1216  0.3294  0.1057
 7270SOL     OW22590   4.102   6.332   2.401  0.9053  0.4396 -0.4639
 7270SOL    HW122591   4.029   6.392   2.417  1.1672  0.6812 -0.1837
 7270SOL    HW222592   4.180   6.383   2.422  1.0639 -0.5377  1.4726
 7271SOL     OW22593   1.891   0.488   0.895 -0.3707  0.3255 -0.0080
 7271SOL    HW122594   1.958   0.462   0.831  1.3499  2.2376  0.8889
 7271SOL    HW222595   1.814   0.436   0.873  1.3822 -1.9382 -1.1562
 7272SOL     OW22596   7.955   4.748   7.013 -0.0376 -0.6713  0.3254
 7272SOL    HW122597   8.018   4.684   7.045  1.4363  0.3154 -0.4866
 7272SOL    HW222598   7.876   4.697   6.995  0.7398 -2.0589  0.6976
 7273SOL     OW22599   5.996   2.252   5.999 -0.2050  0.0246  0.4770
 7273SOL    HW122600   5.957   2.321   5.946  0.1290  0.1179  0.3517
 7273SOL    HW222601   6.021   2.294   6.081 -0.4614 -0.0572  0.5969
 7274SOL     OW22602   4.910   5.891   2.587  0.5100  0.1241  0.1519
 7274SOL    HW122603   4.862   5.857   2.662  1.5988  0.0389  0.8262
 7274SOL    HW222604   4.964   5.817   2.558  0.6701  0.3849 -0.2238
 7275SOL     OW22605   1.680   2.278   7.862 -0.2015  0.3986  0.2743
 7275SOL    HW122606   1.775   2.283   7.851  0.0605 -1.9504  0.9305
 7275SOL    HW222607   1.647   2.258   7.774 -0.2211  2.0203 -0.1243
 7276SOL     OW22608   5.020   4.308   3.326  0.7475 -0.2802  0.1617
 7276SOL    HW122609   5.110   4.293   3.295  1.1291  1.5761  0.2209
 7276SOL    HW222610   4.971   4.328   3.247  0.2560 -1.7328  0.0770
 7277SOL     OW22611   3.589   0.868   1.496  0.0746  0.2822  0.0272
 7277SOL    HW122612   3.674   0.826   1.485 -0.0921 -0.1401  0.3173
 7277SOL    HW222613   3.529   0.815   1.445  0.1581  1.1913 -1.0427
 7278SOL     OW22614   3.627   7.658   7.892 -0.2515  0.2766  0.2359
 7278SOL    HW122615   3.650   7.638   7.983  1.9439 -1.2093 -0.5570
 7278SOL    HW222616   3.645   7.752   7.883  0.9254  0.1471  0.9818
 7279SOL     OW22617   6.951   2.016   2.546 -0.5270  0.4113  0.4210
 7279SOL    HW122618   6.872   1.963   2.558 -0.1823 -0.2412 -0.1267
 7279SOL    HW222619   6.922   2.106   2.561 -1.1593  0.0838  1.1923
 7280SOL     OW22620   0.923   5.372   2.929 -0.3368 -0.1121  0.2532
 7280SOL    HW122621   0.879   5.438   2.875  0.1453 -0.2304 -0.2917
 7280SOL    HW222622   0.852   5.319   2.964 -0.6264 -0.6122 -1.0190
 7281SOL     OW22623   1.213   8.114   3.910  0.0519  0.1781  0.2439
 7281SOL    HW122624   1.165   8.061   3.846 -2.0251  1.3809  0.7051
 7281SOL    HW222625   1.165   8.196   3.913  0.4750  0.4092  2.8563
 7282SOL     OW22626   0.382   3.209   3.958  0.1577 -0.0755  0.4190
 7282SOL    HW122627   0.343   3.296   3.964  1.6342  0.6448  0.0374
 7282SOL    HW222628   0.473   3.222   3.982  0.0496 -1.8304  1.9560
 7283SOL     OW22629   0.971   4.985   3.528  0.0995  0.7924 -0.3172
 7283SOL    HW122630   0.905   4.969   3.595 -1.1192  1.7696 -1.2407
 7283SOL    HW222631   1.008   4.898   3.510 -0.5696  0.3102  0.5698
 7284SOL     OW22632   1.148   7.292   4.475 -0.1127 -0.3868 -0.6262
 7284SOL    HW122633   1.081   7.248   4.527 -0.4523  1.3822  0.5427
 7284SOL    HW222634   1.231   7.260   4.510 -0.2956 -1.9395 -1.5039
 7285SOL     OW22635   0.687   2.348   3.957 -0.4956  0.2849  0.0971
 7285SOL    HW122636   0.653   2.434   3.984 -2.3691 -0.4501  0.2416
 7285SOL    HW222637   0.738   2.318   4.032  0.4538  1.3963 -0.0824
 7286SOL     OW22638   1.616   5.505   2.543 -0.1379 -0.9000  0.3989
 7286SOL    HW122639   1.636   5.422   2.498 -0.0852 -1.5176  1.5382
 7286SOL    HW222640   1.560   5.480   2.616 -0.2402  0.1002  0.6700
 7287SOL     OW22641   7.032   6.837   7.390 -0.8486  0.0730  0.6005
 7287SOL    HW122642   7.076   6.804   7.312 -1.0196  2.8314 -0.7953
 7287SOL    HW222643   6.942   6.856   7.361 -1.4650 -0.5577  1.9873
 7288SOL     OW22644   0.941   3.692   3.944  0.4065  0.1033  0.3490
 7288SOL    HW122645   0.931   3.599   3.966  0.2134  0.3556  1.3715
 7288SOL    HW222646   0.998   3.692   3.867 -0.9772 -0.9596 -0.7436
 7289SOL     OW22647   4.473   1.263   1.152  0.1192 -0.2922 -0.4945
 7289SOL    HW122648   4.522   1.299   1.077 -0.4378  1.3989 -0.0998
 7289SOL    HW222649   4.383   1.254   1.120  0.1249 -0.7552 -0.3874
 7290SOL     OW22650   7.404   2.648   2.041  0.2057 -0.2997 -0.0332
 7290SOL    HW122651   7.334   2.674   1.981  1.8435  0.5167 -1.7061
 7290SOL    HW222652   7.373   2.675   2.127 -0.9492  1.3614 -0.9028
 7291SOL     OW22653   3.271   3.508   0.555  0.1926 -0.0867 -0.3351
 7291SOL    HW122654   3.267   3.417   0.525  1.2963 -0.4387  0.4731
 7291SOL    HW222655   3.334   3.550   0.497  0.6739 -0.1984  0.0925
 7292SOL     OW22656   3.292   8.231   2.769 -0.0251  0.1518  0.4010
 7292SOL    HW122657   3.263   8.315   2.803 -0.9975 -0.6877  1.7210
 7292SOL    HW222658   3.384   8.245   2.747 -0.4232  1.8419 -0.4390
 7293SOL     OW22659   1.075   0.861   7.095  0.0271  0.7190 -0.0607
 7293SOL    HW122660   1.125   0.874   7.014  1.1918  1.5685  0.7575
 7293SOL    HW222661   0.984   0.858   7.066  0.4808 -0.1976 -1.5287
 7294SOL     OW22662   2.073   0.648   1.875 -0.1163 -0.7941  0.1917
 7294SOL    HW122663   1.981   0.638   1.899 -0.5629  0.1725 -1.0621
 7294SOL    HW222664   2.116   0.573   1.916 -1.1999 -0.4618  2.0354
 7295SOL     OW22665   0.965   0.457   4.955  0.0873  0.6140  0.4472
 7295SOL    HW122666   0.877   0.448   4.920  0.2681 -1.0779  0.3408
 7295SOL    HW222667   1.018   0.394   4.906  1.0263  0.5016  1.5430
 7296SOL     OW22668   7.649   5.539   7.544  0.1227  0.1925 -0.2903
 7296SOL    HW122669   7.739   5.553   7.513  0.1239  0.1705 -0.2962
 7296SOL    HW222670   7.629   5.619   7.593  0.3724 -0.0618  0.2417
 7297SOL     OW22671   0.130   1.475   0.920  0.0118  0.6565  0.4440
 7297SOL    HW122672   0.203   1.477   0.858 -1.4526  0.8076 -1.3702
 7297SOL    HW222673   0.122   1.565   0.950 -1.3021  1.3549 -1.7578
 7298SOL     OW22674   6.584   1.961   2.265  0.0480 -0.0941 -0.2408
 7298SOL    HW122675   6.574   1.919   2.180 -0.5568 -0.1151 -0.1672
 7298SOL    HW222676   6.645   1.905   2.313  0.8072  0.2111 -0.8416
 7299SOL     OW22677   7.782   6.362   2.072  0.2612  0.1898  0.1191
 7299SOL    HW122678   7.855   6.395   2.020 -0.4315  1.2103 -0.2239
 7299SOL    HW222679   7.704   6.396   2.028 -0.4811 -1.6492 -0.0727
 7300SOL     OW22680   7.829   2.001   7.740  0.2168 -0.0803  0.2045
 7300SOL    HW122681   7.781   1.995   7.657  0.3533 -0.0237  0.1207
 7300SOL    HW222682   7.828   2.094   7.761  0.0965 -0.1066  0.3183
 7301SOL     OW22683   3.843   1.829   8.268  0.4551  0.1115  0.1881
 7301SOL    HW122684   3.841   1.894   8.338  1.7044 -1.2814  1.5867
 7301SOL    HW222685   3.786   1.759   8.298  2.4738 -1.3742  0.8059
 7302SOL     OW22686   6.916   6.932   8.011  0.4898  0.1499 -0.0409
 7302SOL    HW122687   6.900   6.913   7.918  1.6223 -1.5892  0.0821
 7302SOL    HW222688   6.831   6.960   8.044 -0.5073 -1.5118 -1.0728
 7303SOL     OW22689   2.947   1.958   4.961 -0.0129 -0.7752  0.1005
 7303SOL    HW122690   2.971   2.028   5.022 -0.2431 -1.3385  0.8542
 7303SOL    HW222691   3.020   1.952   4.901 -0.6639  1.1896 -0.9720
 7304SOL     OW22692   0.178   5.037   1.126 -0.3462 -0.3207  0.1282
 7304SOL    HW122693   0.100   5.055   1.178 -0.1972  2.4230 -0.4161
 7304SOL    HW222694   0.246   5.016   1.190 -0.6448  1.0184  0.9190
 7305SOL     OW22695   5.610   7.544   4.222 -0.1992 -0.3489  0.2234
 7305SOL    HW122696   5.659   7.508   4.296  0.0370  1.1945  0.8766
 7305SOL    HW222697   5.655   7.626   4.202 -0.0641 -0.8992 -1.8845
 7306SOL     OW22698   4.734   5.991   7.216 -0.5944 -0.3285  0.6172
 7306SOL    HW122699   4.779   5.917   7.176  0.2190  0.7455 -0.5361
 7306SOL    HW222700   4.696   5.956   7.297 -0.3148 -2.0023  0.0537
 7307SOL     OW22701   2.322   8.246   2.337  0.0161 -0.1940 -0.0191
 7307SOL    HW122702   2.341   8.319   2.396 -2.3472  0.4098  0.0880
 7307SOL    HW222703   2.289   8.177   2.394 -1.6840  0.1685 -0.5303
 7308SOL     OW22704   5.875   3.452   7.410 -0.0423  0.0580  0.1974
 7308SOL    HW122705   5.917   3.512   7.349  1.9415 -0.7996  0.6250
 7308SOL    HW222706   5.830   3.389   7.354 -1.4307  1.4013 -0.2612
 7309SOL     OW22707   4.819   5.204   8.074 -0.1294 -0.2678  0.8765
 7309SOL    HW122708   4.761   5.248   8.137 -0.8472 -0.3413  0.2715
 7309SOL    HW222709   4.762   5.143   8.027  0.2022  0.4179 -0.4655
 7310SOL     OW22710   0.682   1.973   3.348  0.2895  0.0632  0.2140
 7310SOL    HW122711   0.599   1.927   3.342  0.1526  0.4662 -1.2656
 7310SOL    HW222712   0.742   1.922   3.293  0.9006  0.0621  0.8609
 7311SOL     OW22713   3.434   1.009   1.645 -0.5652 -0.6228 -0.0995
 7311SOL    HW122714   3.371   1.032   1.575  0.3495  0.5702 -0.5673
 7311SOL    HW222715   3.493   0.946   1.604 -0.1268 -0.0459 -0.3740
 7312SOL     OW22716   4.986   5.304   1.079 -0.4497 -0.2332  0.0858
 7312SOL    HW122717   4.942   5.219   1.077  2.3027 -1.7518 -1.5246
 7312SOL    HW222718   5.063   5.290   1.134  0.2583  1.1100 -0.5183
 7313SOL     OW22719   2.632   3.319   7.599 -0.4560 -0.1425  0.5930
 7313SOL    HW122720   2.697   3.321   7.529 -0.9681  0.7970  0.1302
 7313SOL    HW222721   2.683   3.316   7.680  0.1440 -1.2107  0.2019
 7314SOL     OW22722   7.727   6.374   7.048  0.6180 -0.1063  0.5933
 7314SOL    HW122723   7.720   6.421   7.131 -1.2974 -2.9723  2.2007
 7314SOL    HW222724   7.817   6.343   7.045  0.5830 -0.3567  1.8531
 7315SOL     OW22725   5.387   2.162   1.774  0.1276  0.3212 -0.3260
 7315SOL    HW122726   5.465   2.217   1.779 -0.1163  0.5801  1.0542
 7315SOL    HW222727   5.351   2.164   1.863 -1.3522  0.0706 -0.8979
 7316SOL     OW22728   4.038   4.231   3.291 -0.0128  0.0008 -0.5797
 7316SOL    HW122729   4.018   4.318   3.325 -0.4683 -0.1942 -0.3335
 7316SOL    HW222730   4.040   4.176   3.370 -0.6913 -0.3879 -0.8328
 7317SOL     OW22731   7.494   1.035   4.687 -0.0933 -0.1862  0.1866
 7317SOL    HW122732   7.589   1.041   4.696  0.1144 -1.0605 -1.2239
 7317SOL    HW222733   7.479   1.024   4.594 -1.5204 -1.1705  0.5015
 7318SOL     OW22734   3.007   2.774   0.134  0.3631 -0.6031 -0.2380
 7318SOL    HW122735   3.017   2.797   0.226  1.2106 -1.8318 -0.0057
 7318SOL    HW222736   2.954   2.695   0.133  1.2208 -1.2013 -0.7138
 7319SOL     OW22737   3.688   1.314   7.242 -0.2316 -0.2350  0.1325
 7319SOL    HW122738   3.693   1.355   7.328 -1.6835 -2.1566  1.2338
 7319SOL    HW222739   3.723   1.226   7.256  2.3220  0.3073 -2.0062
 7320SOL     OW22740   4.122   7.289   1.028 -0.0036  0.0463 -0.0197
 7320SOL    HW122741   4.151   7.380   1.041 -1.4726  0.4406  0.6409
 7320SOL    HW222742   4.190   7.237   1.069  1.5111  0.7552 -1.4838
 7321SOL     OW22743   3.047   3.307   6.588 -0.1981  0.2547  0.2629
 7321SOL    HW122744   3.042   3.244   6.660  0.6773 -0.6142 -0.4170
 7321SOL    HW222745   3.003   3.263   6.515  1.8078 -0.2658 -0.6882
 7322SOL     OW22746   0.755   5.084   8.113 -0.1185  0.7530 -0.1718
 7322SOL    HW122747   0.793   5.160   8.069  1.3863 -1.3673 -2.8932
 7322SOL    HW222748   0.797   5.083   8.199  1.1867  2.0330 -0.7382
 7323SOL     OW22749   2.378   2.144   0.004 -0.5456 -0.0303 -0.4055
 7323SOL    HW122750   2.447   2.203   0.036 -2.3808  1.0693  1.8639
 7323SOL    HW222751   2.377   2.073   0.069 -0.3637 -0.9988 -1.4443
 7324SOL     OW22752   7.353   5.919   3.734 -0.1902  0.3010 -0.1211
 7324SOL    HW122753   7.371   5.970   3.655  1.5451 -0.4660 -0.2519
 7324SOL    HW222754   7.258   5.924   3.744 -0.5960 -0.5206 -2.8842
 7325SOL     OW22755   0.401   1.428   4.738  0.0630 -0.7265 -0.4972
 7325SOL    HW122756   0.412   1.370   4.663 -0.4827 -0.3629 -0.8669
 7325SOL    HW222757   0.308   1.422   4.759 -0.3287  1.1450 -1.4831
 7326SOL     OW22758   4.189   8.111   5.091  0.3420 -0.4177  0.3539
 7326SOL    HW122759   4.154   8.199   5.106  2.1596  0.3903  0.1596
 7326SOL    HW222760   4.182   8.099   4.997  1.1344  0.0222  0.2249
 7327SOL     OW22761   1.903   6.301   6.534 -0.6079 -0.6542 -0.0137
 7327SOL    HW122762   1.888   6.285   6.440  3.9709  0.2511 -1.1480
 7327SOL    HW222763   1.914   6.214   6.571 -2.6100 -1.0318 -0.1995
 7328SOL     OW22764   5.588   4.637   0.267 -0.0382  0.1795  0.2326
 7328SOL    HW122765   5.614   4.729   0.278 -0.3263  0.2540  0.3000
 7328SOL    HW222766   5.639   4.590   0.333  0.7850  0.1619 -0.3877
 7329SOL     OW22767   3.376   0.210   8.275  0.2076  0.2185  0.4989
 7329SOL    HW122768   3.409   0.123   8.254  0.5817  0.6584 -0.8025
 7329SOL    HW222769   3.448   0.251   8.323  0.1801 -0.0397  0.7673
 7330SOL     OW22770   7.629   6.484   4.922  0.2322  0.0210 -0.2174
 7330SOL    HW122771   7.680   6.553   4.878 -1.7248  0.9980 -1.0456
 7330SOL    HW222772   7.640   6.408   4.865  0.8537  0.1687 -0.3122
 7331SOL     OW22773   4.176   1.061   6.349  0.1064  0.6357 -0.1281
 7331SOL    HW122774   4.188   1.085   6.257  2.1237 -0.4496 -0.2146
 7331SOL    HW222775   4.194   1.142   6.397  1.2586  0.7036 -0.6318
 7332SOL     OW22776   3.584   3.415   3.766  0.1054 -0.1952 -0.0208
 7332SOL    HW122777   3.601   3.466   3.845 -0.5619 -0.5243  0.3405
 7332SOL    HW222778   3.671   3.388   3.736  0.3374 -0.4367  0.8474
 7333SOL     OW22779   2.418   7.210   2.909  0.0084 -0.3644 -0.1791
 7333SOL    HW122780   2.387   7.218   2.819 -0.0452  2.2827  0.0061
 7333SOL    HW222781   2.378   7.129   2.941  2.0128 -2.7559 -3.2309
 7334SOL     OW22782   2.657   4.112   1.041 -0.2050  0.1005 -0.0574
 7334SOL    HW122783   2.647   4.108   0.946 -0.5459  1.4678 -0.0944
 7334SOL    HW222784   2.568   4.120   1.075 -0.0823 -0.3236  0.3892
 7335SOL     OW22785   2.119   6.352   6.004  0.4428 -0.1391  0.3783
 7335SOL    HW122786   2.128   6.350   6.099  0.4556  0.2753  0.3875
 7335SOL    HW222787   2.025   6.354   5.989  0.4193 -0.9880  0.3614
 7336SOL     OW22788   8.289   5.997   3.360 -0.4229  0.2971  0.0811
 7336SOL    HW122789   8.327   6.058   3.297  0.3418  0.8992  1.0985
 7336SOL    HW222790   8.279   6.048   3.440 -0.2168 -0.7762  0.8197
 7337SOL     OW22791   5.516   5.578   3.110  0.6174  0.4083  0.0256
 7337SOL    HW122792   5.526   5.552   3.202 -0.1836  0.5386  0.1538
 7337SOL    HW222793   5.540   5.499   3.061 -0.5944 -0.2230  0.3863
 7338SOL     OW22794   4.084   8.084   5.893  0.1868 -0.2685 -0.3900
 7338SOL    HW122795   4.010   8.051   5.945  0.2030  0.4948  0.1334
 7338SOL    HW222796   4.161   8.064   5.946  0.1450  1.1824  0.2628
 7339SOL     OW22797   3.278   3.029   6.154  0.7310  0.1059 -0.3249
 7339SOL    HW122798   3.273   3.003   6.062  1.8255 -0.3781 -0.2643
 7339SOL    HW222799   3.285   3.125   6.150  0.7938  0.0889 -0.7529
 7340SOL     OW22800   6.287   3.700   2.546 -0.6200  0.2582  0.3021
 7340SOL    HW122801   6.341   3.706   2.468 -1.3600  2.2170 -0.1095
 7340SOL    HW222802   6.348   3.716   2.618 -0.2310  0.0148  0.0330
 7341SOL     OW22803   6.157   7.632   5.876  0.3842  0.3852  0.2028
 7341SOL    HW122804   6.063   7.621   5.858  0.3315  2.2068 -0.9150
 7341SOL    HW222805   6.167   7.725   5.895  2.0712  0.3705 -0.4133
 7342SOL     OW22806   2.277   7.838   2.747 -0.0378 -0.2996 -0.0593
 7342SOL    HW122807   2.269   7.749   2.782  1.8261 -0.7714 -0.6964
 7342SOL    HW222808   2.369   7.861   2.760 -0.6212  1.8096  0.6541
 7343SOL     OW22809   1.597   3.052   4.386 -0.1352 -0.0988 -0.1886
 7343SOL    HW122810   1.516   3.000   4.381 -1.1806  1.4786 -0.1916
 7343SOL    HW222811   1.634   3.029   4.471 -1.8878  0.9653  0.9213
 7344SOL     OW22812   1.264   0.025   0.462 -0.7503 -0.0460  0.0520
 7344SOL    HW122813   1.258  -0.055   0.514 -0.4291  0.6829  1.2378
 7344SOL    HW222814   1.187   0.076   0.489 -1.3439 -0.2352 -1.2119
 7345SOL     OW22815   5.096   0.232   4.379  0.1006  0.2308  0.6562
 7345SOL    HW122816   5.058   0.313   4.411  0.0258 -0.3427  2.1039
 7345SOL    HW222817   5.022   0.179   4.352 -0.0496 -0.2447  1.9260
 7346SOL     OW22818   8.201   2.315   2.792 -0.2331 -0.4686  0.3957
 7346SOL    HW122819   8.289   2.352   2.802 -0.4487  0.4504 -0.7802
 7346SOL    HW222820   8.193   2.252   2.863  0.0373  1.9772  2.7297
 7347SOL     OW22821   7.652   1.078   0.625 -0.7348  0.6899  0.5538
 7347SOL    HW122822   7.595   1.049   0.553 -0.4086 -0.1138  0.6121
 7347SOL    HW222823   7.722   1.014   0.628 -0.4586  1.0108  1.2592
 7348SOL     OW22824   0.275   3.386   8.225 -0.0999  0.0399 -0.1274
 7348SOL    HW122825   0.319   3.446   8.164 -2.2177  1.1492 -0.6767
 7348SOL    HW222826   0.263   3.305   8.175 -0.6703  0.5076 -0.7764
 7349SOL     OW22827   1.504   6.998   4.700 -0.1863 -0.3273 -0.2538
 7349SOL    HW122828   1.452   7.075   4.720 -2.2846 -1.6930 -0.1265
 7349SOL    HW222829   1.574   7.030   4.642  0.3498  1.9945  1.5509
 7350SOL     OW22830   2.281   2.816   6.596 -0.3429  0.8529  0.1150
 7350SOL    HW122831   2.202   2.762   6.606  0.0590  0.1466 -0.4582
 7350SOL    HW222832   2.256   2.883   6.533 -0.9795  1.6259  1.1496
 7351SOL     OW22833   5.846   6.049   7.725  0.1691 -0.2451 -0.2342
 7351SOL    HW122834   5.931   6.020   7.758 -0.3506 -0.9583  0.5255
 7351SOL    HW222835   5.814   6.109   7.792  0.0615 -0.0055 -0.5026
 7352SOL     OW22836   6.699   2.204   5.583 -0.0088 -0.2497  0.1304
 7352SOL    HW122837   6.771   2.262   5.558 -0.1599 -0.5901 -1.1419
 7352SOL    HW222838   6.736   2.148   5.652  0.9970 -0.5111 -0.5919
 7353SOL     OW22839   2.154   2.683   7.308  0.5424 -0.1839 -0.8288
 7353SOL    HW122840   2.100   2.610   7.340  1.1757 -0.7098 -0.9281
 7353SOL    HW222841   2.185   2.654   7.222  1.0529  0.0726 -0.7323
 7354SOL     OW22842   1.697   8.213   3.944  0.0651  0.1442 -1.0051
 7354SOL    HW122843   1.735   8.131   3.977 -1.2818  0.1667  0.7976
 7354SOL    HW222844   1.768   8.276   3.950  0.7308 -0.5897 -1.0553
 7355SOL     OW22845   7.084   3.710   3.487  0.1438  0.4805  0.4628
 7355SOL    HW122846   7.175   3.699   3.517  0.0575  0.0735  0.5801
 7355SOL    HW222847   7.034   3.649   3.540 -0.0224 -0.2226 -0.4729
 7356SOL     OW22848   4.298   6.285   1.470 -0.3317 -0.2985 -0.4180
 7356SOL    HW122849   4.232   6.221   1.495 -0.4848 -0.4598 -1.2032
 7356SOL    HW222850   4.294   6.352   1.538 -0.7090 -0.7327 -0.0083
 7357SOL     OW22851   8.092   0.776   0.623 -0.5362 -0.2538  0.1804
 7357SOL    HW122852   8.077   0.847   0.685  0.9155  0.1009  0.1658
 7357SOL    HW222853   8.124   0.704   0.677 -1.3455 -0.6818  0.1054
 7358SOL     OW22854   2.256   5.270   8.182 -0.0878  0.1926 -0.9703
 7358SOL    HW122855   2.162   5.280   8.195 -0.0274  1.3364 -1.2979
 7358SOL    HW222856   2.269   5.286   8.088  0.4312  0.1100 -0.9142
 7359SOL     OW22857   2.883   8.037   2.310  0.2319 -0.3046  0.2267
 7359SOL    HW122858   2.830   8.074   2.239 -3.6836 -0.3283  2.8172
 7359SOL    HW222859   2.892   7.945   2.288  0.4964  0.0008 -1.0048
 7360SOL     OW22860   7.027   1.618   3.242  0.0298 -0.2994 -0.0216
 7360SOL    HW122861   7.010   1.643   3.151 -0.4875 -0.2194  0.0927
 7360SOL    HW222862   7.084   1.541   3.236  2.3406  1.3217 -0.3823
 7361SOL     OW22863   3.390   6.101   3.352 -0.2412 -0.3634 -0.2982
 7361SOL    HW122864   3.391   6.196   3.341 -0.3075 -0.6229 -3.4284
 7361SOL    HW222865   3.432   6.086   3.437 -0.1118  2.4223  0.2299
 7362SOL     OW22866   6.250   1.981   7.771 -0.2479 -0.6872  0.1156
 7362SOL    HW122867   6.184   2.048   7.787 -0.7614 -1.2829  0.5244
 7362SOL    HW222868   6.332   2.020   7.803 -0.7393 -0.6810  1.4115
 7363SOL     OW22869   5.150   5.020   3.055  0.5716  0.0090 -0.3829
 7363SOL    HW122870   5.165   4.950   2.993 -0.5884  0.8240 -1.6567
 7363SOL    HW222871   5.160   5.100   3.004 -1.0763  0.6896  0.2745
 7364SOL     OW22872   3.500   1.927   0.690 -0.1690 -0.2552  0.4338
 7364SOL    HW122873   3.454   1.948   0.609 -0.1826  2.1851  0.9776
 7364SOL    HW222874   3.592   1.916   0.664 -0.0157  1.4437  0.1589
 7365SOL     OW22875   7.745   0.677   2.730 -0.2244 -0.8692  0.2647
 7365SOL    HW122876   7.799   0.703   2.806  1.9508  1.7743 -1.9606
 7365SOL    HW222877   7.677   0.744   2.726  0.4336 -0.2346 -0.7692
 7366SOL     OW22878   1.141   0.046   4.866 -0.2599 -0.4808 -0.5925
 7366SOL    HW122879   1.232   0.043   4.837  0.1253  2.1587  0.1392
 7366SOL    HW222880   1.113   0.136   4.850 -2.5947 -1.0791 -0.2891
 7367SOL     OW22881   5.754   1.332   2.763 -0.1116  1.0390 -0.3965
 7367SOL    HW122882   5.756   1.290   2.677 -2.1678  0.5110 -0.2466
 7367SOL    HW222883   5.792   1.267   2.823 -0.6268  0.5409 -0.6002
 7368SOL     OW22884   0.489   6.565   0.237  0.2249  0.2320 -0.0924
 7368SOL    HW122885   0.441   6.545   0.157  0.8555  0.9579 -0.6713
 7368SOL    HW222886   0.562   6.504   0.237  0.1187  0.1051  0.0282
 7369SOL     OW22887   7.316   7.384   3.952  0.3794 -0.0133 -0.1031
 7369SOL    HW122888   7.324   7.292   3.929  2.0607  0.4216 -1.4580
 7369SOL    HW222889   7.305   7.429   3.868  1.0572  1.1413  0.4013
 7370SOL     OW22890   3.618   5.013   8.286 -0.6577 -0.1337  0.0950
 7370SOL    HW122891   3.632   4.968   8.203  0.9111  0.9830 -0.2848
 7370SOL    HW222892   3.673   4.966   8.349 -1.4293 -0.6419  0.4170
 7371SOL     OW22893   5.664   7.532   2.674 -0.3584 -0.3980  0.4684
 7371SOL    HW122894   5.571   7.511   2.672 -0.0886 -2.0231  1.9478
 7371SOL    HW222895   5.706   7.461   2.625  0.1041  0.4815 -0.4471
 7372SOL     OW22896   5.207   1.381   3.396 -0.1397  0.2478 -0.0084
 7372SOL    HW122897   5.143   1.310   3.395  0.7590 -0.7432  3.0728
 7372SOL    HW222898   5.278   1.349   3.340 -0.6812 -0.2978 -0.4048
 7373SOL     OW22899   6.248   1.998   1.525  0.5524 -0.0478  0.8510
 7373SOL    HW122900   6.166   1.997   1.476  1.3441 -0.9589 -0.5117
 7373SOL    HW222901   6.235   2.065   1.592 -1.3712 -0.3330  0.7991
 7374SOL     OW22902   7.518   1.047   6.506 -0.0469  0.2659 -0.1931
 7374SOL    HW122903   7.498   1.028   6.414 -1.8546  0.8151  0.0606
 7374SOL    HW222904   7.549   1.137   6.505  3.0092 -0.6777 -0.6277
 7375SOL     OW22905   7.692   0.793   5.340 -0.0838 -0.2860  0.0186
 7375SOL    HW122906   7.694   0.851   5.416  0.7216 -0.1716 -0.0872
 7375SOL    HW222907   7.686   0.705   5.378 -0.6186 -0.1818  0.1898
 7376SOL     OW22908   1.545   7.742   5.570 -0.0453 -0.2053 -0.8034
 7376SOL    HW122909   1.553   7.646   5.567  0.5120 -0.2318  0.5827
 7376SOL    HW222910   1.625   7.773   5.528  0.2728 -0.3683 -0.3306
 7377SOL     OW22911   6.427   0.829   8.271 -0.3368  0.2733  0.1406
 7377SOL    HW122912   6.523   0.826   8.268 -0.2552  2.2661 -2.1848
 7377SOL    HW222913   6.406   0.921   8.253 -2.7084 -0.1211  0.6681
 7378SOL     OW22914   0.784   7.664   4.951  0.0438 -0.7411  0.4852
 7378SOL    HW122915   0.721   7.651   5.021  0.2402 -2.5575  0.3693
 7378SOL    HW222916   0.869   7.642   4.989  0.4371  0.2480  0.2290
 7379SOL     OW22917   0.078   4.445   6.333 -0.3538 -0.4480 -0.6845
 7379SOL    HW122918   0.035   4.379   6.387  1.0913 -1.1276 -0.3226
 7379SOL    HW222919   0.124   4.395   6.265  0.9647  0.1388 -0.2592
 7380SOL     OW22920   7.258   7.572   1.233 -0.1536  0.3983  0.0296
 7380SOL    HW122921   7.230   7.515   1.161 -0.4036 -0.1631  0.5586
 7380SOL    HW222922   7.354   7.575   1.225 -0.0839 -0.6043  0.3548
 7381SOL     OW22923   5.430   3.478   6.286 -0.0024 -0.0809  0.1297
 7381SOL    HW122924   5.510   3.529   6.274 -0.4000  0.5325  0.0291
 7381SOL    HW222925   5.460   3.387   6.292  0.6976  0.1412  0.0902
 7382SOL     OW22926   4.752   1.515   4.983  0.2474  0.5385  0.0127
 7382SOL    HW122927   4.688   1.508   5.053  0.5088  0.6185  0.2583
 7382SOL    HW222928   4.708   1.477   4.907 -0.0271  0.4333  0.2232
 7383SOL     OW22929   7.740   5.928   4.432  0.5020  0.6863  0.1157
 7383SOL    HW122930   7.808   5.926   4.364  0.2669  1.5892 -0.1710
 7383SOL    HW222931   7.660   5.901   4.387  0.5241  0.3908  0.2570
 7384SOL     OW22932   4.260   0.137   6.123  0.0251 -0.2517  0.4554
 7384SOL    HW122933   4.253   0.206   6.189 -0.7853 -0.0178  0.1352
 7384SOL    HW222934   4.310   0.176   6.052  3.4346 -1.3733  2.0240
 7385SOL     OW22935   3.066   7.592   3.709 -0.4651  0.5079 -0.4965
 7385SOL    HW122936   3.076   7.669   3.653 -1.7501 -0.1554 -1.7011
 7385SOL    HW222937   3.110   7.522   3.660  2.3341  0.7405  1.4174
 7386SOL     OW22938   5.819   1.557   5.917 -0.3513 -0.1263  0.5813
 7386SOL    HW122939   5.779   1.585   5.835 -2.7388  1.3717  2.1267
 7386SOL    HW222940   5.854   1.638   5.955 -1.9462 -0.1916  2.3434
 7387SOL     OW22941   6.908   2.149   0.146 -0.0451 -0.3005  0.3484
 7387SOL    HW122942   6.916   2.205   0.224 -1.8962  2.0184 -0.9994
 7387SOL    HW222943   6.833   2.093   0.164 -1.5172  1.3746 -0.3435
 7388SOL     OW22944   5.525   6.947   4.017  0.2766  0.2320 -0.7936
 7388SOL    HW122945   5.520   6.908   4.104  0.4918  0.2013 -0.7961
 7388SOL    HW222946   5.603   6.908   3.977 -0.0601 -0.0858 -1.1592
 7389SOL     OW22947   3.979   2.573   2.284 -0.0483 -0.0347  0.2875
 7389SOL    HW122948   3.934   2.558   2.367 -0.6053  0.2290  0.0386
 7389SOL    HW222949   4.025   2.491   2.266 -0.5119 -0.3445  0.4984
 7390SOL     OW22950   0.208   4.315   6.150  0.3701  0.8449 -0.5895
 7390SOL    HW122951   0.267   4.241   6.165  0.1039  0.6691 -0.4016
 7390SOL    HW222952   0.175   4.303   6.061 -1.2058 -0.3605  0.1191
 7391SOL     OW22953   6.624   8.283   7.550 -0.2279  0.2779 -0.3004
 7391SOL    HW122954   6.634   8.378   7.544 -0.1666  0.3228  0.3815
 7391SOL    HW222955   6.693   8.248   7.494  1.4440  0.6265  1.4144
 7392SOL     OW22956   2.693   1.961   0.354 -0.1296 -0.6330  0.5543
 7392SOL    HW122957   2.787   1.956   0.368 -0.0513  0.8808  0.7775
 7392SOL    HW222958   2.654   1.941   0.439  0.0939  0.9776  1.0707
 7393SOL     OW22959   3.380   1.536   5.880  0.9971 -0.3304 -0.6269
 7393SOL    HW122960   3.331   1.614   5.854 -1.3483 -1.4006  0.3380
 7393SOL    HW222961   3.394   1.547   5.974 -1.5193 -2.0780  0.0536
 7394SOL     OW22962   6.508   2.299   3.544  0.0356  1.1024 -0.2472
 7394SOL    HW122963   6.519   2.394   3.541 -1.9142  1.3576 -0.5336
 7394SOL    HW222964   6.413   2.286   3.544  0.2510 -0.8213  0.7488
 7395SOL     OW22965   6.908   2.771   0.572  0.0550  0.3619 -0.4249
 7395SOL    HW122966   6.857   2.845   0.605  0.9868  1.0645 -0.4814
 7395SOL    HW222967   6.855   2.734   0.502 -0.9657  0.2220  0.4087
 7396SOL     OW22968   5.941   2.908   0.666  0.0441 -0.2161 -0.3247
 7396SOL    HW122969   5.926   2.870   0.753 -0.5984  0.4121 -0.1529
 7396SOL    HW222970   5.924   2.836   0.605  1.9413 -1.0926  0.0993
 7397SOL     OW22971   1.139   5.107   5.274  0.2923 -0.1435  0.4435
 7397SOL    HW122972   1.141   5.202   5.261  2.2986 -0.0791  0.9975
 7397SOL    HW222973   1.057   5.080   5.231 -0.3229  1.8086  0.2554
 7398SOL     OW22974   1.685   6.472   0.041 -0.5201  0.1179 -0.3318
 7398SOL    HW122975   1.743   6.416  -0.010 -0.2999  0.3375 -0.3227
 7398SOL    HW222976   1.646   6.531  -0.024 -2.2627 -1.3024 -0.6676
 7399SOL     OW22977   4.998   7.721   4.212  0.8239  0.0714  0.1369
 7399SOL    HW122978   4.943   7.683   4.143  0.4134  0.5291  0.2071
 7399SOL    HW222979   5.073   7.757   4.165  0.7238  0.0620 -0.0327
 7400SOL     OW22980   0.363   3.617   2.477  0.4208  0.4285 -0.2080
 7400SOL    HW122981   0.456   3.634   2.490  0.3858  0.4511  0.0147
 7400SOL    HW222982   0.320   3.664   2.549  0.3675 -1.2290  0.8775
 7401SOL     OW22983   4.339   7.500   4.691 -0.5173  0.4187  0.1866
 7401SOL    HW122984   4.342   7.411   4.656 -1.4388 -0.0697  1.2680
 7401SOL    HW222985   4.257   7.503   4.741 -0.8956  2.1160 -0.4582
 7402SOL     OW22986   2.764   0.761   5.108  0.2096  0.2633  0.4875
 7402SOL    HW122987   2.730   0.824   5.045  2.2666  1.9387  0.9310
 7402SOL    HW222988   2.740   0.676   5.073 -0.6739  1.2158 -1.3461
 7403SOL     OW22989   4.694   4.386   4.254 -0.3185 -0.3193 -0.0490
 7403SOL    HW122990   4.607   4.424   4.245  0.8791  2.2991 -1.6181
 7403SOL    HW222991   4.694   4.312   4.193 -1.3157 -0.1381 -0.2875
 7404SOL     OW22992   7.221   3.373   1.295 -0.0025  0.2977  0.0539
 7404SOL    HW122993   7.283   3.364   1.368  0.5919  0.8864 -0.3696
 7404SOL    HW222994   7.184   3.460   1.305  1.1061  0.9412 -1.1133
 7405SOL     OW22995   0.378   7.300   4.278 -0.1078  0.5394  0.1660
 7405SOL    HW122996   0.419   7.244   4.343 -3.2044 -0.6370  1.3130
 7405SOL    HW222997   0.389   7.389   4.312  0.2958  0.1384  1.1060
 7406SOL     OW22998   6.544   2.305   5.343 -0.5062  0.4628  0.0792
 7406SOL    HW122999   6.577   2.304   5.433  0.1798 -0.1112 -0.1716
 7406SOL    HW223000   6.488   2.228   5.336 -0.1247  0.2000 -0.1367
 7407SOL     OW23001   6.603   1.770   4.717  0.7429  0.0300  0.2949
 7407SOL    HW123002   6.624   1.761   4.810  0.3874 -0.0473  0.3707
 7407SOL    HW223003   6.514   1.805   4.716  1.3591  1.7131 -0.0017
 7408SOL     OW23004   7.250   1.770   3.049  0.0625  0.2408  0.4702
 7408SOL    HW123005   7.199   1.774   2.968  0.9883  1.3268 -0.0905
 7408SOL    HW223006   7.184   1.773   3.119 -0.7046  0.4136 -0.2416
 7409SOL     OW23007   0.589   5.025   5.639 -0.0202  0.7085 -0.3546
 7409SOL    HW123008   0.553   4.968   5.708  0.5931  1.1628  0.3600
 7409SOL    HW223009   0.609   4.965   5.567  0.7934 -0.0355  0.4579
 7410SOL     OW23010   4.769   5.120   0.532 -0.1026 -0.5543 -0.0229
 7410SOL    HW123011   4.777   5.032   0.495 -0.2560 -0.8651  0.6817
 7410SOL    HW223012   4.800   5.112   0.622  1.9880  0.5741 -0.5621
 7411SOL     OW23013   3.821   6.000   1.961 -0.6533 -0.0771 -0.0811
 7411SOL    HW123014   3.773   6.078   1.932  1.2840  0.2971 -2.6682
 7411SOL    HW223015   3.911   6.030   1.972  0.0215 -1.8120 -0.5410
 7412SOL     OW23016   7.626   5.897   1.018 -0.8279 -0.2879  0.5136
 7412SOL    HW123017   7.611   5.918   0.925  0.5256 -0.3439  0.2620
 7412SOL    HW223018   7.721   5.885   1.025 -1.1350 -2.7064  1.4070
 7413SOL     OW23019   6.416   1.855   0.572 -0.5227 -0.2163  0.5454
 7413SOL    HW123020   6.478   1.858   0.646 -0.3992 -1.3946  0.5163
 7413SOL    HW223021   6.471   1.835   0.496 -0.7428  0.3056  0.2453
 7414SOL     OW23022   0.092   6.049   8.139  0.0650  0.3879  1.1614
 7414SOL    HW123023   0.041   5.995   8.078  1.7105 -1.1939  1.1162
 7414SOL    HW223024   0.106   6.131   8.091  0.6532 -0.5234 -0.2993
 7415SOL     OW23025   3.831   5.098   6.060 -0.2419 -0.0597  0.6518
 7415SOL    HW123026   3.829   5.158   6.134  1.8542 -0.1771  0.8665
 7415SOL    HW223027   3.905   5.040   6.078 -0.5289 -0.9582 -0.8761
 7416SOL     OW23028   4.107   6.907   3.857 -0.0283 -0.3056 -0.0768
 7416SOL    HW123029   4.141   6.839   3.914  0.8278  1.7589  2.0553
 7416SOL    HW223030   4.022   6.931   3.894  0.3972  0.8468  0.2149
 7417SOL     OW23031   1.126   4.761   2.952  0.3862 -0.1219  0.3584
 7417SOL    HW123032   1.054   4.821   2.933 -0.0153 -0.6874  0.0459
 7417SOL    HW223033   1.164   4.793   3.033  0.2627  0.6285  0.1211
 7418SOL     OW23034   5.492   2.897   4.577 -0.3205 -0.2282  0.0412
 7418SOL    HW123035   5.412   2.948   4.565 -0.5970 -0.8353 -0.7303
 7418SOL    HW223036   5.557   2.962   4.607 -1.0018  0.3276  0.3444
 7419SOL     OW23037   5.389   7.569   2.963  0.4108  0.2660  0.0095
 7419SOL    HW123038   5.366   7.485   3.004  1.0308 -0.3357 -0.8412
 7419SOL    HW223039   5.473   7.592   3.002  0.3765  0.3469  0.0352
 7420SOL     OW23040   1.116   2.325   4.444 -0.5232 -0.1751  0.2840
 7420SOL    HW123041   1.085   2.396   4.499  0.0065  0.7894 -0.6224
 7420SOL    HW223042   1.039   2.298   4.394 -0.7536 -0.3377  0.7198
 7421SOL     OW23043   5.158   0.980   5.138  0.2074  0.7382  0.6348
 7421SOL    HW123044   5.113   1.030   5.070 -0.1393 -0.5342 -0.1044
 7421SOL    HW223045   5.087   0.941   5.190  0.4485  2.2559  2.2170
 7422SOL     OW23046   3.612   6.252   2.466 -0.4478  0.1174  0.4122
 7422SOL    HW123047   3.656   6.295   2.393 -0.5305  0.4088  0.5310
 7422SOL    HW223048   3.646   6.163   2.466  1.2241  0.7178  1.3780
 7423SOL     OW23049   5.832   1.157   3.335  0.5427 -0.0275  0.0080
 7423SOL    HW123050   5.879   1.176   3.416  0.2737 -0.0244  0.1642
 7423SOL    HW223051   5.895   1.177   3.266  0.3125  1.3750  0.1683
 7424SOL     OW23052   4.255   5.656   6.749 -0.2051 -0.5601  0.4348
 7424SOL    HW123053   4.270   5.586   6.685 -0.9739  1.0414 -1.6305
 7424SOL    HW223054   4.164   5.644   6.775  0.4607 -1.9918  2.3363
 7425SOL     OW23055   2.039   3.858   2.653 -0.7302 -0.0054  0.4978
 7425SOL    HW123056   2.129   3.831   2.672 -0.5920  0.7752  1.0016
 7425SOL    HW223057   2.034   3.859   2.557 -0.3849 -0.6111  0.4657
 7426SOL     OW23058   7.160   3.353   7.954  0.0624  0.1315  0.2949
 7426SOL    HW123059   7.122   3.418   7.896  1.1591  1.6612  1.2043
 7426SOL    HW223060   7.125   3.374   8.040  1.0231  0.0168  0.7303
 7427SOL     OW23061   3.023   5.305   1.632  0.2184  0.0898 -0.3455
 7427SOL    HW123062   3.106   5.278   1.671  0.0713 -0.6031 -0.4855
 7427SOL    HW223063   2.988   5.224   1.594 -0.6911  0.2886  0.0319
 7428SOL     OW23064   4.781   4.150   3.427 -0.1537 -0.2798  0.5198
 7428SOL    HW123065   4.855   4.205   3.403 -0.9303  1.0250  0.9426
 7428SOL    HW223066   4.811   4.101   3.503 -0.2108  1.4962  1.7623
 7429SOL     OW23067   3.475   3.704   6.451 -0.1733 -0.0881 -0.3256
 7429SOL    HW123068   3.567   3.678   6.445 -0.0847  0.3989 -1.2841
 7429SOL    HW223069   3.470   3.788   6.405 -1.1614 -0.3079 -0.6608
 7430SOL     OW23070   5.773   5.703   4.172 -0.2413  0.2282  0.1657
 7430SOL    HW123071   5.830   5.716   4.247 -0.6299  0.5408  0.4130
 7430SOL    HW223072   5.786   5.781   4.118 -0.3386  0.2417  0.1609
 7431SOL     OW23073   5.595   4.981   8.075  0.0501 -0.0986  0.0197
 7431SOL    HW123074   5.623   5.054   8.130  0.2869 -0.6737  0.6807
 7431SOL    HW223075   5.535   4.930   8.131  0.3760 -0.7521 -0.2102
 7432SOL     OW23076   1.494   4.909   3.481  0.4847  0.7431 -0.0124
 7432SOL    HW123077   1.526   4.945   3.398 -2.7498 -0.3378 -1.9170
 7432SOL    HW223078   1.505   4.815   3.472 -1.5894  0.4510 -0.1274
 7433SOL     OW23079   7.575   5.442   6.570 -0.5646 -0.3929  0.0362
 7433SOL    HW123080   7.510   5.380   6.604 -0.2769 -0.4052  0.5779
 7433SOL    HW223081   7.624   5.393   6.504  0.7877 -1.3207  1.6402
 7434SOL     OW23082   7.767   7.994   6.767 -0.5109 -0.0310  0.3716
 7434SOL    HW123083   7.770   7.986   6.671 -0.1541 -2.0940  0.5117
 7434SOL    HW223084   7.673   7.992   6.787 -0.5708 -0.2080  0.0925
 7435SOL     OW23085   1.920   3.428   2.238 -0.1393 -0.0804 -0.6152
 7435SOL    HW123086   1.992   3.481   2.204  0.6112 -0.7436 -0.0961
 7435SOL    HW223087   1.886   3.381   2.161  0.8709 -0.7915 -0.6349
 7436SOL     OW23088   7.751   1.769   4.461  0.2129  0.2319  0.2858
 7436SOL    HW123089   7.726   1.840   4.520  0.7260 -0.8462  1.8555
 7436SOL    HW223090   7.668   1.742   4.421 -0.1427  1.0023  0.4817
 7437SOL     OW23091   3.125   4.772   0.915  0.1481 -0.2121 -0.0719
 7437SOL    HW123092   3.090   4.841   0.859  0.8903 -0.2760 -0.6329
 7437SOL    HW223093   3.216   4.799   0.930  0.1957 -0.6348  0.4083
 7438SOL     OW23094   4.927   0.297   8.022  0.0778 -0.0813  0.4862
 7438SOL    HW123095   4.929   0.247   7.940  0.4753  0.1674  0.3423
 7438SOL    HW223096   5.009   0.346   8.023  1.5786 -2.4262  2.5376
 7439SOL     OW23097   6.305   5.729   6.047 -0.4797 -0.4563 -0.0585
 7439SOL    HW123098   6.317   5.815   6.087  0.7454 -0.6476  0.0177
 7439SOL    HW223099   6.215   5.732   6.012 -2.0136 -0.6308  3.4829
 7440SOL     OW23100   5.559   6.279   1.148  0.6455 -0.6492 -0.6354
 7440SOL    HW123101   5.636   6.248   1.196 -1.7157 -2.0778  2.5382
 7440SOL    HW223102   5.490   6.218   1.171 -1.6777  0.9380 -2.8558
 7441SOL     OW23103   0.034   6.764   0.323 -0.0491  0.2743  0.0442
 7441SOL    HW123104  -0.060   6.747   0.313 -0.1200  0.0684  0.9414
 7441SOL    HW223105   0.050   6.840   0.268 -1.1687  1.5585  1.3842
 7442SOL     OW23106   3.622   0.674   6.727  0.2001  0.1669  0.3484
 7442SOL    HW123107   3.675   0.600   6.696  1.3302  1.8466 -2.0570
 7442SOL    HW223108   3.665   0.702   6.808  2.4228  0.8018 -0.9640
 7443SOL     OW23109   3.450   7.483   7.215  0.5469  0.2158  0.1727
 7443SOL    HW123110   3.440   7.546   7.287 -1.1773 -2.1987  2.2322
 7443SOL    HW223111   3.540   7.453   7.221  0.5676  0.4162  1.0463
 7444SOL     OW23112   1.718   7.910   3.841 -0.1394 -0.4630 -0.3105
 7444SOL    HW123113   1.689   7.959   3.764  0.6184  1.6524  0.6527
 7444SOL    HW223114   1.740   7.823   3.808 -1.7137 -0.2464 -2.1030
 7445SOL     OW23115   6.312   7.928   1.018 -0.2794 -0.1552  0.4236
 7445SOL    HW123116   6.357   7.848   0.990  0.7614 -0.2760  2.3177
 7445SOL    HW223117   6.382   7.990   1.037 -1.0116  0.5451  0.9058
 7446SOL     OW23118   7.657   6.628   6.983 -0.4881 -0.8564 -0.3868
 7446SOL    HW123119   7.695   6.558   7.036  0.9089 -0.8892 -1.3796
 7446SOL    HW223120   7.563   6.614   6.990 -0.3035 -1.6701  0.9712
 7447SOL     OW23121   0.638   2.922   6.443  0.5348  0.2583 -0.5500
 7447SOL    HW123122   0.728   2.898   6.465  0.6846 -0.1030 -1.4696
 7447SOL    HW223123   0.588   2.841   6.458  0.1183  0.8016  1.1673
 7448SOL     OW23124   7.933   3.052   3.910  0.6304  0.0444  0.3734
 7448SOL    HW123125   7.939   3.136   3.955  1.9219  1.6303 -2.5012
 7448SOL    HW223126   8.021   3.038   3.875  0.3402 -2.3644  0.4780
 7449SOL     OW23127   2.091   3.000   2.567 -0.4835 -0.2203 -0.7407
 7449SOL    HW123128   2.102   2.955   2.484 -0.3517 -0.5127 -0.5641
 7449SOL    HW223129   2.059   3.087   2.543 -0.7667 -0.4149 -1.0777
 7450SOL     OW23130   5.940   7.087   2.281  0.1034  0.1319 -0.1806
 7450SOL    HW123131   5.898   7.069   2.197 -1.8992  2.0951  0.3205
 7450SOL    HW223132   5.872   7.129   2.333  2.3955  2.5915  1.0358
 7451SOL     OW23133   1.078   6.944   0.555  0.4657  0.4012 -0.0502
 7451SOL    HW123134   1.080   6.874   0.490  0.9907  0.5721 -0.2181
 7451SOL    HW223135   0.994   6.932   0.600 -0.3375  0.8221 -1.3647
 7452SOL     OW23136   2.307   0.885   2.719 -0.3561  0.5257  0.3793
 7452SOL    HW123137   2.275   0.809   2.769  0.6231 -1.3751 -1.7166
 7452SOL    HW223138   2.257   0.882   2.637  2.1227 -0.0709 -1.2337
 7453SOL     OW23139   1.299   4.343   5.914  0.3121  0.9299 -0.3032
 7453SOL    HW123140   1.369   4.359   5.851 -0.4690 -2.1292 -2.1140
 7453SOL    HW223141   1.219   4.365   5.867 -0.2237 -0.4896 -0.0863
 7454SOL     OW23142   0.380   7.301   7.765  0.2240 -0.2203 -0.2523
 7454SOL    HW123143   0.338   7.216   7.750 -0.7874  0.2574 -0.1994
 7454SOL    HW223144   0.362   7.351   7.686  0.0570  0.2435  0.0738
 7455SOL     OW23145   3.168   7.253   2.908 -0.3935 -0.2028 -0.2886
 7455SOL    HW123146   3.187   7.316   2.839 -0.2745 -0.5690 -0.5975
 7455SOL    HW223147   3.217   7.284   2.984  0.8240 -0.6912 -0.8408
 7456SOL     OW23148   6.060   3.739   8.222  0.2067 -0.1869 -0.1810
 7456SOL    HW123149   6.110   3.664   8.191  0.1453 -0.4095  0.2634
 7456SOL    HW223150   6.126   3.799   8.258  0.2119 -0.2243 -0.1284
 7457SOL     OW23151   7.571   7.786   7.914  0.2889 -0.1724 -0.4099
 7457SOL    HW123152   7.615   7.706   7.943  0.2418  0.0017  0.1596
 7457SOL    HW223153   7.494   7.793   7.971  2.0876  2.1080  1.9922
 7458SOL     OW23154   5.912   0.838   2.131  0.0657 -0.3767 -0.0804
 7458SOL    HW123155   5.962   0.765   2.095 -0.2564 -1.7251  2.0238
 7458SOL    HW223156   5.856   0.798   2.198 -2.4764  1.3469 -1.0129
 7459SOL     OW23157   3.489   1.587   2.879  0.1054  0.0280 -0.0831
 7459SOL    HW123158   3.466   1.600   2.970  0.1988 -0.1721 -0.0312
 7459SOL    HW223159   3.411   1.551   2.838 -0.7740  2.3247 -0.6134
 7460SOL     OW23160   6.356   8.142   3.549 -0.2708 -0.3457 -0.0556
 7460SOL    HW123161   6.434   8.197   3.538  1.5026 -2.8948 -1.2741
 7460SOL    HW223162   6.315   8.142   3.463 -0.9798  0.0112  0.2724
 7461SOL     OW23163   6.077   6.349   6.457 -0.5000 -0.5099 -0.6193
 7461SOL    HW123164   5.984   6.356   6.437 -0.2993 -0.4220 -1.5480
 7461SOL    HW223165   6.111   6.437   6.443 -0.3036 -0.5058 -0.1250
 7462SOL     OW23166   1.678   0.290   2.505  0.1172 -0.6272 -0.5169
 7462SOL    HW123167   1.683   0.350   2.579 -0.5944 -0.6239 -0.4659
 7462SOL    HW223168   1.734   0.217   2.530 -0.9023 -1.1048  0.4956
 7463SOL     OW23169   3.036   2.722   5.156  0.4583 -0.1153 -1.1917
 7463SOL    HW123170   2.968   2.733   5.222 -0.6438 -1.1351 -2.1220
 7463SOL    HW223171   3.117   2.716   5.207 -0.3731 -1.0260  0.0954
 7464SOL     OW23172   6.155   1.991   7.224  0.2057  0.5176  0.5425
 7464SOL    HW123173   6.060   1.993   7.212  0.0977 -0.4087  1.1145
 7464SOL    HW223174   6.179   1.900   7.207  0.9153  0.6255  0.9461
 7465SOL     OW23175   1.990   0.477   2.772  0.6261 -0.0642 -0.2592
 7465SOL    HW123176   1.896   0.491   2.786  0.8681  1.5374 -0.0754
 7465SOL    HW223177   1.999   0.382   2.765 -0.9288 -0.2831  0.2944
 7466SOL     OW23178   7.802   8.122   3.650  0.2981  0.5037 -0.4370
 7466SOL    HW123179   7.895   8.129   3.630  0.5459 -1.0193  0.0565
 7466SOL    HW223180   7.798   8.069   3.730 -1.0197 -0.2255 -0.9422
 7467SOL     OW23181   1.876   7.655   2.509 -0.2823 -0.1245  0.5053
 7467SOL    HW123182   1.863   7.689   2.421 -1.4563 -0.9027  0.3632
 7467SOL    HW223183   1.808   7.589   2.520  0.5281 -0.8048  1.6077
 7468SOL     OW23184   2.350   1.407   5.907  0.1484 -0.4014  0.6282
 7468SOL    HW123185   2.287   1.352   5.860  0.4913  0.1191 -0.4570
 7468SOL    HW223186   2.296   1.475   5.947 -0.0638 -0.4056  0.3507
 7469SOL     OW23187   8.302   0.143   7.225  0.0692  0.0733 -0.1642
 7469SOL    HW123188   8.339   0.080   7.163  0.2529  0.4552 -0.4402
 7469SOL    HW223189   8.344   0.121   7.309  1.4932  0.9820 -0.6175
 7470SOL     OW23190   2.937   7.608   1.859  0.0311  0.1728 -0.7051
 7470SOL    HW123191   3.000   7.590   1.929 -2.7466  0.5675  2.1264
 7470SOL    HW223192   2.891   7.525   1.847 -0.7231  0.5786 -0.6917
 7471SOL     OW23193   1.900   0.040   4.349 -0.2341 -0.1508  0.0569
 7471SOL    HW123194   1.995   0.042   4.341 -0.1717  1.6326  0.8796
 7471SOL    HW223195   1.875  -0.048   4.319  1.5364 -0.1991 -1.3931
 7472SOL     OW23196   5.465   4.497   7.431 -0.6169 -0.0638 -0.4358
 7472SOL    HW123197   5.440   4.551   7.356 -2.3571 -2.0488 -1.3944
 7472SOL    HW223198   5.476   4.409   7.395  2.1417 -0.4530  1.0536
 7473SOL     OW23199   8.129   6.129   3.830 -0.0649 -0.6159 -0.1249
 7473SOL    HW123200   8.107   6.222   3.840  0.3768 -0.6789  1.6809
 7473SOL    HW223201   8.216   6.120   3.868 -0.5237 -1.9616  0.6766
 7474SOL     OW23202   6.109   2.827   0.242 -0.0363  0.3648 -0.2745
 7474SOL    HW123203   6.118   2.769   0.166 -1.2060  0.3491 -0.4105
 7474SOL    HW223204   6.167   2.788   0.308  0.5889  0.0827 -0.9683
 7475SOL     OW23205   8.254   7.502   6.311  0.6387 -0.1974 -0.1190
 7475SOL    HW123206   8.220   7.427   6.262  1.0532 -0.1903 -0.4206
 7475SOL    HW223207   8.178   7.537   6.357 -0.0575  0.6659 -1.8572
 7476SOL     OW23208   3.786   3.003   0.148  0.3352  0.0075 -0.5644
 7476SOL    HW123209   3.703   2.971   0.112  0.1531 -0.1970  0.0235
 7476SOL    HW223210   3.775   3.098   0.152  0.2998  0.0181 -0.9042
 7477SOL     OW23211   4.317   5.788   7.934 -0.3516 -0.2392  0.4366
 7477SOL    HW123212   4.337   5.879   7.959 -1.8754  0.2620 -0.0577
 7477SOL    HW223213   4.350   5.780   7.844 -0.9749  0.1033  0.1724
 7478SOL     OW23214   6.734   7.102   0.062  0.1790  0.1637  0.0606
 7478SOL    HW123215   6.738   7.093   0.157  0.4046  2.7332  0.3543
 7478SOL    HW223216   6.700   7.190   0.047 -2.0110 -0.9383 -2.2777
 7479SOL     OW23217   5.278   7.850   4.326 -0.3013  0.7212  0.0967
 7479SOL    HW123218   5.183   7.858   4.318 -0.5541  0.1580  2.0274
 7479SOL    HW223219   5.312   7.930   4.287 -1.3013 -0.4560 -3.6942
 7480SOL     OW23220   7.424   6.503   4.533  0.3495  0.3210  0.3113
 7480SOL    HW123221   7.357   6.435   4.529  1.1224 -0.4392 -0.0649
 7480SOL    HW223222   7.392   6.572   4.475  0.5929 -0.7006 -1.0927
 7481SOL     OW23223   2.062   0.899   7.431  0.2052  0.0549  0.1971
 7481SOL    HW123224   2.156   0.887   7.439  0.4602 -1.1378 -2.8883
 7481SOL    HW223225   2.026   0.811   7.441 -0.4859  0.3738  0.5716
 7482SOL     OW23226   3.658   2.326   7.908 -0.1185  0.5211 -0.1547
 7482SOL    HW123227   3.693   2.333   7.819  0.7618 -2.2305 -0.1376
 7482SOL    HW223228   3.583   2.266   7.900  0.0150  0.1721  0.9490
 7483SOL     OW23229   5.398   5.822   5.765 -0.2176  0.3321 -0.1722
 7483SOL    HW123230   5.432   5.897   5.815 -1.1518  0.5474  0.1650
 7483SOL    HW223231   5.406   5.849   5.674 -2.0324  1.5439 -0.0224
 7484SOL     OW23232   2.579   3.151   0.191 -0.3394 -0.0201  0.9356
 7484SOL    HW123233   2.506   3.096   0.219  0.5581 -1.3505  0.7326
 7484SOL    HW223234   2.657   3.101   0.213  0.4861  0.7477 -0.1386
 7485SOL     OW23235   5.059   2.421   3.705  0.0816  0.2764  0.3897
 7485SOL    HW123236   5.031   2.500   3.751  3.5426  1.3812  0.9094
 7485SOL    HW223237   5.143   2.398   3.745  0.7130 -1.8170 -1.8707
 7486SOL     OW23238   4.501   1.923   1.175 -0.7760  0.3197  0.2645
 7486SOL    HW123239   4.436   1.861   1.208 -1.0934  0.1841 -0.5867
 7486SOL    HW223240   4.454   1.975   1.110  0.5766 -1.5886 -2.4489
 7487SOL     OW23241   4.146   3.017   3.148 -0.5819  0.4846  0.1658
 7487SOL    HW123242   4.110   2.958   3.082  1.3681 -0.6478  0.0482
 7487SOL    HW223243   4.209   3.070   3.100  0.5122 -0.0322  1.0062
 7488SOL     OW23244   1.628   7.319   2.663  0.3759 -0.4715 -0.3352
 7488SOL    HW123245   1.581   7.367   2.596  0.3896 -1.6467 -1.2289
 7488SOL    HW223246   1.595   7.229   2.657  2.5260 -1.3008 -0.8606
 7489SOL     OW23247   2.167   2.786   3.081  0.1083 -0.3220  0.4711
 7489SOL    HW123248   2.256   2.821   3.094  0.4129 -1.5131  1.8152
 7489SOL    HW223249   2.149   2.735   3.160 -2.0198  0.3576  0.4928
 7490SOL     OW23250   3.037   0.849   1.470  0.0226 -0.2005  1.0386
 7490SOL    HW123251   2.965   0.898   1.510 -1.1637  0.3566 -1.5484
 7490SOL    HW223252   3.114   0.903   1.486 -0.6562  0.7327  1.2809
 7491SOL     OW23253   3.503   0.090   5.385 -0.2826 -0.0790 -0.0696
 7491SOL    HW123254   3.495   0.175   5.341  0.3083  0.3696  0.6627
 7491SOL    HW223255   3.498   0.025   5.315  2.2290  0.6514 -1.0054
 7492SOL     OW23256   7.121   4.780   0.326  0.3360  0.2737 -0.4140
 7492SOL    HW123257   7.099   4.754   0.237  0.0250  2.5391 -1.0593
 7492SOL    HW223258   7.103   4.702   0.379 -4.8657  0.3738 -1.4986
 7493SOL     OW23259   4.235   0.358   7.701  0.2793  0.0217  0.1013
 7493SOL    HW123260   4.216   0.300   7.774  0.1654 -0.5002 -0.3334
 7493SOL    HW223261   4.331   0.368   7.703  0.4818 -1.4075 -0.7077
 7494SOL     OW23262   5.633   4.090   3.887 -0.3777  0.8932  0.0291
 7494SOL    HW123263   5.624   3.995   3.876 -0.9086  0.6401  2.3401
 7494SOL    HW223264   5.545   4.124   3.874 -0.5075  0.8796  0.8707
 7495SOL     OW23265   0.861   1.972   8.259  0.5775 -0.1186 -0.8093
 7495SOL    HW123266   0.847   2.062   8.287  1.0376 -0.5225  0.8144
 7495SOL    HW223267   0.920   1.935   8.325  1.0269 -1.3873 -1.8723
 7496SOL     OW23268   7.901   3.720   3.832 -0.2817  0.1044  0.6583
 7496SOL    HW123269   7.920   3.642   3.780 -0.5614  0.7930 -0.5206
 7496SOL    HW223270   7.986   3.749   3.864 -0.2058 -0.8382  1.3835
 7497SOL     OW23271   7.846   5.960   2.576  0.1088 -0.1412  0.4698
 7497SOL    HW123272   7.853   6.052   2.604  0.5317 -0.0500  0.0803
 7497SOL    HW223273   7.936   5.933   2.560 -0.1531  0.6830 -3.4958
 7498SOL     OW23274   7.593   6.284   0.071  0.0436  0.2626 -0.5865
 7498SOL    HW123275   7.624   6.289   0.161 -0.9786  1.0534 -0.2546
 7498SOL    HW223276   7.670   6.260   0.020  1.1744  2.0279  0.2071
 7499SOL     OW23277   7.285   0.870   3.167  0.0376 -0.0905 -0.1215
 7499SOL    HW123278   7.239   0.873   3.251  0.3143 -2.2064  0.1645
 7499SOL    HW223279   7.245   0.797   3.120  0.4790  0.5129 -1.4898
 7500SOL     OW23280   5.365   2.523   6.172 -0.1732  0.4271 -0.2738
 7500SOL    HW123281   5.358   2.500   6.265 -1.0529  2.7013  0.2921
 7500SOL    HW223282   5.277   2.507   6.137 -0.1219  0.5835 -0.4722
 7501SOL     OW23283   4.311   8.300   7.596 -0.4866 -0.2663 -0.4490
 7501SOL    HW123284   4.348   8.254   7.671  0.4629  1.5379  0.2402
 7501SOL    HW223285   4.288   8.231   7.534  1.7684 -1.6086  0.1221
 7502SOL     OW23286   3.888   2.573   1.616 -0.0219  0.5372  0.2413
 7502SOL    HW123287   3.904   2.572   1.522  0.5632 -0.3583  0.3365
 7502SOL    HW223288   3.915   2.660   1.645  1.6899  0.1506 -0.1140
 7503SOL     OW23289   7.921   3.003   5.095 -0.1483 -0.1466 -0.4765
 7503SOL    HW123290   7.836   3.015   5.137 -0.1552 -0.6355 -0.3462
 7503SOL    HW223291   7.978   3.065   5.140 -0.1826 -0.5755  0.1815
 7504SOL     OW23292   3.584   2.932   0.418  0.2799 -0.4061 -0.1150
 7504SOL    HW123293   3.617   2.972   0.337 -0.4708 -0.6458 -0.5424
 7504SOL    HW223294   3.660   2.887   0.455  1.1689  1.4078  0.3997
 7505SOL     OW23295   3.466   7.781   1.650 -0.1030 -0.2452  0.4311
 7505SOL    HW123296   3.385   7.828   1.668 -0.6004 -0.9738  0.1481
 7505SOL    HW223297   3.534   7.849   1.647 -0.7539  0.4047  0.3531
 7506SOL     OW23298   0.277   1.381   5.441  0.3145 -0.6066  0.6270
 7506SOL    HW123299   0.193   1.346   5.471  0.0371 -0.4361  0.0639
 7506SOL    HW223300   0.330   1.303   5.423 -0.2379 -0.7633 -0.4423
 7507SOL     OW23301   7.842   1.520   3.882 -0.5011  0.4808  0.4746
 7507SOL    HW123302   7.869   1.431   3.862  0.2093  0.9289 -0.6877
 7507SOL    HW223303   7.823   1.559   3.796 -1.2459  1.3055  0.9936
 7508SOL     OW23304   5.263   7.031   4.175 -0.3916 -0.4180 -0.0022
 7508SOL    HW123305   5.259   7.118   4.137 -1.0607  0.3412  1.7053
 7508SOL    HW223306   5.329   6.985   4.123  0.2591  1.2125 -0.6799
 7509SOL     OW23307   8.285   2.438   5.735  0.4234 -0.2428  0.2693
 7509SOL    HW123308   8.300   2.388   5.815  0.9992 -0.5541 -0.0262
 7509SOL    HW223309   8.191   2.450   5.732  0.0951 -2.4479 -0.3074
 7510SOL     OW23310   0.940   7.454   4.759  0.4192  0.3528 -0.2665
 7510SOL    HW123311   1.004   7.473   4.828 -0.1729  0.5436  0.2452
 7510SOL    HW223312   0.973   7.500   4.682  0.6968  0.7632  0.0911
 7511SOL     OW23313   3.658   7.168   4.601  0.2817 -0.0214 -0.2296
 7511SOL    HW123314   3.620   7.251   4.629  0.8839 -0.3340  1.7048
 7511SOL    HW223315   3.750   7.174   4.625  0.3443 -1.2028 -0.0935
 7512SOL     OW23316   1.214   7.212   3.133  0.3242 -0.0971 -0.0022
 7512SOL    HW123317   1.137   7.170   3.095 -0.2490  1.0743 -0.1739
 7512SOL    HW223318   1.288   7.170   3.090 -0.2833  0.5723 -1.7923
 7513SOL     OW23319   1.114   3.690   7.510 -0.0742  0.1896 -0.0053
 7513SOL    HW123320   1.141   3.599   7.526  0.9398  0.3945 -0.4800
 7513SOL    HW223321   1.028   3.682   7.470 -0.4676 -0.5165  0.9263
 7514SOL     OW23322   8.079   7.241   6.477  0.2554  0.0980 -0.0420
 7514SOL    HW123323   8.168   7.253   6.510  0.7647 -2.1419 -0.3777
 7514SOL    HW223324   8.049   7.160   6.519 -2.0332  1.2796  0.7950
 7515SOL     OW23325   7.634   0.314   0.306 -0.0331  0.2627 -0.2910
 7515SOL    HW123326   7.573   0.278   0.242 -0.1352 -0.9921  0.4720
 7515SOL    HW223327   7.648   0.404   0.278  1.0271 -0.6350 -2.8803
 7516SOL     OW23328   1.282   1.504   5.072  0.6474  0.2220  0.3971
 7516SOL    HW123329   1.340   1.551   5.132  1.2739 -2.0273  1.6717
 7516SOL    HW223330   1.236   1.441   5.128  0.0218 -0.8301 -1.2398
 7517SOL     OW23331   2.840   4.514   4.726 -0.6753 -0.4546  0.3117
 7517SOL    HW123332   2.801   4.578   4.785 -0.2957 -0.0821  0.1703
 7517SOL    HW223333   2.835   4.554   4.640  0.2617 -0.2708  0.3308
 7518SOL     OW23334   0.014   0.442   0.189 -0.3195 -0.0550  0.0544
 7518SOL    HW123335   0.055   0.360   0.215 -0.3241  0.0002  0.2403
 7518SOL    HW223336  -0.072   0.440   0.232 -0.1886  0.1970  0.3369
 7519SOL     OW23337   4.560   6.669   2.314  0.5655 -0.5502  0.3573
 7519SOL    HW123338   4.650   6.661   2.283  0.0529 -0.5478 -1.1989
 7519SOL    HW223339   4.544   6.763   2.318  0.6984 -0.5469  0.8500
 7520SOL     OW23340   4.217   4.900   4.413 -0.3254 -0.4876  0.1616
 7520SOL    HW123341   4.292   4.853   4.375  0.3502  0.5992  0.1015
 7520SOL    HW223342   4.212   4.981   4.363 -1.3162 -0.3756  0.4278
 7521SOL     OW23343   6.977   6.233   2.537 -0.0342  0.7914 -0.4193
 7521SOL    HW123344   7.070   6.211   2.536 -0.0576  0.3756  1.4444
 7521SOL    HW223345   6.934   6.153   2.568 -0.4639  2.2864  3.3964
 7522SOL     OW23346   0.992   4.429   5.653  0.5449 -0.3733 -0.2025
 7522SOL    HW123347   1.040   4.499   5.696  2.0929 -0.9203 -0.9879
 7522SOL    HW223348   0.906   4.467   5.635  0.0864  0.1428  2.5609
 7523SOL     OW23349   3.001   7.821   2.574  0.5942 -0.0456  0.4748
 7523SOL    HW123350   3.063   7.855   2.508 -0.5012  0.4065 -0.3489
 7523SOL    HW223351   2.939   7.893   2.587  0.7702 -0.1345  2.0130
 7524SOL     OW23352   3.769   7.907   3.555  0.0210  0.0182 -0.2264
 7524SOL    HW123353   3.728   7.864   3.481  1.7868 -2.6542  0.2359
 7524SOL    HW223354   3.801   7.990   3.520 -2.2085  0.4378 -1.5030
 7525SOL     OW23355   0.212   0.631   5.749  0.0734 -0.2747 -0.0572
 7525SOL    HW123356   0.179   0.546   5.720 -1.3372 -0.3916  1.7161
 7525SOL    HW223357   0.275   0.609   5.818  0.5667  0.1059 -0.3796
 7526SOL     OW23358   4.803   3.446   5.774 -0.1446  0.1927 -0.2153
 7526SOL    HW123359   4.891   3.412   5.794 -0.7194 -1.2945 -0.0829
 7526SOL    HW223360   4.782   3.409   5.689 -1.1802 -0.6036  0.3643
 7527SOL     OW23361   0.373   3.592   8.056  0.0832 -0.4061  0.1700
 7527SOL    HW123362   0.295   3.640   8.030  0.2802  0.1797  0.6466
 7527SOL    HW223363   0.438   3.660   8.077 -0.2978 -0.8084  2.9120
 7528SOL     OW23364   5.544   1.041   7.622  0.2926  0.1376  0.1683
 7528SOL    HW123365   5.528   0.946   7.617 -0.4298  0.3028 -1.2153
 7528SOL    HW223366   5.502   1.076   7.543  0.0482  1.6869  0.9547
 7529SOL     OW23367   5.541   2.030   7.236  0.0518 -0.1582  0.2160
 7529SOL    HW123368   5.545   1.935   7.220 -0.8470 -0.1346 -0.2481
 7529SOL    HW223369   5.558   2.069   7.150  2.6290  0.1863  0.8063
 7530SOL     OW23370   0.809   1.222   4.002 -0.1057 -0.0768  0.1633
 7530SOL    HW123371   0.856   1.139   3.994  1.2484  0.7512 -0.8720
 7530SOL    HW223372   0.750   1.209   4.077 -0.6363 -2.2831 -0.5670
 7531SOL     OW23373   2.347   5.751   2.896 -0.6837 -0.2075  0.1318
 7531SOL    HW123374   2.253   5.750   2.914 -0.4721 -0.9889  1.3737
 7531SOL    HW223375   2.367   5.842   2.877 -1.6240  0.0498  0.3202
 7532SOL     OW23376   1.759   5.696   1.346 -0.3883 -0.3012  0.1818
 7532SOL    HW123377   1.707   5.726   1.421 -0.1944 -0.6597  0.4631
 7532SOL    HW223378   1.847   5.728   1.363  0.0147 -1.6992  0.9064
 7533SOL     OW23379   7.951   7.791   1.298  0.3671  0.1626 -0.3858
 7533SOL    HW123380   7.883   7.855   1.322 -0.2993 -0.2295 -1.1861
 7533SOL    HW223381   7.957   7.798   1.203  0.9442 -0.3241 -0.3866
 7534SOL     OW23382   7.833   3.763   0.964 -0.2610  0.0916 -0.1062
 7534SOL    HW123383   7.908   3.793   1.015 -0.9006  0.8037  0.4342
 7534SOL    HW223384   7.802   3.841   0.918 -0.6973 -0.1826 -0.2843
 7535SOL     OW23385   2.179   1.224   4.722 -0.1836  0.1774  0.1899
 7535SOL    HW123386   2.219   1.206   4.807 -1.2753 -1.4738  0.4075
 7535SOL    HW223387   2.203   1.148   4.669 -0.3300  0.7271 -0.6760
 7536SOL     OW23388   4.102   5.847   0.049  0.4235  0.2032  0.0868
 7536SOL    HW123389   4.056   5.889  -0.024  0.6557  2.1245  0.9843
 7536SOL    HW223390   4.053   5.767   0.066 -1.1738  1.0178 -0.5148
 7537SOL     OW23391   7.187   7.766   3.314  0.2530 -0.3232  0.4417
 7537SOL    HW123392   7.155   7.682   3.347  1.5965 -1.0882 -0.1348
 7537SOL    HW223393   7.136   7.780   3.234 -1.3201  0.3816  1.5018
 7538SOL     OW23394   4.618   7.529   2.344  0.0967 -0.3916 -0.1032
 7538SOL    HW123395   4.551   7.473   2.385  0.5320  0.5492  2.0393
 7538SOL    HW223396   4.662   7.471   2.281  2.0538 -3.3585  3.5584
 7539SOL     OW23397   2.533   2.910   5.145 -0.0238 -0.0378  0.8691
 7539SOL    HW123398   2.511   2.973   5.076  0.4207 -0.8463 -0.0311
 7539SOL    HW223399   2.451   2.898   5.193 -0.6742 -0.3853 -0.2890
 7540SOL     OW23400   2.337   7.317   6.922 -0.7603 -0.2792  0.1550
 7540SOL    HW123401   2.301   7.256   6.985  1.4456  0.4094  2.2303
 7540SOL    HW223402   2.327   7.403   6.963  1.2868  0.1265 -0.0435
 7541SOL     OW23403   6.271   2.707   7.337 -0.4902 -0.5821 -0.0692
 7541SOL    HW123404   6.278   2.626   7.287  1.2661 -0.0967 -0.6971
 7541SOL    HW223405   6.271   2.776   7.270 -0.3215 -0.0054  0.5189
 7542SOL     OW23406   4.767   5.672   1.349 -0.6577  0.8133 -0.2087
 7542SOL    HW123407   4.832   5.708   1.409 -1.7239  2.7326 -0.1147
 7542SOL    HW223408   4.817   5.646   1.271  0.6923 -1.3663  1.2845
 7543SOL     OW23409   6.044   4.831   4.454  0.2071  0.3379  0.1269
 7543SOL    HW123410   6.093   4.762   4.497  1.0827  0.5381 -0.5187
 7543SOL    HW223411   5.953   4.817   4.482  0.8094  0.9182  2.6068
 7544SOL     OW23412   5.643   3.300   5.911  0.5142  0.3098 -0.5768
 7544SOL    HW123413   5.554   3.303   5.875  0.8170  0.1985 -1.3446
 7544SOL    HW223414   5.679   3.218   5.880  0.3749 -0.3843  1.0019
 7545SOL     OW23415   6.808   5.521   0.220 -0.1493  0.1487 -0.7421
 7545SOL    HW123416   6.878   5.471   0.262 -0.3291  0.2903 -0.2719
 7545SOL    HW223417   6.854   5.594   0.178 -0.1657  1.2791  1.0938
 7546SOL     OW23418   1.737   1.720   3.337  0.2175  0.8250 -0.3255
 7546SOL    HW123419   1.737   1.631   3.373 -1.0637  0.9531  0.0404
 7546SOL    HW223420   1.661   1.722   3.279  1.5669  0.9883 -2.1832
 7547SOL     OW23421   0.164   2.159   5.825 -0.0033 -0.0193 -0.2051
 7547SOL    HW123422   0.103   2.103   5.778 -0.9888 -1.1629  2.3008
 7547SOL    HW223423   0.111   2.202   5.892  1.6276  0.2161  0.9872
 7548SOL     OW23424   4.684   1.021   1.789 -0.0322 -0.5689  0.0650
 7548SOL    HW123425   4.765   1.072   1.794 -0.3994 -0.0745  1.7935
 7548SOL    HW223426   4.656   1.013   1.880 -0.6857 -2.7676 -0.2845
 7549SOL     OW23427   4.822   4.409   5.179  0.4301  0.1753 -0.0371
 7549SOL    HW123428   4.893   4.374   5.124  0.9307 -0.2849  0.8797
 7549SOL    HW223429   4.751   4.345   5.170  0.5930 -0.0166  0.0306
 7550SOL     OW23430   3.004   2.509   1.215 -0.5255  0.3042 -0.3870
 7550SOL    HW123431   3.054   2.460   1.149  0.6155 -1.1085  1.4301
 7550SOL    HW223432   2.935   2.448   1.243  0.3698 -0.0073  1.2705
 7551SOL     OW23433   0.342   2.815   5.518 -0.0497 -0.7125 -0.0344
 7551SOL    HW123434   0.318   2.899   5.556 -0.5187 -1.1457  0.6498
 7551SOL    HW223435   0.413   2.782   5.574  0.0119 -0.8532 -0.1930
 7552SOL     OW23436   7.827   2.585   4.439  1.1331  0.0104  0.2618
 7552SOL    HW123437   7.827   2.681   4.430 -1.7425 -0.0077 -1.5920
 7552SOL    HW223438   7.890   2.555   4.374  0.4042  0.6599 -0.7903
 7553SOL     OW23439   7.266   6.045   2.026 -0.5134 -0.2198 -0.2250
 7553SOL    HW123440   7.175   6.074   2.013 -0.6915 -0.3070  0.8036
 7553SOL    HW223441   7.273   6.027   2.119  0.6060 -0.0936 -0.2719
 7554SOL     OW23442   6.908   1.112   6.118 -0.4355  0.1725  0.3613
 7554SOL    HW123443   6.983   1.165   6.089  0.3784 -0.0643  1.9319
 7554SOL    HW223444   6.840   1.176   6.139 -0.1601  0.4825  0.3187
 7555SOL     OW23445   4.944   5.576   0.163 -0.1399 -0.0345 -0.1629
 7555SOL    HW123446   4.960   5.546   0.074 -1.8201 -1.4810 -0.0200
 7555SOL    HW223447   4.922   5.497   0.212  0.4968  0.7633  1.5022
 7556SOL     OW23448   3.845   7.338   6.405 -0.1509  0.0970 -0.0604
 7556SOL    HW123449   3.861   7.292   6.487 -0.3656  0.0192 -0.0601
 7556SOL    HW223450   3.829   7.428   6.431  1.9611  0.5534 -0.1934
 7557SOL     OW23451   6.165   6.329   3.345  0.2482 -0.3139 -0.1098
 7557SOL    HW123452   6.256   6.361   3.345  0.6778 -1.4818 -0.8964
 7557SOL    HW223453   6.123   6.378   3.416  1.5443  0.0874  0.4153
 7558SOL     OW23454   1.511   7.354   0.392  0.2877  0.5321  0.3124
 7558SOL    HW123455   1.600   7.388   0.402  0.1179  0.6899  1.3373
 7558SOL    HW223456   1.458   7.431   0.369  0.2744  0.5777  0.4979
 7559SOL     OW23457   4.965   6.322   6.139 -0.3085  1.1095  0.3573
 7559SOL    HW123458   4.871   6.333   6.150 -0.5712  0.7809 -1.3014
 7559SOL    HW223459   4.996   6.408   6.110 -0.3488  0.8387 -0.5166
 7560SOL     OW23460   5.527   0.508   4.937  0.3157 -0.1202  0.0426
 7560SOL    HW123461   5.468   0.468   5.001  0.9509  1.0981  1.4733
 7560SOL    HW223462   5.569   0.434   4.893 -0.5638 -0.9954  0.6451
 7561SOL     OW23463   2.309   6.201   2.518 -0.0283  0.3484 -0.0244
 7561SOL    HW123464   2.240   6.169   2.461 -0.5533 -1.0734  1.3321
 7561SOL    HW223465   2.263   6.242   2.591  0.4417 -1.4046  1.3503
 7562SOL     OW23466   2.696   1.711   2.628  0.2657 -0.2098 -0.7837
 7562SOL    HW123467   2.717   1.656   2.703 -2.2340 -1.1250 -0.6643
 7562SOL    HW223468   2.727   1.799   2.652 -1.0146 -0.3434  1.6091
 7563SOL     OW23469   0.205   6.504   5.096 -0.3129 -0.1521  0.4867
 7563SOL    HW123470   0.256   6.579   5.068 -2.1972  0.6165 -1.2067
 7563SOL    HW223471   0.255   6.428   5.066  1.1083  0.4265  1.3004
 7564SOL     OW23472   3.636   0.312   0.305  0.4956 -0.0761 -0.1640
 7564SOL    HW123473   3.661   0.389   0.355  0.1719 -0.2556  0.2833
 7564SOL    HW223474   3.644   0.338   0.213 -1.7447  1.1983 -0.0562
 7565SOL     OW23475   1.753   5.232   5.429 -0.1375  0.3415 -0.8146
 7565SOL    HW123476   1.701   5.152   5.424 -0.7509  0.4778  1.9518
 7565SOL    HW223477   1.757   5.252   5.522  4.5307  0.5796 -0.8478
 7566SOL     OW23478   7.056   0.505   4.771 -0.0517  0.5884  0.4667
 7566SOL    HW123479   7.079   0.598   4.765  0.2185  0.5739  1.1241
 7566SOL    HW223480   6.993   0.500   4.843 -0.9660  0.4177 -0.3408
 7567SOL     OW23481   0.930   6.482   5.170  0.0050  0.1314  0.4010
 7567SOL    HW123482   0.924   6.403   5.224  2.6439 -0.4493 -0.0465
 7567SOL    HW223483   1.011   6.473   5.121 -1.0135  1.8311 -1.8240
 7568SOL     OW23484   5.380   2.627   1.319 -0.2070 -0.6979  0.4793
 7568SOL    HW123485   5.304   2.683   1.299  0.6102  1.8484  3.7026
 7568SOL    HW223486   5.379   2.618   1.414  4.1129  0.4867  0.8380
 7569SOL     OW23487   5.069   1.128   4.930  0.4116  0.3692 -0.1465
 7569SOL    HW123488   5.009   1.160   4.863  0.8753 -0.3852 -0.9514
 7569SOL    HW223489   5.129   1.200   4.946  0.3137  0.5466 -0.5743
 7570SOL     OW23490   3.025   7.330   7.736  0.0329 -0.7689 -0.2702
 7570SOL    HW123491   3.081   7.315   7.812  0.6060 -0.0758 -0.5436
 7570SOL    HW223492   3.023   7.245   7.691 -1.6264 -1.6520  1.3444
 7571SOL     OW23493   3.903   3.445   3.810  0.4782 -0.1726  0.0332
 7571SOL    HW123494   3.945   3.456   3.896 -1.3461  1.2351  0.8148
 7571SOL    HW223495   3.918   3.353   3.788  0.1477 -0.8418  2.3450
 7572SOL     OW23496   2.287   5.980   3.408 -0.0324 -0.2081 -0.2198
 7572SOL    HW123497   2.349   5.909   3.425 -0.5215 -0.5826  0.0516
 7572SOL    HW223498   2.341   6.058   3.398  0.3819 -0.0231  2.5762
 7573SOL     OW23499   3.320   2.719   6.578  0.4762 -0.9296 -0.2357
 7573SOL    HW123500   3.387   2.663   6.618  1.7141  1.0727  0.6487
 7573SOL    HW223501   3.364   2.802   6.563 -2.1485  1.0153  1.7944
 7574SOL     OW23502   2.740   2.849   1.854  0.2076  0.3502  0.3844
 7574SOL    HW123503   2.788   2.772   1.885  0.3273 -0.3102 -1.3185
 7574SOL    HW223504   2.807   2.917   1.847  0.6449 -0.1625 -0.6157
 7575SOL     OW23505   7.689   0.061   4.645  0.0774 -0.0035  0.1771
 7575SOL    HW123506   7.778   0.035   4.623  0.9489  1.4047  1.7963
 7575SOL    HW223507   7.697   0.151   4.677 -2.0464  0.4420 -0.3878
 7576SOL     OW23508   4.781   7.962   7.442 -0.4603 -0.4954  0.2614
 7576SOL    HW123509   4.774   7.875   7.403 -0.0897 -1.5606  2.3852
 7576SOL    HW223510   4.776   7.946   7.537 -1.7213  1.9399  0.6964
 7577SOL     OW23511   1.787   1.163   3.160 -0.4704  0.3816 -0.1475
 7577SOL    HW123512   1.717   1.102   3.136  0.2882 -0.0647 -1.2941
 7577SOL    HW223513   1.860   1.107   3.185 -0.2986  0.8461  0.4308
 7578SOL     OW23514   6.768   1.627   5.605 -0.0033 -0.1198 -0.2799
 7578SOL    HW123515   6.816   1.650   5.685  1.1298  1.0876 -1.2784
 7578SOL    HW223516   6.805   1.682   5.537 -1.4381 -0.6099 -1.5279
 7579SOL     OW23517   3.547   7.825   6.407  0.0238 -0.2045 -0.5402
 7579SOL    HW123518   3.462   7.867   6.397 -0.6182 -1.3844 -0.2528
 7579SOL    HW223519   3.543   7.782   6.493  0.0363 -2.1278 -1.4487
 7580SOL     OW23520   8.144   0.060   4.254  0.5234 -0.2337  0.3770
 7580SOL    HW123521   8.151   0.111   4.174  0.1226 -1.8111 -0.7209
 7580SOL    HW223522   8.207   0.100   4.314 -2.1650  3.7445  0.9162
 7581SOL     OW23523   0.664   7.866   5.830  0.6997 -0.2109  0.0294
 7581SOL    HW123524   0.705   7.912   5.903 -0.0022 -0.0208  0.3142
 7581SOL    HW223525   0.629   7.786   5.868  0.5870 -0.2502 -0.1544
 7582SOL     OW23526   3.191   1.706   0.720 -0.3826 -0.4719  0.8100
 7582SOL    HW123527   3.267   1.684   0.775 -1.1974  0.9220  2.6015
 7582SOL    HW223528   3.229   1.734   0.637  1.0858 -0.0296  1.5874
 7583SOL     OW23529   5.817   0.286   0.606 -0.3004  0.2665 -0.4224
 7583SOL    HW123530   5.883   0.338   0.651  0.7473 -0.2028 -1.3591
 7583SOL    HW223531   5.841   0.291   0.513 -0.3637 -1.5670 -0.5792
 7584SOL     OW23532   0.805   0.182   5.993  0.3555  0.0499  0.0915
 7584SOL    HW123533   0.784   0.140   6.077  2.1475  0.8827  1.0067
 7584SOL    HW223534   0.764   0.125   5.928 -2.6641  0.3658  1.5640
 7585SOL     OW23535   0.746   4.073   4.631  0.3393 -0.0634  0.1695
 7585SOL    HW123536   0.774   4.081   4.540  1.6450  1.1955  0.6401
 7585SOL    HW223537   0.759   3.981   4.653 -0.3059 -0.4484 -0.9891
 7586SOL     OW23538   3.043   5.927   6.759 -0.1053  0.3622  0.4516
 7586SOL    HW123539   3.120   5.923   6.702 -0.4630  2.0458 -0.2109
 7586SOL    HW223540   3.079   5.943   6.846  0.4092 -1.5724  0.6428
 7587SOL     OW23541   2.555   0.441   3.676  0.0279 -0.5149 -0.0488
 7587SOL    HW123542   2.555   0.373   3.743  1.4228 -0.0191  0.4919
 7587SOL    HW223543   2.645   0.446   3.646  0.5734  2.6364  1.6121
 7588SOL     OW23544   0.641   7.558   0.489  0.1304  0.4941 -0.1756
 7588SOL    HW123545   0.725   7.539   0.531  0.2703  1.2570 -0.1062
 7588SOL    HW223546   0.578   7.557   0.561  0.6681  3.9537  0.5020
 7589SOL     OW23547   2.829   5.563   6.497  0.1067 -0.2856 -0.1632
 7589SOL    HW123548   2.746   5.523   6.470 -0.0427 -1.2964  1.6699
 7589SOL    HW223549   2.839   5.638   6.439 -2.2471  0.0480 -0.2257
 7590SOL     OW23550   7.378   0.528   2.733 -0.5698 -0.2344  0.3121
 7590SOL    HW123551   7.396   0.454   2.676  0.7694 -0.2864  0.7613
 7590SOL    HW223552   7.433   0.513   2.810  1.1375  2.0755 -0.3248
 7591SOL     OW23553   3.411   7.761   5.810  0.8504 -0.1173 -0.3565
 7591SOL    HW123554   3.364   7.679   5.798  1.6292 -0.6517  0.2105
 7591SOL    HW223555   3.436   7.762   5.902 -0.6087  1.5462  0.0841
 7592SOL     OW23556   4.590   5.302   7.602 -0.5220  0.7614 -0.2461
 7592SOL    HW123557   4.640   5.220   7.594  0.2658  1.1131  0.8834
 7592SOL    HW223558   4.628   5.359   7.536 -1.1836  0.1863 -1.1558
 7593SOL     OW23559   5.099   2.634   1.546 -0.1363 -0.1690  0.1998
 7593SOL    HW123560   5.166   2.568   1.528  0.8596  0.5211  1.2639
 7593SOL    HW223561   5.146   2.718   1.543 -1.3757  0.5406 -1.1751
 7594SOL     OW23562   7.437   7.680   5.720  0.0139 -0.0640 -0.8073
 7594SOL    HW123563   7.374   7.634   5.664  1.2271 -1.7365 -0.8593
 7594SOL    HW223564   7.391   7.691   5.803 -0.4574 -1.0204 -0.9270
 7595SOL     OW23565   7.498   7.949   2.943 -0.0269  0.2222 -0.0571
 7595SOL    HW123566   7.573   7.891   2.931  0.1134  0.9555 -3.7248
 7595SOL    HW223567   7.532   8.019   2.999  1.8892  0.2454 -1.1565
 7596SOL     OW23568   3.389   2.055   7.624 -0.2397  0.0403  0.5153
 7596SOL    HW123569   3.416   2.079   7.535  0.7091  0.9692  1.0402
 7596SOL    HW223570   3.309   2.004   7.611  0.2103 -0.3614 -0.9105
 7597SOL     OW23571   1.845   4.213   1.318 -0.1707  0.2608 -0.0272
 7597SOL    HW123572   1.900   4.156   1.372 -2.1501 -0.9746  0.8307
 7597SOL    HW223573   1.837   4.294   1.370 -0.1054  0.0010  0.3961
 7598SOL     OW23574   1.213   2.235   2.465 -0.3006 -0.6201 -0.3185
 7598SOL    HW123575   1.232   2.304   2.529 -0.4873 -0.6158 -0.2676
 7598SOL    HW223576   1.298   2.215   2.425  0.3852 -2.5444  1.8607
 7599SOL     OW23577   3.605   0.720   4.795 -0.0214 -0.3393  0.3393
 7599SOL    HW123578   3.541   0.701   4.726 -0.3167 -0.7082  0.7053
 7599SOL    HW223579   3.651   0.637   4.808  1.1052  0.1318 -0.4844
 7600SOL     OW23580   3.409   3.920   6.260  1.0032  0.0027 -0.3313
 7600SOL    HW123581   3.341   3.986   6.272  1.7449  0.7474 -0.1025
 7600SOL    HW223582   3.364   3.845   6.222  0.2714  0.9372 -1.3878
 7601SOL     OW23583   5.607   2.824   0.825  0.6179 -0.4410  0.0577
 7601SOL    HW123584   5.593   2.730   0.815  0.6236 -0.5283  0.7906
 7601SOL    HW223585   5.538   2.864   0.772  0.9532 -0.8524 -0.7011
 7602SOL     OW23586   2.669   2.278   2.682  0.1290 -0.3077  0.2687
 7602SOL    HW123587   2.655   2.271   2.588  1.0277 -1.1527  0.1768
 7602SOL    HW223588   2.617   2.354   2.709  0.4076  0.3699 -1.0250
 7603SOL     OW23589   3.611   0.978   3.181  0.1415 -0.0874 -0.1220
 7603SOL    HW123590   3.540   1.030   3.143  2.8814  1.9302 -3.0646
 7603SOL    HW223591   3.604   0.893   3.137 -1.2006 -0.4319  0.6936
 7604SOL     OW23592   6.605   6.225   7.958  0.6393 -0.3482  0.0541
 7604SOL    HW123593   6.583   6.153   7.898 -1.9310  0.4393 -0.0763
 7604SOL    HW223594   6.577   6.194   8.044  1.4785 -0.2929  0.3561
 7605SOL     OW23595   0.195   3.807   0.831 -0.5093 -0.3929  0.4267
 7605SOL    HW123596   0.280   3.849   0.846 -1.0332  1.2139 -0.7831
 7605SOL    HW223597   0.212   3.744   0.761 -0.2404 -0.3674  0.4677
 7606SOL     OW23598   1.202   3.068   5.834 -0.2587 -0.4032 -0.1151
 7606SOL    HW123599   1.147   2.991   5.824  0.0726 -0.4655 -1.8133
 7606SOL    HW223600   1.275   3.038   5.889 -1.2667 -0.6377  1.1476
 7607SOL     OW23601   1.865   7.537   7.528 -0.1634  0.2086 -0.3198
 7607SOL    HW123602   1.788   7.509   7.478  1.1004  0.4194 -2.4888
 7607SOL    HW223603   1.938   7.489   7.490  1.0882  1.4659  0.3696
 7608SOL     OW23604   5.340   3.715   2.710  0.0141 -0.6775 -0.0847
 7608SOL    HW123605   5.334   3.763   2.793 -1.5781 -2.0704  0.6669
 7608SOL    HW223606   5.346   3.783   2.643 -0.5991  0.5216  1.0349
 7609SOL     OW23607   5.268   6.545   7.494  0.3045 -0.0156 -0.1566
 7609SOL    HW123608   5.280   6.454   7.520 -1.0470 -0.2529 -0.3154
 7609SOL    HW223609   5.285   6.546   7.400 -0.8541 -0.3526 -0.3843
 7610SOL     OW23610   1.887   7.160   5.615 -0.2117  0.0904 -0.6209
 7610SOL    HW123611   1.807   7.108   5.629 -1.3539  1.8784 -0.2083
 7610SOL    HW223612   1.951   7.121   5.674 -1.3084 -0.2872  0.3627
 7611SOL     OW23613   7.001   7.923   3.495 -0.8792  0.3849  0.7472
 7611SOL    HW123614   7.082   7.899   3.449 -0.9136 -0.7791  1.2472
 7611SOL    HW223615   6.931   7.891   3.438 -0.9174 -1.9022  1.9287
 7612SOL     OW23616   0.461   0.319   0.461  0.1365  0.4350 -0.0649
 7612SOL    HW123617   0.432   0.382   0.396 -2.3905 -0.1287  0.3941
 7612SOL    HW223618   0.544   0.353   0.494 -0.9880  3.3712 -0.0351
 7613SOL     OW23619   5.840   3.486   4.073 -0.0484  0.0274 -0.0635
 7613SOL    HW123620   5.775   3.537   4.121 -1.5816 -0.8907 -1.0775
 7613SOL    HW223621   5.882   3.433   4.140  1.3688  2.3026  0.9691
 7614SOL     OW23622   7.613   3.881   3.078 -0.2112  0.4705  0.2396
 7614SOL    HW123623   7.571   3.899   2.993 -0.1518  1.7618  0.4601
 7614SOL    HW223624   7.540   3.874   3.140 -0.1919  0.9680  0.3225
 7615SOL     OW23625   4.669   6.142   1.808  0.2582  0.2429  0.1106
 7615SOL    HW123626   4.765   6.152   1.806  0.3771 -0.7539  0.2599
 7615SOL    HW223627   4.646   6.111   1.721  0.3637 -1.7008  0.7213
 7616SOL     OW23628   6.246   3.957   0.718  0.0890 -0.4971  0.4188
 7616SOL    HW123629   6.315   3.916   0.664 -0.0208  0.9140 -0.8510
 7616SOL    HW223630   6.229   4.041   0.675 -2.9930 -1.1218  0.2269
 7617SOL     OW23631   3.250   3.675   3.930  0.5092  0.2839  0.4744
 7617SOL    HW123632   3.284   3.710   4.012 -0.4593 -0.8130  1.3663
 7617SOL    HW223633   3.251   3.580   3.942 -0.6555  0.1433 -0.3606
 7618SOL     OW23634   2.923   2.252   4.291 -0.1349  0.1356  0.2080
 7618SOL    HW123635   2.888   2.175   4.245  0.1257 -0.0190  0.2695
 7618SOL    HW223636   2.887   2.246   4.379 -1.0743  0.7214 -0.1214
 7619SOL     OW23637   6.366   3.303   3.288 -0.4708 -0.0958  0.1777
 7619SOL    HW123638   6.437   3.239   3.295 -1.0431 -0.6689  0.9138
 7619SOL    HW223639   6.321   3.297   3.372 -1.0132  0.7172 -0.0471
 7620SOL     OW23640   0.873   1.871   5.359 -0.2136 -0.2483  0.1365
 7620SOL    HW123641   0.805   1.807   5.336 -0.1248  0.3734 -2.0865
 7620SOL    HW223642   0.830   1.929   5.422 -1.1137 -1.0070  0.2459
 7621SOL     OW23643   5.340   6.325   3.499 -0.3011  0.2906  0.6642
 7621SOL    HW123644   5.342   6.230   3.506  1.0476  0.3122  0.8508
 7621SOL    HW223645   5.356   6.356   3.589  1.0031  0.6615  0.3287
 7622SOL     OW23646   7.880   8.154   4.571 -0.3245 -0.2965 -0.2950
 7622SOL    HW123647   7.946   8.092   4.541  0.6527 -0.3420  1.7795
 7622SOL    HW223648   7.927   8.237   4.578 -1.2399  0.3660 -1.5460
 7623SOL     OW23649   1.986   7.635   2.775  0.0224  0.3588 -0.1923
 7623SOL    HW123650   1.944   7.610   2.693 -0.3489  0.3694 -0.0078
 7623SOL    HW223651   1.915   7.671   2.829  0.5273  1.8582 -0.4635
 7624SOL     OW23652   6.090   0.776   5.405 -0.7261 -0.6757  0.6589
 7624SOL    HW123653   6.054   0.814   5.485 -1.4235  1.3244 -0.5283
 7624SOL    HW223654   6.018   0.781   5.342  0.0232 -1.5935 -0.3022
 7625SOL     OW23655   2.440   3.828   2.309 -0.4355  0.2197 -0.3423
 7625SOL    HW123656   2.484   3.744   2.296 -0.7713  0.1454 -0.9847
 7625SOL    HW223657   2.353   3.816   2.272 -0.3538  0.9733 -0.7951
 7626SOL     OW23658   5.591   4.870   4.595  0.1980 -0.4758 -0.3240
 7626SOL    HW123659   5.626   4.926   4.525 -2.0913  0.3467 -0.8735
 7626SOL    HW223660   5.617   4.914   4.676 -0.3985  0.6445 -0.7307
 7627SOL     OW23661   5.235   5.772   7.544  0.0896  0.1613 -0.0810
 7627SOL    HW123662   5.197   5.709   7.605  0.0032  0.6769  0.4065
 7627SOL    HW223663   5.327   5.778   7.569  0.1029  0.2111 -0.1423
 7628SOL     OW23664   1.323   1.484   1.305 -0.0215  0.0758 -0.1019
 7628SOL    HW123665   1.374   1.406   1.328 -0.1516  0.4191  1.4292
 7628SOL    HW223666   1.371   1.521   1.230  1.3485 -0.2241  0.5845
 7629SOL     OW23667   7.696   2.467   0.900  0.4361  0.4638  0.5735
 7629SOL    HW123668   7.648   2.385   0.907 -1.6255  1.5331 -0.1037
 7629SOL    HW223669   7.693   2.489   0.807  1.7316  0.8806  0.6100
 7630SOL     OW23670   1.250   6.949   8.318 -0.5502 -0.2919 -0.9681
 7630SOL    HW123671   1.257   7.003   8.240 -1.1818  0.0977 -0.7595
 7630SOL    HW223672   1.340   6.927   8.340 -0.1893  1.6376 -0.3907
 7631SOL     OW23673   4.873   2.563   6.069 -0.6576 -0.1016  0.2085
 7631SOL    HW123674   4.969   2.569   6.064 -0.7624  0.9013 -0.7441
 7631SOL    HW223675   4.849   2.503   5.999 -0.7888  0.3264 -0.1161
 7632SOL     OW23676   5.253   0.891   0.236 -0.8157  0.2150  0.1788
 7632SOL    HW123677   5.166   0.863   0.264 -0.6759 -0.3298  0.0776
 7632SOL    HW223678   5.313   0.831   0.279 -0.5387  0.0351 -0.4417
 7633SOL     OW23679   0.780   0.779   3.507  0.0942 -0.3005 -0.0424
 7633SOL    HW123680   0.759   0.699   3.555 -0.2479  0.2566  0.7622
 7633SOL    HW223681   0.830   0.749   3.431 -0.6295 -1.3400 -0.1362
 7634SOL     OW23682   0.698   1.546   1.901 -0.5305  0.2709  0.5916
 7634SOL    HW123683   0.737   1.629   1.872 -1.6350  0.6153  0.0377
 7634SOL    HW223684   0.771   1.497   1.939  0.4130  0.9402 -0.3012
 7635SOL     OW23685   6.911   2.143   1.258  0.2274 -0.7535  0.1132
 7635SOL    HW123686   6.818   2.123   1.245 -0.0924  0.2296  0.7824
 7635SOL    HW223687   6.930   2.211   1.193 -0.8265  2.6169  3.0315
 7636SOL     OW23688   3.926   5.078   3.988  0.1065  0.4602 -0.3167
 7636SOL    HW123689   3.880   5.155   3.955  1.0972  0.5737 -1.5279
 7636SOL    HW223690   3.946   5.099   4.079  1.2337  2.1101 -0.8781
 7637SOL     OW23691   1.054   6.383   0.825  0.0978 -0.1699  0.6379
 7637SOL    HW123692   1.008   6.461   0.793 -0.3368 -0.9222 -0.6143
 7637SOL    HW223693   1.144   6.395   0.796  0.0167 -0.1658  0.3863
 7638SOL     OW23694   8.294   6.636   5.861  0.2866 -0.0335 -0.0499
 7638SOL    HW123695   8.319   6.723   5.892  0.6585 -0.0370 -0.3377
 7638SOL    HW223696   8.377   6.591   5.848  0.1185 -1.3613  2.6614
 7639SOL     OW23697   4.690   8.263   2.807 -0.0684  0.3054  0.3051
 7639SOL    HW123698   4.670   8.349   2.771  1.1809  0.6421  0.3867
 7639SOL    HW223699   4.783   8.250   2.791 -0.2230 -1.0327  0.3135
 7640SOL     OW23700   4.701   4.191   4.463 -0.1246 -0.3719  0.1396
 7640SOL    HW123701   4.770   4.191   4.529 -0.2691 -0.8687  0.3013
 7640SOL    HW223702   4.725   4.260   4.402  0.3004 -0.2735  0.4178
 7641SOL     OW23703   2.762   7.897   0.936 -0.0106  0.2962 -0.3524
 7641SOL    HW123704   2.835   7.942   0.978 -0.4881  1.8795 -1.1382
 7641SOL    HW223705   2.697   7.887   1.005  0.3558  0.2280 -0.0154
 7642SOL     OW23706   3.328   0.477   6.488 -0.6232 -0.2097  0.4023
 7642SOL    HW123707   3.385   0.432   6.426  0.7199  0.8059  0.8657
 7642SOL    HW223708   3.258   0.515   6.434 -1.4393 -2.2255 -0.0725
 7643SOL     OW23709   8.278   3.169   7.749  0.2143 -0.3318 -0.0216
 7643SOL    HW123710   8.335   3.227   7.800 -0.2700  0.5506 -0.4646
 7643SOL    HW223711   8.259   3.096   7.808 -1.2470  1.2016  1.5141
 7644SOL     OW23712   4.036   4.334   0.439 -0.5673  0.1226 -0.1334
 7644SOL    HW123713   4.111   4.327   0.498 -0.2820 -0.9795 -0.5998
 7644SOL    HW223714   4.070   4.378   0.362 -0.4638 -0.1294 -0.2329
 7645SOL     OW23715   6.710   1.563   1.881 -0.1217 -0.4372  0.1604
 7645SOL    HW123716   6.679   1.622   1.812 -0.2389 -0.7893 -0.0899
 7645SOL    HW223717   6.639   1.500   1.892 -0.2785 -0.1394  0.8932
 7646SOL     OW23718   7.907   2.565   7.739  0.1896  0.7082  0.3720
 7646SOL    HW123719   7.817   2.533   7.734  0.1895  0.2853  2.1437
 7646SOL    HW223720   7.899   2.656   7.767  0.2980  0.9902 -0.4937
 7647SOL     OW23721   4.916   1.462   0.990 -0.2954 -0.6686  0.1132
 7647SOL    HW123722   4.936   1.538   0.936 -0.3415  0.3984  1.5379
 7647SOL    HW223723   4.827   1.438   0.964 -0.5547  0.2123  0.1298
 7648SOL     OW23724   3.237   0.996   5.699  0.8584 -0.2940  0.2741
 7648SOL    HW123725   3.306   0.998   5.633  1.2315  1.4418  0.6686
 7648SOL    HW223726   3.174   1.062   5.670 -0.6146 -1.7421 -0.0114
 7649SOL     OW23727   4.336   7.720   2.474  0.0537 -0.0398 -0.1038
 7649SOL    HW123728   4.424   7.685   2.483  0.1678  0.3877  0.5263
 7649SOL    HW223729   4.327   7.741   2.381  0.0781 -1.4571 -0.4576
 7650SOL     OW23730   4.182   2.053   7.493 -0.0079 -0.1656  0.1094
 7650SOL    HW123731   4.227   2.107   7.558  0.1992  1.1921 -1.1069
 7650SOL    HW223732   4.241   1.979   7.479  1.3170  0.9458 -0.5347
 7651SOL     OW23733   2.015   2.349   6.709  0.4139  0.1054 -0.0752
 7651SOL    HW123734   1.939   2.373   6.655  0.2315  1.1433  0.6138
 7651SOL    HW223735   2.014   2.253   6.711  0.8395 -0.0147 -2.4967
 7652SOL     OW23736   6.752   7.834   2.736  0.1730 -0.1512  0.1591
 7652SOL    HW123737   6.694   7.904   2.704  1.1480  0.8211  0.4204
 7652SOL    HW223738   6.780   7.864   2.822  1.7112 -0.1526 -0.3024
 7653SOL     OW23739   1.163   1.322   0.572 -0.1345 -0.3436  0.2011
 7653SOL    HW123740   1.127   1.247   0.621 -0.3426 -0.7748 -0.5895
 7653SOL    HW223741   1.233   1.284   0.519  0.0634  0.1105  0.1384
 7654SOL     OW23742   2.875   0.485   0.821 -0.1784 -0.0802  0.1321
 7654SOL    HW123743   2.896   0.540   0.745 -1.7207  0.4172  0.0328
 7654SOL    HW223744   2.937   0.513   0.889  1.8048 -1.1316 -1.1593
 7655SOL     OW23745   4.169   3.878   0.671 -0.2194 -0.4918 -0.1641
 7655SOL    HW123746   4.219   3.800   0.643 -1.7529 -1.2341 -0.9681
 7655SOL    HW223747   4.221   3.916   0.742  1.5827 -1.1025 -1.0968
 7656SOL     OW23748   2.080   3.522   2.009  0.0457 -0.0655  0.0225
 7656SOL    HW123749   2.133   3.528   1.930  0.2921 -1.8544  0.0129
 7656SOL    HW223750   2.001   3.476   1.981 -0.8093  1.1232  0.3964
 7657SOL     OW23751   1.286   5.245   6.249  0.6354  0.2934  0.1008
 7657SOL    HW123752   1.309   5.224   6.340  1.1409  3.0140  0.6999
 7657SOL    HW223753   1.352   5.200   6.196  1.2833 -0.0704  1.1879
 7658SOL     OW23754   0.154   2.020   2.166 -0.2941 -0.3352  0.2883
 7658SOL    HW123755   0.248   2.010   2.152  0.0127  1.3711  0.8662
 7658SOL    HW223756   0.113   1.970   2.095  1.0579  0.1811 -0.8906
 7659SOL     OW23757   4.395   7.684   3.109 -0.4274 -0.6893 -0.0763
 7659SOL    HW123758   4.382   7.715   3.199  0.2357  3.8354 -1.2875
 7659SOL    HW223759   4.321   7.719   3.061  0.5846 -0.7539 -1.7426
 7660SOL     OW23760   5.077   7.981   2.193 -0.5684 -0.9586  0.4129
 7660SOL    HW123761   4.993   8.011   2.157 -0.0699  1.5766  1.1643
 7660SOL    HW223762   5.061   7.975   2.287  0.0035 -0.7444  0.5269
 7661SOL     OW23763   2.886   5.493   0.529 -0.2848  1.1580 -0.1466
 7661SOL    HW123764   2.861   5.544   0.453  0.1884  1.3427 -0.1848
 7661SOL    HW223765   2.981   5.481   0.520 -0.1566  1.5074  0.6031
 7662SOL     OW23766   0.560   8.117   2.617 -0.1961 -0.2777  0.3982
 7662SOL    HW123767   0.486   8.065   2.584  0.8280 -1.1051 -0.6654
 7662SOL    HW223768   0.631   8.101   2.555 -0.0221  3.0196 -0.4428
 7663SOL     OW23769   2.651   3.369   3.691  0.0354 -0.5324  0.4410
 7663SOL    HW123770   2.618   3.447   3.647 -2.6924 -1.1201  1.2625
 7663SOL    HW223771   2.652   3.302   3.623  0.4668 -0.2806  0.1940
 7664SOL     OW23772   0.441   7.583   0.124  0.2672 -0.3941  0.6619
 7664SOL    HW123773   0.507   7.583   0.055 -1.3555  0.6543 -1.0121
 7664SOL    HW223774   0.457   7.503   0.174  2.2467 -0.5711 -0.1760
 7665SOL     OW23775   6.061   3.417   4.857 -0.1243  0.1099  0.4349
 7665SOL    HW123776   6.093   3.421   4.767 -2.1305 -0.1924 -0.3343
 7665SOL    HW223777   6.063   3.508   4.887  0.8070  0.1823  0.2150
 7666SOL     OW23778   0.356   2.153   6.038  0.9687  0.5050 -0.8041
 7666SOL    HW123779   0.303   2.168   5.960  1.8720 -0.1806 -1.5722
 7666SOL    HW223780   0.294   2.123   6.104  0.5728 -1.8846 -2.1517
 7667SOL     OW23781   6.427   8.211   7.224 -0.1005 -0.7394 -0.1204
 7667SOL    HW123782   6.463   8.185   7.309  0.9712 -0.8990 -0.6068
 7667SOL    HW223783   6.332   8.198   7.233 -0.0165 -0.6300  1.0839
 7668SOL     OW23784   3.873   6.233   2.705  0.3491  0.3248  0.3884
 7668SOL    HW123785   3.904   6.178   2.633  0.1081 -0.5000  0.9025
 7668SOL    HW223786   3.953   6.258   2.752  0.5571  1.2461 -0.4022
 7669SOL     OW23787   3.108   6.674   5.952  0.4230 -0.4033  0.7574
 7669SOL    HW123788   3.172   6.685   5.882 -0.6114 -0.0775 -0.1671
 7669SOL    HW223789   3.096   6.579   5.958 -1.7018 -0.4004 -1.6657
 7670SOL     OW23790   0.280   2.108   7.282  0.1424  0.8013 -0.2056
 7670SOL    HW123791   0.269   2.144   7.194 -1.6715  1.6208  0.3067
 7670SOL    HW223792   0.258   2.180   7.340 -0.9057 -0.3406  0.8804
 7671SOL     OW23793   5.982   4.710   5.192  0.3479 -0.2367  0.5686
 7671SOL    HW123794   5.982   4.630   5.245 -1.2224  0.1086  1.1600
 7671SOL    HW223795   5.938   4.685   5.111 -0.5133  0.1019  0.9183
 7672SOL     OW23796   3.771   0.418   5.100  0.0290  0.5996 -0.2170
 7672SOL    HW123797   3.823   0.496   5.122  2.1839 -0.4197 -1.3927
 7672SOL    HW223798   3.728   0.441   5.018 -0.4182  0.9888  0.1147
 7673SOL     OW23799   4.544   1.479   0.670  0.2171 -0.2558 -0.5940
 7673SOL    HW123800   4.472   1.438   0.718 -0.2628  1.1108 -0.1061
 7673SOL    HW223801   4.516   1.569   0.658  1.6201  0.1539 -0.8864
 7674SOL     OW23802   6.066   7.238   7.448 -0.6662  0.1253  0.1202
 7674SOL    HW123803   6.111   7.230   7.364 -0.4154 -1.4917  0.3770
 7674SOL    HW223804   6.036   7.329   7.451 -1.0295  0.1097 -1.8824
 7675SOL     OW23805   6.658   2.120   1.193 -0.0204 -0.2963  1.1522
 7675SOL    HW123806   6.616   2.043   1.155  0.7086 -0.7693  1.2696
 7675SOL    HW223807   6.633   2.192   1.135 -1.2330 -0.4957  1.4029
 7676SOL     OW23808   1.766   7.086   3.259 -0.0156 -0.1768 -0.5902
 7676SOL    HW123809   1.697   7.141   3.296  0.9524 -0.2602  1.5498
 7676SOL    HW223810   1.822   7.146   3.211 -0.7010  0.1522 -0.9887
 7677SOL     OW23811   8.002   0.545   7.117  0.2066  0.4815  0.8094
 7677SOL    HW123812   8.075   0.483   7.111 -0.4239 -0.2960  1.0341
 7677SOL    HW223813   8.036   0.616   7.171  1.2436  0.7916 -0.1924
 7678SOL     OW23814   0.490   7.502   4.434 -0.2402  0.0260  0.3807
 7678SOL    HW123815   0.459   7.579   4.483  2.4804  0.8851  0.9697
 7678SOL    HW223816   0.543   7.454   4.498  1.6236  0.0104 -1.0869
 7679SOL     OW23817   7.746   2.830   5.229 -0.9397 -0.5426 -0.0600
 7679SOL    HW123818   7.825   2.858   5.183 -0.1135 -0.9902  1.0395
 7679SOL    HW223819   7.729   2.742   5.196 -1.2664 -0.2673 -0.6419
 7680SOL     OW23820   6.809   3.377   2.288 -0.4078 -0.3435  0.3211
 7680SOL    HW123821   6.760   3.302   2.255 -1.9420  0.6267  0.2944
 7680SOL    HW223822   6.834   3.352   2.377 -2.0128 -0.4292  0.7787
 7681SOL     OW23823   5.377   0.427   5.409  0.0329  0.0224 -0.4396
 7681SOL    HW123824   5.418   0.367   5.346  0.6386  0.2247 -0.2448
 7681SOL    HW223825   5.428   0.415   5.489  0.1513  0.7883 -0.3978
 7682SOL     OW23826   6.622   4.129   1.379 -0.2491 -0.2449  0.1107
 7682SOL    HW123827   6.600   4.133   1.286  2.6514  1.9881 -0.6322
 7682SOL    HW223828   6.539   4.146   1.424 -1.1360  2.2855 -2.2026
 7683SOL     OW23829   1.187   4.923   7.816  0.9136  0.2140  0.3535
 7683SOL    HW123830   1.184   4.911   7.721  0.4722 -0.4491  0.4437
 7683SOL    HW223831   1.100   4.956   7.838  1.2650  1.1177  0.4413
 7684SOL     OW23832   2.365   1.870   6.048  0.2024  0.6708  0.0378
 7684SOL    HW123833   2.342   1.813   5.975 -2.1928 -0.3868  1.5042
 7684SOL    HW223834   2.452   1.839   6.076  0.1645 -0.3933 -0.9580
 7685SOL     OW23835   1.108   7.910   6.660 -0.1325 -0.2179  0.0002
 7685SOL    HW123836   1.198   7.887   6.681  0.1155 -0.2830 -1.0990
 7685SOL    HW223837   1.078   7.961   6.736  0.9152  0.0417  0.2479
 7686SOL     OW23838   7.460   1.785   2.150  0.0099  0.3099 -0.2676
 7686SOL    HW123839   7.479   1.699   2.112 -0.2161 -0.2307  0.8016
 7686SOL    HW223840   7.483   1.847   2.081 -0.4464 -0.6334 -1.3026
 7687SOL     OW23841   5.704   5.925   1.197  0.1095  0.4170 -0.2374
 7687SOL    HW123842   5.650   5.897   1.270 -0.4893 -0.8109 -1.1158
 7687SOL    HW223843   5.758   5.996   1.232  0.4371 -0.6965  1.6056
 7688SOL     OW23844   6.298   1.547   7.681  0.5321  0.5448 -0.2435
 7688SOL    HW123845   6.382   1.557   7.725  1.2406  0.1370 -1.4613
 7688SOL    HW223846   6.278   1.633   7.646  1.2654  0.2903 -1.3471
 7689SOL     OW23847   6.755   5.977   7.787 -0.1207 -0.5248 -0.6379
 7689SOL    HW123848   6.787   6.064   7.810 -3.7657  1.1316 -1.0445
 7689SOL    HW223849   6.771   5.923   7.865  1.9215  0.5527 -0.2660
 7690SOL     OW23850   8.116   1.647   4.425  0.1542  0.6769 -0.0807
 7690SOL    HW123851   8.123   1.626   4.518  1.0274  1.0164 -0.0568
 7690SOL    HW223852   8.200   1.621   4.388 -0.1863  0.5474 -0.7771
 7691SOL     OW23853   2.530   1.832   1.253  0.1120 -0.6662 -0.0641
 7691SOL    HW123854   2.508   1.753   1.204 -0.3531 -0.3085 -0.4420
 7691SOL    HW223855   2.503   1.813   1.343 -2.8798  0.1412 -0.6763
 7692SOL     OW23856   7.447   5.041   3.413  0.8252  0.6743  0.1129
 7692SOL    HW123857   7.419   4.964   3.463 -1.0008  0.2793 -1.4045
 7692SOL    HW223858   7.417   5.024   3.324 -0.7012  3.6657 -0.0457
 7693SOL     OW23859   2.548   1.749   0.464  0.4379  0.2364 -0.8653
 7693SOL    HW123860   2.591   1.685   0.408  0.3638 -1.4094  0.8405
 7693SOL    HW223861   2.589   1.736   0.550 -1.5384  0.5052  0.1824
 7694SOL     OW23862   3.405   4.557   7.389  0.5853  0.1282 -0.1201
 7694SOL    HW123863   3.331   4.610   7.420  0.4890 -0.3735  0.5512
 7694SOL    HW223864   3.482   4.600   7.425  0.7101  1.1350 -1.5154
 7695SOL     OW23865   1.701   5.441   7.516  0.3188  0.4443 -0.0129
 7695SOL    HW123866   1.767   5.504   7.545  0.8491  0.7954 -1.8365
 7695SOL    HW223867   1.619   5.490   7.517  0.3417  0.4739  0.7572
 7696SOL     OW23868   6.309   1.661   7.993 -0.4767  0.3075 -0.0901
 7696SOL    HW123869   6.357   1.579   8.001 -1.1137 -0.0915 -0.3295
 7696SOL    HW223870   6.218   1.639   8.011 -0.5475  1.1088  0.6213
 7697SOL     OW23871   6.035   5.239   2.426 -0.4131 -0.5775  0.3822
 7697SOL    HW123872   6.013   5.148   2.406  1.0380 -0.9086  0.1947
 7697SOL    HW223873   6.119   5.235   2.470  0.6492  0.7999 -1.3908
 7698SOL     OW23874   5.252   0.284   5.750  0.2820  0.2446  0.4477
 7698SOL    HW123875   5.243   0.348   5.680  0.2592  0.9555  1.0933
 7698SOL    HW223876   5.273   0.202   5.705 -1.2375  0.3395 -0.5024
 7699SOL     OW23877   4.785   6.957   1.769 -0.3798  0.3683 -0.0446
 7699SOL    HW123878   4.784   6.862   1.756  0.2566  0.4536 -0.8125
 7699SOL    HW223879   4.699   6.978   1.804 -0.6456 -0.4558 -0.1910
 7700SOL     OW23880   6.794   3.068   0.005  0.2021 -0.5007  0.3879
 7700SOL    HW123881   6.749   3.129  -0.053 -0.2979  0.9969  2.2447
 7700SOL    HW223882   6.883   3.101   0.010  0.5800 -1.3600 -0.4775
 7701SOL     OW23883   2.623   4.010   7.871  0.2568  0.1516  0.1789
 7701SOL    HW123884   2.544   4.063   7.881 -0.0127 -0.5106  1.7673
 7701SOL    HW223885   2.669   4.020   7.954  0.8894 -0.9973 -0.0225
 7702SOL     OW23886   7.108   1.856   6.512 -0.1140 -0.3907 -0.2099
 7702SOL    HW123887   7.170   1.786   6.532 -0.8397 -0.6928  1.0834
 7702SOL    HW223888   7.030   1.835   6.564 -0.8870  0.5933 -0.9266
 7703SOL     OW23889   7.381   3.773   3.242 -0.4664  0.1097  0.5332
 7703SOL    HW123890   7.413   3.713   3.310  1.2648 -0.0293 -0.3243
 7703SOL    HW223891   7.373   3.857   3.286  2.9254  0.5848  0.4979
 7704SOL     OW23892   6.093   4.523   0.087 -0.2114  0.4542 -0.0337
 7704SOL    HW123893   6.140   4.585   0.144 -0.4379  0.8611 -0.2942
 7704SOL    HW223894   6.127   4.437   0.114  0.1292  0.6884  0.3034
 7705SOL     OW23895   7.625   0.057   6.382  0.3192 -0.2041  0.4184
 7705SOL    HW123896   7.652   0.120   6.450  0.6161 -1.4260  1.4665
 7705SOL    HW223897   7.621   0.109   6.302  1.8455  0.8770  1.0001
 7706SOL     OW23898   7.927   7.202   4.018 -0.4612 -0.0004 -0.7856
 7706SOL    HW123899   7.999   7.263   4.030 -0.8246  0.3323 -0.2464
 7706SOL    HW223900   7.929   7.147   4.096  0.9874 -1.8864 -2.0770
 7707SOL     OW23901   2.439   5.412   4.179  0.1270  0.1976 -0.1979
 7707SOL    HW123902   2.484   5.492   4.207  0.3553 -0.4653  1.4660
 7707SOL    HW223903   2.510   5.351   4.158 -0.0390  0.2710 -0.9624
 7708SOL     OW23904   7.891   5.723   5.847 -0.3890 -0.3738  0.5585
 7708SOL    HW123905   7.920   5.762   5.764  2.0273  0.2769  1.6148
 7708SOL    HW223906   7.850   5.640   5.821 -0.4545  0.1933 -1.3333
 7709SOL     OW23907   7.144   1.152   2.155 -0.5922  0.5718  0.1936
 7709SOL    HW123908   7.102   1.210   2.219 -0.7279  1.7392 -0.9051
 7709SOL    HW223909   7.228   1.194   2.137 -1.1069  1.0042 -1.3567
 7710SOL     OW23910   3.472   1.831   7.416 -0.2148 -0.0239 -0.4107
 7710SOL    HW123911   3.519   1.907   7.449  1.0356 -1.6275  1.8211
 7710SOL    HW223912   3.539   1.779   7.371 -1.2353  0.5430 -2.7178
 7711SOL     OW23913   3.879   8.106   3.381  0.1255  0.4665 -0.7283
 7711SOL    HW123914   3.841   8.064   3.304  0.2840  1.6419 -1.4769
 7711SOL    HW223915   3.897   8.196   3.353 -2.9489  2.0323  1.6499
 7712SOL     OW23916   2.658   0.206   6.377  0.3167  0.2180 -0.0912
 7712SOL    HW123917   2.704   0.288   6.393 -0.8074  0.7695  0.4725
 7712SOL    HW223918   2.643   0.169   6.464 -0.0882 -0.0631 -0.2746
 7713SOL     OW23919   3.878   6.667   0.506  0.0893  0.3421 -0.1221
 7713SOL    HW123920   3.890   6.601   0.574 -2.0103 -1.5880 -1.4711
 7713SOL    HW223921   3.888   6.751   0.551  1.8471 -0.8515  1.8683
 7714SOL     OW23922   0.912   0.681   3.034 -0.0260  0.0482 -0.2920
 7714SOL    HW123923   0.952   0.603   2.995 -3.1398 -1.3265 -0.9863
 7714SOL    HW223924   0.961   0.754   2.995  2.7711 -1.4436  0.1437
 7715SOL     OW23925   1.773   6.861   0.877 -0.3533  0.1396 -0.0386
 7715SOL    HW123926   1.868   6.854   0.888 -0.2460  0.7856 -0.5208
 7715SOL    HW223927   1.760   6.945   0.834 -1.0943 -0.2965 -0.6910
 7716SOL     OW23928   7.932   1.234   0.903  0.4070  0.1443 -0.2265
 7716SOL    HW123929   8.000   1.179   0.943 -0.8808 -2.7029 -1.6579
 7716SOL    HW223930   7.962   1.323   0.917  1.8426 -0.7514  3.7892
 7717SOL     OW23931   6.580   7.913   0.771  0.3607 -0.1426  0.0207
 7717SOL    HW123932   6.634   7.845   0.811  0.6028  0.3669  0.5771
 7717SOL    HW223933   6.587   7.898   0.677  1.0965 -0.3674  0.1100
 7718SOL     OW23934   5.824   7.482   7.130  0.2836 -0.4060  0.0496
 7718SOL    HW123935   5.791   7.546   7.067  0.7424 -1.2877 -1.1235
 7718SOL    HW223936   5.919   7.489   7.124  0.3613  0.7821  2.0156
 7719SOL     OW23937   0.905   1.177   0.899  0.0115 -0.7778 -0.1250
 7719SOL    HW123938   0.886   1.099   0.952  0.9601 -0.8656  0.1059
 7719SOL    HW223939   0.998   1.194   0.915  0.2282 -0.5746 -1.4711
 7720SOL     OW23940   1.495   8.135   6.212 -0.2323  0.4250  0.3510
 7720SOL    HW123941   1.577   8.088   6.199  0.2671  1.3353  0.1283
 7720SOL    HW223942   1.445   8.080   6.273 -0.0873 -0.8757 -0.6654
 7721SOL     OW23943   6.897   3.161   5.117 -0.0494 -0.3077  0.2439
 7721SOL    HW123944   6.923   3.144   5.207 -0.6003 -1.5354  0.1853
 7721SOL    HW223945   6.835   3.092   5.096 -2.1069  1.5310 -0.1589
 7722SOL     OW23946   4.410   1.167   5.431 -0.1811  0.3909  0.0187
 7722SOL    HW123947   4.361   1.203   5.505 -1.4913  0.0151 -0.6185
 7722SOL    HW223948   4.489   1.129   5.469 -0.2122  1.3187  1.0538
 7723SOL     OW23949   3.291   4.107   7.859  0.1266  0.5796 -0.0582
 7723SOL    HW123950   3.336   4.131   7.940 -0.2555  0.5393  0.1649
 7723SOL    HW223951   3.198   4.116   7.879  0.0361  1.7047 -0.8304
 7724SOL     OW23952   0.718   5.108   4.259  0.3685  0.0815  0.4087
 7724SOL    HW123953   0.781   5.053   4.304 -1.9183 -1.5193  1.8755
 7724SOL    HW223954   0.724   5.083   4.167  0.7905 -1.1577  0.7635
 7725SOL     OW23955   2.285   3.314   1.651 -0.8021 -0.8281  0.2282
 7725SOL    HW123956   2.303   3.385   1.713 -1.7792 -0.9353  0.6416
 7725SOL    HW223957   2.358   3.319   1.589  0.4923 -1.0373  1.6528
 7726SOL     OW23958   0.696   4.517   8.216 -0.0464  0.1729  0.1035
 7726SOL    HW123959   0.741   4.599   8.235  0.2809  0.1625 -0.5719
 7726SOL    HW223960   0.652   4.533   8.132  1.4015 -0.8518 -0.9133
 7727SOL     OW23961   4.185   2.885   1.158 -0.4245 -0.3443  0.9091
 7727SOL    HW123962   4.244   2.826   1.111  0.1629 -0.3485  1.6445
 7727SOL    HW223963   4.153   2.834   1.232 -1.5183 -0.4044  0.4263
 7728SOL     OW23964   7.653   5.341   6.891  0.3525  0.4326 -0.5043
 7728SOL    HW123965   7.583   5.302   6.838  0.1180  0.7530 -0.4310
 7728SOL    HW223966   7.695   5.403   6.832  1.4581 -0.7298 -0.9879
 7729SOL     OW23967   0.106   1.813   0.713 -0.0296 -0.5040 -0.3521
 7729SOL    HW123968   0.013   1.794   0.725 -0.6550  2.6991  0.9086
 7729SOL    HW223969   0.150   1.766   0.784 -1.0840  0.3133  0.8818
 7730SOL     OW23970   7.108   7.214   0.480 -0.6508 -0.6532  0.4254
 7730SOL    HW123971   7.147   7.130   0.505 -1.5514 -1.1901  0.0667
 7730SOL    HW223972   7.138   7.230   0.391 -1.8393 -1.4569 -0.1477
 7731SOL     OW23973   0.566   2.314   6.011  0.5161 -0.1505  0.4127
 7731SOL    HW123974   0.641   2.275   6.056 -1.3019 -3.1621  1.0552
 7731SOL    HW223975   0.495   2.251   6.022 -1.9775  2.2282 -0.7626
 7732SOL     OW23976   3.175   3.587   1.782 -0.0185 -0.2154  0.3600
 7732SOL    HW123977   3.190   3.627   1.868 -1.3145 -0.9950  0.9853
 7732SOL    HW223978   3.250   3.530   1.768  0.8273  0.8592  0.3853
 7733SOL     OW23979   1.246   4.554   7.724  0.2059 -0.6318  0.3036
 7733SOL    HW123980   1.291   4.482   7.766 -0.5330 -1.2730  0.0295
 7733SOL    HW223981   1.157   4.522   7.711 -0.1758  0.3826  0.3062
 7734SOL     OW23982   6.491   1.283   2.527  0.4539 -0.7333  0.6815
 7734SOL    HW123983   6.445   1.327   2.598  1.6536  3.2293 -0.7423
 7734SOL    HW223984   6.535   1.353   2.479  3.2055 -3.6397 -1.4927
 7735SOL     OW23985   3.262   4.389   6.759 -0.5106  0.0669  0.9615
 7735SOL    HW123986   3.305   4.304   6.760 -0.3168  0.1084 -0.7403
 7735SOL    HW223987   3.330   4.451   6.784  0.4102  0.0822 -1.3055
 7736SOL     OW23988   6.179   5.877   0.527  0.8060 -0.1850 -0.4293
 7736SOL    HW123989   6.236   5.853   0.600  0.9504 -2.1423 -1.1368
 7736SOL    HW223990   6.119   5.803   0.518 -0.2572  0.7373 -1.2944
 7737SOL     OW23991   1.733   1.073   0.248  0.4962  0.4100 -0.2284
 7737SOL    HW123992   1.658   1.131   0.236 -1.2943 -1.4545  1.2891
 7737SOL    HW223993   1.804   1.115   0.198 -1.1067  3.0141 -0.4949
 7738SOL     OW23994   1.854   4.412   1.494 -0.9420 -0.1315  0.6822
 7738SOL    HW123995   1.920   4.448   1.554 -1.1819  0.9172  0.3297
 7738SOL    HW223996   1.787   4.376   1.552 -0.4027 -0.5640  1.0430
 7739SOL     OW23997   3.207   7.127   1.459  0.0129 -0.2032  0.7071
 7739SOL    HW123998   3.219   7.144   1.366 -0.8329  0.5599  0.7266
 7739SOL    HW223999   3.192   7.214   1.498  0.3675 -0.5058  1.5625
 7740SOL     OW24000   8.165   7.793   8.302 -0.1582  0.3389 -0.2678
 7740SOL    HW124001   8.197   7.883   8.309 -1.7103  0.8546  0.7474
 7740SOL    HW224002   8.166   7.775   8.208  0.5522  1.2680 -0.4551
 7741SOL     OW24003   6.545   1.218   6.140 -0.5771  0.1556 -0.2879
 7741SOL    HW124004   6.507   1.134   6.164 -1.8823  1.2859  1.8242
 7741SOL    HW224005   6.475   1.281   6.153  0.7866  1.7701 -0.4553
 7742SOL     OW24006   2.588   4.449   2.981  0.5623 -0.1376 -0.1338
 7742SOL    HW124007   2.604   4.395   2.903 -0.1622 -1.9036  0.8784
 7742SOL    HW224008   2.540   4.525   2.948  0.9987 -0.4387 -1.5219
 7743SOL     OW24009   5.041   2.615   3.070  0.1656  0.0066 -0.3897
 7743SOL    HW124010   4.976   2.609   3.140  2.0286  0.5669  1.4974
 7743SOL    HW224011   5.081   2.701   3.082 -0.2610  0.6369 -2.9558
 7744SOL     OW24012   2.794   7.884   5.404  0.2713  0.1342 -0.0330
 7744SOL    HW124013   2.797   7.792   5.377 -1.3578  0.0291  0.0695
 7744SOL    HW224014   2.870   7.894   5.462  2.0403 -0.4327 -2.1127
 7745SOL     OW24015   3.407   3.575   3.066 -0.0611  0.4529  0.2366
 7745SOL    HW124016   3.434   3.659   3.103 -1.0707  0.5934  0.7193
 7745SOL    HW224017   3.471   3.512   3.099  0.3621  0.9419  0.3592
 7746SOL     OW24018   5.196   5.462   1.186  0.2819  0.3227 -0.0754
 7746SOL    HW124019   5.121   5.512   1.220 -2.4747 -2.7106 -1.1925
 7746SOL    HW224020   5.184   5.463   1.091  1.2875 -0.8191 -0.2355
 7747SOL     OW24021   3.391   5.866   7.987  0.0781  0.6671 -0.1879
 7747SOL    HW124022   3.321   5.801   7.991  2.1887 -1.7375  0.6172
 7747SOL    HW224023   3.373   5.925   8.060 -1.2411  0.2744 -0.1635
 7748SOL     OW24024   1.689   3.315   6.987 -0.0676  0.6079 -0.5425
 7748SOL    HW124025   1.668   3.384   7.049 -0.8482 -0.2015  0.1118
 7748SOL    HW224026   1.630   3.331   6.913 -0.6445  0.3229 -0.1517
 7749SOL     OW24027   6.275   5.311   1.156 -0.2176 -0.6111 -0.2254
 7749SOL    HW124028   6.305   5.288   1.244 -0.3626 -1.5154 -0.4056
 7749SOL    HW224029   6.352   5.299   1.100 -0.2334 -0.4329 -0.2852
 7750SOL     OW24030   3.178   6.987   5.689 -0.0471  0.2824  0.3503
 7750SOL    HW124031   3.180   7.030   5.775  1.7372  1.8488 -0.4138
 7750SOL    HW224032   3.206   6.897   5.707  0.3528  0.6040  1.4222
 7751SOL     OW24033   0.237   8.067   5.163 -0.3248 -0.1363  0.0782
 7751SOL    HW124034   0.212   8.133   5.227 -1.8573  0.0262 -0.6630
 7751SOL    HW224035   0.161   8.009   5.156  0.6168 -1.4347 -0.0061
 7752SOL     OW24036   1.303   1.610   5.446  0.1785 -0.0574  0.0983
 7752SOL    HW124037   1.261   1.693   5.421 -0.3233 -0.0102  1.0409
 7752SOL    HW224038   1.236   1.543   5.428 -0.8197  0.1336  2.6905
 7753SOL     OW24039   5.335   6.917   1.623 -0.2032  0.5396  0.3506
 7753SOL    HW124040   5.336   6.895   1.530  1.9993 -0.6806  0.6003
 7753SOL    HW224041   5.399   6.987   1.632  1.2158 -0.7983  1.2016
 7754SOL     OW24042   7.797   7.930   6.477 -0.0094 -0.7474  0.6775
 7754SOL    HW124043   7.836   7.843   6.482 -0.8455 -1.1202  0.8870
 7754SOL    HW224044   7.729   7.922   6.410  0.6208  0.0334 -0.0625
 7755SOL     OW24045   0.326   5.402   6.847  0.3313 -0.7172 -0.0720
 7755SOL    HW124046   0.279   5.475   6.807 -1.6700 -1.5869  0.6023
 7755SOL    HW224047   0.410   5.400   6.801 -0.6706  0.2192 -2.0543
 7756SOL     OW24048   3.461   1.058   1.922  0.2188  0.4919  0.2941
 7756SOL    HW124049   3.459   1.050   1.826 -1.6452  1.8491  0.1474
 7756SOL    HW224050   3.469   1.152   1.937 -1.1180  0.4580  1.4132
 7757SOL     OW24051   2.548   2.496   6.067  0.3990 -0.1860  0.1917
 7757SOL    HW124052   2.571   2.559   5.999  1.1104 -0.6622 -0.0210
 7757SOL    HW224053   2.461   2.465   6.043  1.1381 -1.2657 -1.2083
 7758SOL     OW24054   0.808   0.442   3.849 -0.3279 -0.5390  0.3257
 7758SOL    HW124055   0.802   0.535   3.869 -2.0606 -0.5522 -0.0225
 7758SOL    HW224056   0.859   0.438   3.768 -0.2950  0.1054  0.3074
 7759SOL     OW24057   6.970   5.763   5.819 -0.0537 -0.1713  0.3929
 7759SOL    HW124058   6.982   5.773   5.724 -1.7711  1.5448  0.2931
 7759SOL    HW224059   7.022   5.834   5.856 -2.4893  1.6919  0.4449
 7760SOL     OW24060   4.795   2.856   4.690 -0.0412  0.0929 -0.8831
 7760SOL    HW124061   4.758   2.886   4.607  0.2063  0.8457 -0.7258
 7760SOL    HW224062   4.764   2.765   4.698 -0.8292  0.3055 -1.3538
 7761SOL     OW24063   2.817   1.818   7.110  0.5995  0.4928 -0.2847
 7761SOL    HW124064   2.773   1.893   7.069 -0.5341  0.1439  0.2410
 7761SOL    HW224065   2.843   1.849   7.197  0.2427  0.3227 -0.1147
 7762SOL     OW24066   7.780   2.202   6.528  0.0759 -0.1265  0.7639
 7762SOL    HW124067   7.787   2.119   6.480 -0.4041  1.8919 -3.2687
 7762SOL    HW224068   7.861   2.249   6.505 -0.9699  1.6209  0.4702
 7763SOL     OW24069   2.480   3.874   3.834  0.3402  0.7023  0.7249
 7763SOL    HW124070   2.508   3.958   3.797 -1.7689  2.2535  2.3358
 7763SOL    HW224071   2.435   3.829   3.763 -0.0178  1.7390  0.2791
 7764SOL     OW24072   0.468   1.699   8.169  0.1321  0.1945 -0.6927
 7764SOL    HW124073   0.473   1.676   8.262 -0.8100  1.7325 -0.2233
 7764SOL    HW224074   0.375   1.693   8.148  0.4217 -0.8942 -1.7728
 7765SOL     OW24075   3.662   5.039   2.936  0.6327 -0.7152 -0.3597
 7765SOL    HW124076   3.588   5.079   2.981 -0.4378 -3.6828  0.7514
 7765SOL    HW224077   3.728   5.109   2.932 -1.5109  1.5037  0.1954
 7766SOL     OW24078   7.882   2.719   1.398 -0.0309 -0.1494  0.3551
 7766SOL    HW124079   7.921   2.806   1.406  0.4721 -0.4105  0.8456
 7766SOL    HW224080   7.793   2.734   1.366 -0.2580  0.5991  1.3070
 7767SOL     OW24081   6.449   3.076   1.160  0.2101 -0.0993  0.2869
 7767SOL    HW124082   6.541   3.102   1.169  0.0861  0.0824  1.1379
 7767SOL    HW224083   6.426   3.038   1.245 -0.2237 -1.0774 -0.2499
 7768SOL     OW24084   4.578   6.461   0.697 -0.1467  0.0082 -0.2567
 7768SOL    HW124085   4.607   6.395   0.634 -0.3699  0.1826 -0.5469
 7768SOL    HW224086   4.631   6.538   0.676  0.5104 -0.2432  0.4462
 7769SOL     OW24087   3.425   4.111   1.281 -0.1187 -0.1699  0.2307
 7769SOL    HW124088   3.432   4.032   1.228  0.4335  0.0990 -0.1148
 7769SOL    HW224089   3.506   4.159   1.263  0.1404 -0.1189  1.4064
 7770SOL     OW24090   4.748   2.817   6.211  0.4213  0.2455  0.2125
 7770SOL    HW124091   4.800   2.882   6.259  0.6025  0.7131 -0.5897
 7770SOL    HW224092   4.783   2.821   6.122  1.2053 -1.7796  0.3881
 7771SOL     OW24093   0.344   8.181   2.798  0.6459  0.3052 -0.4128
 7771SOL    HW124094   0.365   8.239   2.872  0.9624  0.2774 -0.4781
 7771SOL    HW224095   0.409   8.203   2.731  2.0907 -1.4890  0.2956
 7772SOL     OW24096   5.480   5.742   5.275 -0.1607 -0.5948 -0.4626
 7772SOL    HW124097   5.441   5.829   5.269  0.3305 -0.3170  0.2505
 7772SOL    HW224098   5.459   5.700   5.192  0.7965  0.7086 -1.3941
 7773SOL     OW24099   4.126   4.876   1.214  0.1100 -0.5651  0.3154
 7773SOL    HW124100   4.036   4.880   1.245 -0.2283 -1.6123 -0.4741
 7773SOL    HW224101   4.134   4.949   1.153 -0.9049 -1.7263 -1.3000
 7774SOL     OW24102   4.312   4.955   5.863  0.1549  0.4295 -0.6360
 7774SOL    HW124103   4.399   4.979   5.892 -0.7029  2.0324  0.7820
 7774SOL    HW224104   4.256   5.026   5.893 -1.8746 -1.2547 -0.1781
 7775SOL     OW24105   2.486   3.565   7.450  0.2388 -0.3512 -0.5910
 7775SOL    HW124106   2.401   3.538   7.484 -0.3201  1.6219 -0.2620
 7775SOL    HW224107   2.535   3.594   7.526  0.2804  0.8055 -1.0367
 7776SOL     OW24108   2.721   4.819   7.566  0.0560  0.7089  0.1289
 7776SOL    HW124109   2.725   4.895   7.508 -0.7913  0.6532 -0.0071
 7776SOL    HW224110   2.631   4.817   7.597 -0.0490 -0.5017 -0.2091
 7777SOL     OW24111   6.651   6.011   0.041 -0.5145 -0.3516 -0.1901
 7777SOL    HW124112   6.702   6.013   0.122 -2.2999 -1.7708  1.0666
 7777SOL    HW224113   6.676   5.928  -0.000 -2.3425 -1.5210  0.9016
 7778SOL     OW24114   1.310   4.304   4.690 -0.2009  1.1658 -0.3830
 7778SOL    HW124115   1.353   4.364   4.751 -1.3365  1.1582  0.4526
 7778SOL    HW224116   1.382   4.261   4.644  0.6558  1.9878  0.1613
 7779SOL     OW24117   2.077   8.226   0.815 -0.1744  0.3528  0.3044
 7779SOL    HW124118   2.133   8.158   0.850 -0.8372 -0.2591  0.2018
 7779SOL    HW224119   2.127   8.307   0.826 -0.1377  0.1208  2.1605
 7780SOL     OW24120   0.258   1.181   5.131 -0.2545  0.0053 -0.0913
 7780SOL    HW124121   0.220   1.220   5.052 -1.0220 -0.0222  0.2569
 7780SOL    HW224122   0.331   1.239   5.154 -1.0494  0.9513  0.1229
 7781SOL     OW24123   0.664   1.559   4.045 -0.1821  0.4070  0.5798
 7781SOL    HW124124   0.605   1.630   4.022 -0.6290 -0.1180  0.0567
 7781SOL    HW224125   0.671   1.507   3.964  0.1370 -0.1347  0.9516
 7782SOL     OW24126   2.976   4.190   2.318  0.1950  0.0322  0.6946
 7782SOL    HW124127   2.930   4.139   2.252  0.1357  1.5127 -0.4644
 7782SOL    HW224128   2.938   4.278   2.311 -0.1368  0.1424  3.0362
 7783SOL     OW24129   8.197   2.629   5.497 -0.5998  0.1941 -0.0048
 7783SOL    HW124130   8.168   2.686   5.568  0.2025  0.4047  0.1646
 7783SOL    HW224131   8.128   2.634   5.432 -1.4581 -0.1865  0.8593
 7784SOL     OW24132   0.509   7.661   3.372  0.1179  0.8053  0.1044
 7784SOL    HW124133   0.487   7.569   3.356 -1.9108  1.3605 -0.5866
 7784SOL    HW224134   0.500   7.672   3.467  1.8641 -0.0047  0.4219
 7785SOL     OW24135   4.803   7.801   3.526  0.1645  0.7273 -0.2316
 7785SOL    HW124136   4.858   7.880   3.524  1.3347 -0.0380  0.6123
 7785SOL    HW224137   4.763   7.803   3.613  2.9858 -1.3666  1.3014
 7786SOL     OW24138   1.593   3.992   7.768  0.1862  0.0985 -0.1801
 7786SOL    HW124139   1.612   3.934   7.694  1.6178  0.0484  0.1850
 7786SOL    HW224140   1.499   3.986   7.780  0.1710 -1.3314 -0.8281
 7787SOL     OW24141   6.631   7.443   0.259  0.6539  0.1558 -0.1481
 7787SOL    HW124142   6.695   7.373   0.272  2.4387  1.7646  0.1564
 7787SOL    HW224143   6.663   7.515   0.312  1.3330  2.6978 -3.6337
 7788SOL     OW24144   3.203   7.117   3.264  0.9739  0.4031  0.5298
 7788SOL    HW124145   3.130   7.165   3.303  0.9559  1.2416 -0.4931
 7788SOL    HW224146   3.263   7.185   3.232 -0.1052 -0.0723 -2.9861
 7789SOL     OW24147   1.553   5.639   5.844  0.2859  0.0941 -0.1369
 7789SOL    HW124148   1.481   5.695   5.815  1.0653  1.4691  0.4744
 7789SOL    HW224149   1.586   5.599   5.764 -1.6816 -1.2688 -0.3392
 7790SOL     OW24150   5.682   7.344   3.913  0.5844  0.2031  0.0231
 7790SOL    HW124151   5.658   7.373   3.825  0.3976 -2.2696 -0.8318
 7790SOL    HW224152   5.605   7.361   3.966  0.4361  1.0419 -0.4423
 7791SOL     OW24153   7.623   7.919   5.472  0.1095 -0.0205  0.5646
 7791SOL    HW124154   7.599   7.958   5.556  0.7653  1.3892  0.1358
 7791SOL    HW224155   7.593   7.982   5.407 -0.1346 -0.9557 -0.2598
 7792SOL     OW24156   3.280   5.623   3.643 -0.6951  0.3240 -0.7495
 7792SOL    HW124157   3.355   5.583   3.688 -2.0635  0.8985  2.3222
 7792SOL    HW224158   3.230   5.548   3.610  0.0493 -0.1589 -0.8171
 7793SOL     OW24159   4.889   5.787   7.110  0.3405  0.1851 -0.7584
 7793SOL    HW124160   4.870   5.694   7.119  0.9274  0.0964 -0.3539
 7793SOL    HW224161   4.903   5.800   7.016  3.0027 -0.7293 -0.5843
 7794SOL     OW24162   1.397   4.971   6.777 -0.5610  0.1458  0.1592
 7794SOL    HW124163   1.402   4.979   6.681  0.8527 -0.9384  0.1093
 7794SOL    HW224164   1.432   4.883   6.795  2.2200  1.4550  1.8564
 7795SOL     OW24165   6.247   0.478   2.847  0.7713  0.1904 -0.0215
 7795SOL    HW124166   6.177   0.468   2.783 -0.2980 -0.9333  1.2655
 7795SOL    HW224167   6.229   0.563   2.889 -0.6537 -0.6403  1.1827
 7796SOL     OW24168   7.199   5.213   3.987  0.4395  0.0496 -0.2860
 7796SOL    HW124169   7.245   5.241   4.066 -1.2106 -1.1136  1.1635
 7796SOL    HW224170   7.189   5.118   3.997 -1.5002  0.1420 -0.9412
 7797SOL     OW24171   4.338   2.097   1.031 -0.1438  0.0155  0.0821
 7797SOL    HW124172   4.259   2.066   0.985  0.8740 -2.2017 -0.3050
 7797SOL    HW224173   4.343   2.190   1.010 -1.3423 -0.3122 -1.9024
 7798SOL     OW24174   3.289   3.205   1.455 -0.8570  0.5371  0.5244
 7798SOL    HW124175   3.315   3.126   1.407 -1.1342  0.4310  0.5424
 7798SOL    HW224176   3.371   3.241   1.489 -0.8513 -0.5618  1.7815
 7799SOL     OW24177   5.419   6.023   1.765 -0.2204  0.4399  0.4478
 7799SOL    HW124178   5.450   6.091   1.824 -0.1577  0.8654 -0.0767
 7799SOL    HW224179   5.333   6.053   1.737  0.3149  0.8962 -0.7345
 7800SOL     OW24180   3.662   3.484   7.179 -0.4738  0.9286 -0.2468
 7800SOL    HW124181   3.644   3.505   7.087 -0.3819  0.3316 -0.4058
 7800SOL    HW224182   3.757   3.484   7.185 -0.4815  1.0558 -0.1274
 7801SOL     OW24183   3.001   7.708   5.983  0.3055 -0.0574  0.0574
 7801SOL    HW124184   3.025   7.772   5.916 -0.9707 -0.8957 -1.2803
 7801SOL    HW224185   3.046   7.628   5.956  0.7647 -0.0901  0.9136
 7802SOL     OW24186   2.775   0.669   7.945  0.3869 -0.4757  0.2904
 7802SOL    HW124187   2.761   0.684   7.852 -1.3805  2.6434  0.9403
 7802SOL    HW224188   2.733   0.585   7.963 -1.3415 -0.0027 -1.3231
 7803SOL     OW24189   3.776   0.006   5.403  0.7853 -0.0176  0.3268
 7803SOL    HW124190   3.791  -0.013   5.311  0.5524 -0.8576  0.4607
 7803SOL    HW224191   3.699   0.062   5.404  0.4495 -0.4715  0.0497
 7804SOL     OW24192   1.916   3.520   6.765  0.4736 -0.9194 -0.1551
 7804SOL    HW124193   1.869   3.455   6.816  1.1087 -1.7686 -0.6274
 7804SOL    HW224194   1.947   3.583   6.830 -0.0812 -1.1230  0.3165
 7805SOL     OW24195   0.295   5.109   0.872  0.5956 -0.3265  0.2509
 7805SOL    HW124196   0.361   5.165   0.912 -0.4989  0.4601  1.0063
 7805SOL    HW224197   0.252   5.066   0.946  0.2624 -0.8390 -0.2276
 7806SOL     OW24198   6.178   5.970   4.590 -0.0789 -0.2867 -0.1837
 7806SOL    HW124199   6.209   6.038   4.530  0.5141 -1.4953 -1.2826
 7806SOL    HW224200   6.218   5.889   4.558  0.9628 -0.8700  2.3394
 7807SOL     OW24201   3.694   2.838   0.738 -0.0917 -0.0292 -0.4006
 7807SOL    HW124202   3.690   2.840   0.833  1.3743 -1.2399 -0.2922
 7807SOL    HW224203   3.603   2.827   0.710 -0.5796  0.7420  0.8283
 7808SOL     OW24204   6.146   0.255   4.322 -0.5872 -0.1526  0.3627
 7808SOL    HW124205   6.116   0.166   4.305 -1.4503  0.0236  0.9094
 7808SOL    HW224206   6.231   0.244   4.365 -1.6211 -0.8045  2.3795
 7809SOL     OW24207   0.808   3.190   2.665 -0.2778 -0.7155 -0.3260
 7809SOL    HW124208   0.714   3.175   2.661 -0.8340  1.7352  1.5818
 7809SOL    HW224209   0.835   3.152   2.749  0.1259  0.0292 -0.1131
 7810SOL     OW24210   7.847   1.418   3.217  0.4163 -0.2625  0.0673
 7810SOL    HW124211   7.779   1.476   3.184  0.2321  0.4861  1.6276
 7810SOL    HW224212   7.927   1.447   3.174  0.1759  0.6139  0.1860
 7811SOL     OW24213   2.547   3.638   0.970 -0.3864 -0.3386  0.5884
 7811SOL    HW124214   2.496   3.651   0.890 -0.3344 -1.5052  0.3470
 7811SOL    HW224215   2.638   3.631   0.940 -0.3166 -0.3427  0.7968
 7812SOL     OW24216   4.791   2.632   1.137 -0.8041 -0.4787 -0.0131
 7812SOL    HW124217   4.812   2.661   1.225  1.0278 -2.0236  0.1203
 7812SOL    HW224218   4.844   2.687   1.079 -2.5485  1.0313 -0.2587
 7813SOL     OW24219   5.382   8.068   2.322  0.0126  0.4230 -0.4500
 7813SOL    HW124220   5.356   8.028   2.239  1.5456 -1.8098  0.0502
 7813SOL    HW224221   5.336   8.017   2.388  1.8079 -0.4254  0.2045
 7814SOL     OW24222   5.400   0.883   6.456 -0.2573 -0.0504 -0.1521
 7814SOL    HW124223   5.468   0.822   6.428 -0.4294  0.0311 -0.7728
 7814SOL    HW224224   5.318   0.844   6.424 -0.4910 -0.0879  0.4853
 7815SOL     OW24225   1.152   1.819   8.255  0.0173 -0.0896  0.1575
 7815SOL    HW124226   1.168   1.784   8.342  3.0547  1.8181  0.5412
 7815SOL    HW224227   1.175   1.748   8.195  0.4361 -0.5965  0.9132
 7816SOL     OW24228   1.627   3.795   1.977 -0.2573 -0.4556 -0.2889
 7816SOL    HW124229   1.537   3.791   2.008 -0.2787  1.9849  0.1517
 7816SOL    HW224230   1.624   3.853   1.901  0.7462 -1.4924 -1.1545
 7817SOL     OW24231   6.143   6.411   6.020 -0.2030  0.4244 -0.0149
 7817SOL    HW124232   6.221   6.357   6.005 -0.3558 -0.3889  1.8903
 7817SOL    HW224233   6.177   6.496   6.047  0.0160  0.8970 -1.6510
 7818SOL     OW24234   6.454   6.629   5.927  0.7754 -0.0968 -0.3163
 7818SOL    HW124235   6.508   6.569   5.876  1.6851  0.1824  0.2949
 7818SOL    HW224236   6.506   6.648   6.005  1.3294  2.9075 -1.3030
 7819SOL     OW24237   7.136   2.194   3.426  0.1756  0.0658  0.2926
 7819SOL    HW124238   7.187   2.274   3.437 -1.3070  1.1615 -0.4513
 7819SOL    HW224239   7.146   2.147   3.509 -2.3022  3.0581  2.5310
 7820SOL     OW24240   3.451   1.407   1.144  0.7805  0.1246 -0.2627
 7820SOL    HW124241   3.524   1.444   1.095  2.6013 -1.3206  1.1979
 7820SOL    HW224242   3.487   1.389   1.231 -1.1236 -1.2654  0.3061
 7821SOL     OW24243   7.934   6.523   2.849  0.2095  0.9001  0.2372
 7821SOL    HW124244   7.995   6.466   2.801 -1.3541  0.4083 -1.2761
 7821SOL    HW224245   7.990   6.590   2.888  1.9385 -0.7318  0.7471
 7822SOL     OW24246   6.683   2.975   5.897  0.1362  0.5921 -0.3863
 7822SOL    HW124247   6.759   2.966   5.955 -0.6494 -2.5618  0.3526
 7822SOL    HW224248   6.607   2.970   5.955 -0.6563  0.8046 -1.3763
 7823SOL     OW24249   2.854   1.135   7.781  0.9222  0.0162 -0.3573
 7823SOL    HW124250   2.845   1.050   7.739 -1.0866 -0.3095  0.6014
 7823SOL    HW224251   2.764   1.166   7.793  1.5830  2.1154 -0.3342
 7824SOL     OW24252   0.085   4.001   1.334 -0.3977 -0.5056 -0.1924
 7824SOL    HW124253   0.065   4.091   1.358  1.2460 -0.3600  0.8055
 7824SOL    HW224254   0.022   3.948   1.384 -0.7773  0.0438 -0.0834
 7825SOL     OW24255   4.510   5.953   0.921 -0.2377  0.1958 -0.1678
 7825SOL    HW124256   4.458   5.924   0.996  0.4251  1.1061  0.6857
 7825SOL    HW224257   4.601   5.933   0.946 -0.1581 -1.8506 -1.8543
 7826SOL     OW24258   3.157   0.695   7.303 -0.3323 -0.1757 -0.1961
 7826SOL    HW124259   3.218   0.691   7.376 -1.2003 -2.2403  0.4886
 7826SOL    HW224260   3.090   0.757   7.332 -0.8053 -1.1731  0.9114
 7827SOL     OW24261   7.774   6.545   1.652 -0.0339  0.1590  0.0842
 7827SOL    HW124262   7.789   6.633   1.616  0.7305 -0.2731 -0.6716
 7827SOL    HW224263   7.837   6.489   1.607  0.3939 -0.5529  1.5238
 7828SOL     OW24264   7.599   1.999   2.296 -0.2714 -0.4928  0.1837
 7828SOL    HW124265   7.566   1.932   2.236 -2.6831 -0.4748  1.3732
 7828SOL    HW224266   7.620   2.074   2.240 -1.9932 -0.6485 -0.7397
 7829SOL     OW24267   1.928   0.218   0.725 -0.0668  0.4684  0.1744
 7829SOL    HW124268   1.882   0.138   0.749  2.4794 -1.3298 -0.4960
 7829SOL    HW224269   1.915   0.226   0.631 -0.3645  0.9098  0.2483
 7830SOL     OW24270   0.528   6.271   5.345 -0.3470  0.2057 -0.1609
 7830SOL    HW124271   0.445   6.226   5.331 -0.3110  0.2624 -0.5653
 7830SOL    HW224272   0.542   6.266   5.440 -0.6299 -0.1242 -0.1329
 7831SOL     OW24273   2.308   2.165   2.676 -0.8798 -0.6425 -0.3100
 7831SOL    HW124274   2.240   2.156   2.742 -0.3042 -0.1845  0.3674
 7831SOL    HW224275   2.390   2.148   2.723 -0.2513  1.8598 -0.3419
 7832SOL     OW24276   0.255   3.179   2.072  0.4564 -0.2747  0.2542
 7832SOL    HW124277   0.277   3.253   2.016 -0.9600 -0.6366 -0.8132
 7832SOL    HW224278   0.265   3.102   2.016  1.2994 -0.8569  1.1746
 7833SOL     OW24279   1.381   2.730   6.416  0.0327  0.1568  0.1142
 7833SOL    HW124280   1.413   2.680   6.341 -0.0939 -0.4846  0.4815
 7833SOL    HW224281   1.424   2.815   6.407 -1.8181  0.9677 -2.0231
 7834SOL     OW24282   2.890   2.932   4.992  0.0428 -0.5177 -0.2533
 7834SOL    HW124283   2.922   2.929   4.902 -0.7652  0.4387 -0.6025
 7834SOL    HW224284   2.912   2.847   5.029  0.0605 -1.0618 -1.4768
 7835SOL     OW24285   7.876   6.925   3.085 -1.1399  0.6833 -0.0827
 7835SOL    HW124286   7.887   6.967   3.170 -3.0020  1.7868 -0.3369
 7835SOL    HW224287   7.919   6.983   3.023  1.1696 -0.6533  0.1510
 7836SOL     OW24288   7.844   3.389   2.754 -0.1666  0.6836  0.1158
 7836SOL    HW124289   7.871   3.357   2.840  0.0418  2.5697  0.7942
 7836SOL    HW224290   7.862   3.483   2.756 -1.1505  0.9579 -1.6102
 7837SOL     OW24291   7.415   6.835   6.392 -0.1568  0.7882 -0.4216
 7837SOL    HW124292   7.466   6.795   6.461  1.1200  2.6754 -0.1930
 7837SOL    HW224293   7.428   6.779   6.316  2.5651  1.3489 -0.4516
 7838SOL     OW24294   3.109   3.222   1.669 -0.0717 -0.7441  0.0957
 7838SOL    HW124295   3.128   3.279   1.744 -1.5519 -0.1814  0.0692
 7838SOL    HW224296   3.188   3.227   1.615  1.4754 -1.9869  2.0859
 7839SOL     OW24297   1.012   0.974   5.370 -0.2596 -0.1487 -0.0671
 7839SOL    HW124298   0.918   0.970   5.356 -0.3938  0.7229  0.5363
 7839SOL    HW224299   1.028   1.062   5.401  0.7294 -0.3736  0.0935
 7840SOL     OW24300   1.418   8.174   7.483 -0.4539  0.3895  0.1650
 7840SOL    HW124301   1.432   8.107   7.551 -2.6189 -0.4377 -0.1101
 7840SOL    HW224302   1.413   8.256   7.532  1.8346  0.3611  0.5547
 7841SOL     OW24303   2.065   6.554   1.356  0.6102  0.1140 -0.4778
 7841SOL    HW124304   2.009   6.542   1.432 -0.8747  1.0419 -1.3759
 7841SOL    HW224305   2.071   6.468   1.316  0.1097 -0.0594 -0.1776
 7842SOL     OW24306   6.822   2.272   7.250 -0.2563  0.5311 -0.3672
 7842SOL    HW124307   6.834   2.366   7.235 -1.8318  0.7901 -0.2231
 7842SOL    HW224308   6.877   2.253   7.326  0.6534  1.1604 -0.8394
 7843SOL     OW24309   8.167   1.565   6.436 -0.3712 -0.3933 -0.1933
 7843SOL    HW124310   8.087   1.570   6.490 -0.7819 -0.4036 -0.7919
 7843SOL    HW224311   8.136   1.539   6.350  0.2937 -0.4410 -0.4218
 7844SOL     OW24312   2.832   4.806   3.999 -0.1503 -0.0891  0.0113
 7844SOL    HW124313   2.765   4.805   4.068 -0.2083 -0.3007 -0.0499
 7844SOL    HW224314   2.782   4.813   3.918 -0.1099 -0.5877 -0.0553
 7845SOL     OW24315   1.636   4.800   1.606 -0.6441  0.2825  0.4285
 7845SOL    HW124316   1.678   4.719   1.637 -1.1274  0.3655  1.3605
 7845SOL    HW224317   1.546   4.792   1.638 -1.3646  0.0880 -1.5424
 7846SOL     OW24318   7.470   3.146   6.812  0.6196 -0.2378  0.4402
 7846SOL    HW124319   7.526   3.196   6.753  2.9383 -2.2152  0.8069
 7846SOL    HW224320   7.382   3.158   6.778  1.5226  1.1944 -1.5475
 7847SOL     OW24321   5.266   8.297   0.231  0.4265 -0.1029 -0.1334
 7847SOL    HW124322   5.170   8.301   0.233  0.4943  2.1318  0.6484
 7847SOL    HW224323   5.288   8.226   0.292 -0.7177 -1.2213 -0.9637
 7848SOL     OW24324   7.513   7.907   5.969  0.0890  0.2995  0.5356
 7848SOL    HW124325   7.482   7.836   6.025 -0.4891 -2.4187 -2.8723
 7848SOL    HW224326   7.598   7.878   5.938 -0.4987  0.6200 -1.5485
 7849SOL     OW24327   5.873   5.805   4.417 -0.1550  0.1318 -0.6559
 7849SOL    HW124328   5.944   5.853   4.461 -0.3986 -0.4758  0.4271
 7849SOL    HW224329   5.793   5.839   4.457 -0.3081 -1.7632  0.8132
 7850SOL     OW24330   1.413   2.501   6.698  0.0376 -0.1545 -0.1883
 7850SOL    HW124331   1.470   2.577   6.690  0.9740 -0.8562 -0.3163
 7850SOL    HW224332   1.469   2.426   6.679 -0.9908 -0.8493 -0.5813
 7851SOL     OW24333   8.175   3.174   4.775  0.4293  0.2412  0.4223
 7851SOL    HW124334   8.149   3.243   4.836 -2.2409  0.5880 -0.9553
 7851SOL    HW224335   8.144   3.203   4.690  1.7911 -1.3830 -0.6990
 7852SOL     OW24336   4.577   1.536   1.725  0.4667 -0.2487 -0.3474
 7852SOL    HW124337   4.576   1.458   1.669 -0.0521 -1.1798  0.9209
 7852SOL    HW224338   4.546   1.505   1.810 -0.6226  1.5423 -0.0480
 7853SOL     OW24339   5.058   2.993   7.816 -0.0059 -0.1848 -0.3185
 7853SOL    HW124340   5.116   3.063   7.847  0.7665  0.3885 -2.7986
 7853SOL    HW224341   4.980   3.001   7.870  0.6801  1.5972  0.5058
 7854SOL     OW24342   0.347   2.900   7.588 -0.0130  0.0236 -0.3726
 7854SOL    HW124343   0.407   2.892   7.663  0.7284  0.3100 -0.9226
 7854SOL    HW224344   0.295   2.977   7.608 -0.5350 -0.4940  0.3328
 7855SOL     OW24345   3.709   0.623   0.849  0.6070  0.3932 -0.3115
 7855SOL    HW124346   3.680   0.711   0.872  0.8509  0.6517 -0.9866
 7855SOL    HW224347   3.717   0.578   0.933 -0.0231  0.8545  0.0023
 7856SOL     OW24348   8.305   5.602   2.109  0.2224 -0.2242  0.0911
 7856SOL    HW124349   8.314   5.624   2.016  1.2461 -0.5271  0.0989
 7856SOL    HW224350   8.298   5.506   2.110 -1.0219 -0.1412  0.2572
 7857SOL     OW24351   5.849   6.198   7.962  0.1046 -0.1099  0.0175
 7857SOL    HW124352   5.943   6.191   7.982  0.3310  0.6774 -0.7066
 7857SOL    HW224353   5.806   6.187   8.046  0.8151 -1.1145  0.2691
 7858SOL     OW24354   2.060   4.030   7.664 -0.1808  0.7458 -0.6057
 7858SOL    HW124355   1.989   4.051   7.724 -0.8691  1.3277 -1.5798
 7858SOL    HW224356   2.121   4.104   7.673  0.6866 -0.1019  0.7546
 7859SOL     OW24357   3.366   8.195   0.709  0.6848  0.1263  0.5830
 7859SOL    HW124358   3.279   8.190   0.749  1.5114  1.1724  2.7174
 7859SOL    HW224359   3.369   8.282   0.669  0.9728  0.3850  1.1534
 7860SOL     OW24360   4.158   3.033   6.269  0.4744 -0.5676  0.3542
 7860SOL    HW124361   4.234   3.092   6.269  0.3283 -0.2355 -2.3568
 7860SOL    HW224362   4.096   3.074   6.330  1.6781  0.2364  1.0800
 7861SOL     OW24363   7.961   2.394   2.648  0.4469 -0.3701  0.3455
 7861SOL    HW124364   7.884   2.375   2.700  0.7342 -0.9390  0.5697
 7861SOL    HW224365   8.035   2.363   2.701  0.7204 -1.3442 -0.5622
 7862SOL     OW24366   4.632   5.747   8.124 -0.4424  0.2560 -0.6635
 7862SOL    HW124367   4.547   5.744   8.079 -0.6545 -0.2566 -0.2365
 7862SOL    HW224368   4.680   5.673   8.088 -1.5508 -1.7827  1.7589
 7863SOL     OW24369   4.526   6.275   8.142 -0.3605 -0.4597 -0.7218
 7863SOL    HW124370   4.523   6.186   8.175  1.8085  0.0436  1.1475
 7863SOL    HW224371   4.565   6.326   8.214  0.1981  1.6347 -2.3895
 7864SOL     OW24372   0.195   0.201   1.059 -0.2355 -0.4422 -0.6335
 7864SOL    HW124373   0.259   0.264   1.026  0.2451 -0.2116  0.6917
 7864SOL    HW224374   0.181   0.141   0.985  0.9997 -0.1024 -1.1692
 7865SOL     OW24375   0.964   0.259   5.679 -0.2870  0.1840  0.2221
 7865SOL    HW124376   0.988   0.212   5.758 -1.7362 -3.8280 -1.4442
 7865SOL    HW224377   0.869   0.270   5.685 -0.5294 -0.8309 -1.1771
 7866SOL     OW24378   4.929   0.089   6.288 -0.1190 -0.0393  0.2031
 7866SOL    HW124379   4.880   0.098   6.207 -0.1660  0.3764  0.2792
 7866SOL    HW224380   4.959  -0.002   6.288 -2.1114 -0.7554  0.8445
 7867SOL     OW24381   7.320   4.608   7.676  0.1662 -0.7273 -0.2289
 7867SOL    HW124382   7.371   4.655   7.742  0.5357 -0.6608 -0.5593
 7867SOL    HW224383   7.368   4.621   7.594 -0.4468 -0.5468 -0.5730
 7868SOL     OW24384   4.071   4.221   5.150  0.2409  0.2897  0.2258
 7868SOL    HW124385   4.157   4.197   5.114  1.4414  2.9521  1.0247
 7868SOL    HW224386   4.032   4.277   5.083  0.7219  1.9572  1.2835
 7869SOL     OW24387   0.568   7.293   7.462  0.3397  0.5824  0.2973
 7869SOL    HW124388   0.537   7.292   7.371 -0.7573  0.7769  0.6573
 7869SOL    HW224389   0.559   7.202   7.491  0.1273  0.6291  0.3847
 7870SOL     OW24390   2.056   5.838   2.359  0.2410 -0.8740  0.8676
 7870SOL    HW124391   1.973   5.796   2.383  0.3508 -1.3894  0.3573
 7870SOL    HW224392   2.123   5.774   2.384  0.5066 -0.3485  1.5277
 7871SOL     OW24393   2.886   7.161   1.371  0.2665  0.1393 -0.2251
 7871SOL    HW124394   2.859   7.183   1.282  0.0825 -0.6924 -0.3872
 7871SOL    HW224395   2.961   7.103   1.361  0.3057  0.1141  0.1665
 7872SOL     OW24396   4.077   1.150   2.056  0.3954 -0.4736  0.3116
 7872SOL    HW124397   4.039   1.208   1.991  0.7270  1.3399  1.6414
 7872SOL    HW224398   4.002   1.109   2.099  0.0571  0.4635  0.6358
 7873SOL     OW24399   0.417   4.137   6.202  0.0414  0.5213 -0.1382
 7873SOL    HW124400   0.510   4.114   6.201 -0.4658 -1.8133  0.6576
 7873SOL    HW224401   0.394   4.138   6.295 -1.0185 -0.2596 -0.3765
 7874SOL     OW24402   0.302   7.747   8.089  0.3277  0.1722 -0.5519
 7874SOL    HW124403   0.272   7.688   8.021 -0.1947  0.6061 -0.7045
 7874SOL    HW224404   0.237   7.817   8.091  0.3372  0.1700  0.3878
 7875SOL     OW24405   2.305   4.156   5.157 -0.4065  0.9547  0.1209
 7875SOL    HW124406   2.332   4.208   5.234 -0.4546  1.4893 -0.2152
 7875SOL    HW224407   2.355   4.193   5.085  1.1649 -0.8580  0.2038
 7876SOL     OW24408   7.981   5.597   7.747 -0.5242  0.1109 -0.1931
 7876SOL    HW124409   8.067   5.561   7.770 -1.0591  1.0163  3.9510
 7876SOL    HW224410   7.919   5.528   7.771 -1.1210  0.8547  0.4406
 7877SOL     OW24411   6.674   7.447   6.252  0.2109  0.8099  0.1837
 7877SOL    HW124412   6.735   7.490   6.191 -0.0846  1.9959  0.6952
 7877SOL    HW224413   6.728   7.380   6.296  0.3169 -0.4042 -1.6732
 7878SOL     OW24414   7.333   4.444   0.939 -0.3613  0.4709  0.6575
 7878SOL    HW124415   7.365   4.535   0.942 -0.1832  0.4471 -0.1663
 7878SOL    HW224416   7.341   4.420   0.847 -1.4129 -0.0280  0.6869
 7879SOL     OW24417   6.324   2.472   7.200 -0.1998  0.1894 -0.0663
 7879SOL    HW124418   6.304   2.387   7.160  0.2612 -0.3397  0.7895
 7879SOL    HW224419   6.365   2.450   7.284 -1.2007  1.2446  0.7521
 7880SOL     OW24420   3.286   2.136   7.055  0.0731 -0.0378  0.7219
 7880SOL    HW124421   3.318   2.059   7.102  1.5328 -0.5404 -0.9883
 7880SOL    HW224422   3.219   2.102   6.997 -0.3769  0.2638  1.0566
 7881SOL     OW24423   2.390   0.594   5.738  0.0708 -0.0519  0.2640
 7881SOL    HW124424   2.430   0.661   5.793 -0.9836  1.9206 -1.2410
 7881SOL    HW224425   2.447   0.589   5.661  0.3976 -1.2679  0.5598
 7882SOL     OW24426   2.904   7.372   6.395 -0.6468  0.2629  0.5675
 7882SOL    HW124427   2.825   7.321   6.413 -0.9461  0.6584  0.3781
 7882SOL    HW224428   2.973   7.326   6.443 -1.0073 -0.0297  0.8140
 7883SOL     OW24429   4.624   6.289   0.488 -0.1072  0.0761 -0.0804
 7883SOL    HW124430   4.597   6.206   0.449 -1.2402  1.0352 -1.4170
 7883SOL    HW224431   4.577   6.356   0.438  0.5073  1.5157  1.1892
 7884SOL     OW24432   4.286   1.190   4.717 -0.1411 -0.2862 -0.3639
 7884SOL    HW124433   4.312   1.120   4.776  0.3989  0.4365  0.2811
 7884SOL    HW224434   4.231   1.248   4.770  1.7113  1.2630 -0.0462
 7885SOL     OW24435   0.969   6.164   0.648 -0.1440 -0.3747  0.0687
 7885SOL    HW124436   0.885   6.209   0.660 -0.1183  0.3611 -2.0064
 7885SOL    HW224437   1.030   6.211   0.703 -0.8827 -0.2552  0.8022
 7886SOL     OW24438   3.078   2.270   1.510 -0.0389  0.0933 -0.5427
 7886SOL    HW124439   3.156   2.233   1.550  1.4294  1.8264 -1.6912
 7886SOL    HW224440   3.088   2.251   1.417  0.4214  2.6589 -1.0741
 7887SOL     OW24441   3.072   7.949   6.634 -0.2495  0.4599  0.2127
 7887SOL    HW124442   3.134   7.962   6.706 -1.5859  1.5757  1.2231
 7887SOL    HW224443   2.990   7.985   6.667 -1.5171 -1.1888 -0.9808
 7888SOL     OW24444   6.762   4.143   4.132 -0.1899  0.4806  0.2833
 7888SOL    HW124445   6.770   4.196   4.053  0.8805 -1.2322 -0.7985
 7888SOL    HW224446   6.702   4.073   4.108  0.3211 -0.1892  0.9190
 7889SOL     OW24447   7.452   7.506   3.287  0.3427 -0.1248  0.1339
 7889SOL    HW124448   7.517   7.500   3.217  2.9759  1.3787  2.2741
 7889SOL    HW224449   7.493   7.465   3.363 -1.5064  0.2511  1.4092
 7890SOL     OW24450   6.947   0.512   2.685  0.2704  0.1159  0.2030
 7890SOL    HW124451   6.862   0.516   2.642  0.4565 -0.6408 -0.2343
 7890SOL    HW224452   7.010   0.501   2.614  0.8163  1.3958  0.4549
 7891SOL     OW24453   4.906   2.478   3.451 -0.0465  0.1486 -0.1244
 7891SOL    HW124454   4.837   2.436   3.502 -0.3073  1.4262  0.6345
 7891SOL    HW224455   4.932   2.554   3.504  3.0999 -1.1634  0.3968
 7892SOL     OW24456   1.891   1.435   1.667 -0.3683  0.0698  0.0198
 7892SOL    HW124457   1.877   1.409   1.576 -0.8790  3.1062 -0.8964
 7892SOL    HW224458   1.838   1.374   1.719 -1.4082 -0.6793 -1.8550
 7893SOL     OW24459   0.915   4.668   2.335  0.3318 -0.2487 -0.4566
 7893SOL    HW124460   0.922   4.676   2.430 -0.7505 -0.1625 -0.3638
 7893SOL    HW224461   1.001   4.638   2.306  1.0836  0.9960  0.4006
 7894SOL     OW24462   4.271   7.829   6.973 -0.1026  0.1348  0.5020
 7894SOL    HW124463   4.182   7.862   6.956 -0.4164 -0.0388  1.6740
 7894SOL    HW224464   4.276   7.825   7.069  0.3616 -2.0240  0.4295
 7895SOL     OW24465   6.956   6.501   6.011  0.5743 -0.0875 -0.0993
 7895SOL    HW124466   6.894   6.460   5.951 -1.8110 -0.7993  2.6349
 7895SOL    HW224467   6.965   6.590   5.979  0.5858 -0.8234 -2.3188
 7896SOL     OW24468   0.886   5.868   3.465 -0.8228 -0.5794 -0.0773
 7896SOL    HW124469   0.893   5.868   3.370 -1.0737  0.9807 -0.1268
 7896SOL    HW224470   0.942   5.940   3.493 -1.8813 -0.0730  0.8385
 7897SOL     OW24471   0.487   3.340   6.372  0.3265 -0.4806  0.1842
 7897SOL    HW124472   0.563   3.398   6.361 -0.4366  0.6183  0.5646
 7897SOL    HW224473   0.425   3.368   6.305 -0.3739 -0.3101  0.8805
 7898SOL     OW24474   2.747   0.094   2.878 -0.3566  0.3123  0.6363
 7898SOL    HW124475   2.702   0.048   2.949  1.2863 -0.3397  1.2915
 7898SOL    HW224476   2.742   0.186   2.902 -1.1500  0.2330  0.7961
 7899SOL     OW24477   8.217   2.871   8.312 -0.1594  0.0925 -0.3576
 7899SOL    HW124478   8.242   2.924   8.387  0.0030 -0.6857  0.1519
 7899SOL    HW224479   8.300   2.844   8.273 -0.1388 -2.0952  1.0516
 7900SOL     OW24480   1.751   5.907   5.225 -0.4196 -0.0411  0.3840
 7900SOL    HW124481   1.822   5.844   5.240 -1.2820 -1.4535 -1.1686
 7900SOL    HW224482   1.673   5.864   5.260 -0.6728  1.1975  1.4223
 7901SOL     OW24483   5.235   7.890   0.424 -0.3281 -0.1303  0.3316
 7901SOL    HW124484   5.143   7.866   0.431 -0.0034 -1.0517  1.7914
 7901SOL    HW224485   5.236   7.985   0.437 -1.2308  0.2256 -1.7044
 7902SOL     OW24486   4.594   2.512   4.558  0.3127  0.0829 -0.4352
 7902SOL    HW124487   4.550   2.427   4.551 -0.1059  0.3055 -0.5784
 7902SOL    HW224488   4.606   2.540   4.468  0.1975  0.3012 -0.3830
 7903SOL     OW24489   8.265   0.031   6.746 -0.3918 -0.2236  0.2307
 7903SOL    HW124490   8.199   0.064   6.685  0.2450  1.3627  0.3541
 7903SOL    HW224491   8.259  -0.064   6.738 -1.7282 -0.0932 -0.7783
 7904SOL     OW24492   5.113   7.430   4.260 -0.3007 -0.0107 -0.1004
 7904SOL    HW124493   5.183   7.479   4.303  1.0518 -1.2938 -0.7769
 7904SOL    HW224494   5.157   7.380   4.191 -1.8643 -0.9599 -0.4515
 7905SOL     OW24495   4.641   5.794   5.932  0.7736  0.6048  0.3185
 7905SOL    HW124496   4.681   5.881   5.933  2.1637 -0.0067  0.3302
 7905SOL    HW224497   4.672   5.754   5.850 -1.8444  0.9797 -0.9386
 7906SOL     OW24498   8.147   1.234   2.447 -0.7662 -0.0054 -0.3605
 7906SOL    HW124499   8.242   1.228   2.441 -0.5534  0.3008  1.7802
 7906SOL    HW224500   8.117   1.143   2.443 -0.1803 -0.2806  1.0400
 7907SOL     OW24501   3.869   7.665   4.379 -0.1752 -0.2402 -0.1044
 7907SOL    HW124502   3.852   7.759   4.385 -2.3126 -0.6607  2.4604
 7907SOL    HW224503   3.858   7.645   4.287 -2.3253  1.6514 -0.3640
 7908SOL     OW24504   3.584   6.798   2.777 -0.4821  0.0586  0.3471
 7908SOL    HW124505   3.655   6.751   2.732  0.5459  1.6482  0.2421
 7908SOL    HW224506   3.622   6.827   2.859 -0.3132  2.6966 -0.5878
 7909SOL     OW24507   0.932   0.386   1.918 -0.8710 -0.5200 -0.5407
 7909SOL    HW124508   0.889   0.362   2.000 -0.9387 -0.2656 -0.5019
 7909SOL    HW224509   0.964   0.303   1.883  0.9951 -0.4205  0.7595
 7910SOL     OW24510   1.704   4.268   6.477  0.0105 -0.1541 -0.2253
 7910SOL    HW124511   1.711   4.239   6.569  0.1371  1.4511  0.2917
 7910SOL    HW224512   1.617   4.241   6.450  0.1143 -0.9893  0.2333
 7911SOL     OW24513   1.236   1.676   1.506  0.0346  0.4117  0.5367
 7911SOL    HW124514   1.267   1.614   1.440  0.7543  1.8331 -0.5128
 7911SOL    HW224515   1.147   1.647   1.526 -0.3193  0.1109 -1.3016
 7912SOL     OW24516   6.978   0.288   8.071 -0.5886 -0.4177  0.2023
 7912SOL    HW124517   7.014   0.237   7.998 -0.3701  0.2942 -0.1922
 7912SOL    HW224518   7.052   0.298   8.131 -0.5862 -0.4154  0.1989
 7913SOL     OW24519   4.711   5.949   7.851 -0.0718 -0.8077  1.0075
 7913SOL    HW124520   4.794   5.998   7.853 -0.5570  0.0565  0.6320
 7913SOL    HW224521   4.737   5.858   7.845  0.9446 -0.8423  3.9518
 7914SOL     OW24522   5.498   8.232   3.458  0.4375 -0.2336  0.2814
 7914SOL    HW124523   5.410   8.260   3.484  0.2132 -0.1551 -0.5434
 7914SOL    HW224524   5.557   8.284   3.513 -0.0301 -0.4499  0.9971
 7915SOL     OW24525   7.417   0.847   6.317  0.5008  0.4736  0.6495
 7915SOL    HW124526   7.468   0.770   6.293  1.1384  1.2344 -0.5399
 7915SOL    HW224527   7.372   0.822   6.398 -0.2668 -1.5690 -0.3280
 7916SOL     OW24528   5.443   8.257   1.183  0.2377 -0.3853 -0.2890
 7916SOL    HW124529   5.520   8.267   1.127 -0.8572 -0.2516 -1.8414
 7916SOL    HW224530   5.418   8.346   1.206  0.2624 -0.3999 -0.2070
 7917SOL     OW24531   6.032   7.841   6.408  0.4657  0.2617  0.1936
 7917SOL    HW124532   6.121   7.815   6.386  0.6381  1.0753 -0.1205
 7917SOL    HW224533   6.020   7.926   6.365 -0.6929 -0.1417 -0.3289
 7918SOL     OW24534   2.152   6.819   6.593 -0.0553  0.2317  0.4779
 7918SOL    HW124535   2.182   6.804   6.503  2.3395  0.4736  1.1722
 7918SOL    HW224536   2.120   6.734   6.622 -2.5035  0.5160 -1.0997
 7919SOL     OW24537   4.626   1.937   4.161  0.2279 -0.1441 -0.0417
 7919SOL    HW124538   4.696   1.952   4.096 -1.8955  2.6393 -1.9227
 7919SOL    HW224539   4.625   2.017   4.214 -1.0503 -0.4535  0.4355
 7920SOL     OW24540   1.443   8.172   4.243  0.2501  0.0390 -0.2758
 7920SOL    HW124541   1.466   8.105   4.307  0.6077 -1.7055 -2.1422
 7920SOL    HW224542   1.447   8.128   4.158  1.7635  2.7277 -1.7465
 7921SOL     OW24543   7.445   4.974   7.358 -0.1300 -0.5787 -0.0395
 7921SOL    HW124544   7.406   5.059   7.379  2.3384  0.3009  1.5426
 7921SOL    HW224545   7.380   4.909   7.387 -3.1053  0.6097 -3.3918
 7922SOL     OW24546   0.173   6.808   5.137  0.4425 -0.8433 -0.0063
 7922SOL    HW124547   0.083   6.842   5.140  0.4871 -0.3265 -2.5119
 7922SOL    HW224548   0.223   6.872   5.187 -0.2244  0.2511 -0.6808
 7923SOL     OW24549   6.581   1.015   5.831 -0.0205 -0.3329 -0.0336
 7923SOL    HW124550   6.596   0.996   5.738  0.5137 -1.5015  0.2720
 7923SOL    HW224551   6.579   1.111   5.836  1.6119 -0.2141 -1.0134
 7924SOL     OW24552   2.910   1.382   7.120  0.2617 -0.2171  0.2322
 7924SOL    HW124553   2.941   1.385   7.029 -0.9466 -0.8773 -0.2165
 7924SOL    HW224554   2.814   1.379   7.113  0.1374  0.0230  1.5409
 7925SOL     OW24555   1.958   5.132   7.756 -0.4795  0.1129 -0.6050
 7925SOL    HW124556   1.916   5.097   7.678 -1.2879  0.7310 -0.4612
 7925SOL    HW224557   2.038   5.080   7.766 -0.1897  0.2583 -2.0335
 7926SOL     OW24558   5.517   6.892   4.284 -0.0847  0.2077  0.4021
 7926SOL    HW124559   5.528   6.810   4.331  1.3128  0.9058  1.3493
 7926SOL    HW224560   5.445   6.936   4.330  0.1924  0.1822  0.8622
 7927SOL     OW24561   1.903   4.272   5.184  0.1894  0.3366  0.6554
 7927SOL    HW124562   1.932   4.206   5.120  1.7674  0.1119  1.5560
 7927SOL    HW224563   1.882   4.221   5.262  3.1734  0.9232  1.9916
 7928SOL     OW24564   0.995   3.118   0.957 -0.3546  0.7660 -0.4468
 7928SOL    HW124565   0.917   3.103   0.904 -1.4181  2.5750  0.5153
 7928SOL    HW224566   0.961   3.140   1.044  1.2326  1.2514  0.0821
 7929SOL     OW24567   5.728   2.868   4.866  0.4098 -0.1348 -0.7505
 7929SOL    HW124568   5.780   2.854   4.945 -1.2547 -0.6142  0.3053
 7929SOL    HW224569   5.678   2.787   4.855 -1.0993  0.7791 -0.9420
 7930SOL     OW24570   6.663   6.402   0.926 -0.1094  0.4992  0.0462
 7930SOL    HW124571   6.691   6.314   0.948 -2.1008 -0.2439 -0.1875
 7930SOL    HW224572   6.691   6.455   1.001 -0.5163 -0.6771  1.0680
 7931SOL     OW24573   0.355   4.165   4.959 -0.3664 -0.0687 -0.1298
 7931SOL    HW124574   0.395   4.249   4.983  0.8829 -0.9921  1.2005
 7931SOL    HW224575   0.414   4.128   4.893 -0.7958 -0.0170 -0.5520
 7932SOL     OW24576   5.043   2.039   4.282 -0.3007 -0.6293 -0.2317
 7932SOL    HW124577   4.977   1.990   4.333  1.0027 -1.8276  0.3844
 7932SOL    HW224578   5.124   1.990   4.296  1.0574  1.6175  0.2291
 7933SOL     OW24579   4.106   1.749   1.878  0.5016 -0.0216 -0.3359
 7933SOL    HW124580   4.054   1.734   1.957  0.0274  0.0593 -0.6321
 7933SOL    HW224581   4.042   1.762   1.809  0.8895  1.7373 -0.4160
 7934SOL     OW24582   8.095   5.917   6.975  0.2575  0.2135 -0.1990
 7934SOL    HW124583   8.050   5.882   7.052  1.1601 -1.6837 -0.4892
 7934SOL    HW224584   8.028   5.917   6.907 -0.2452  0.8367  0.2789
 7935SOL     OW24585   5.609   2.731   2.679  0.7935  0.2185  0.6039
 7935SOL    HW124586   5.592   2.672   2.606  0.8194  0.6706  0.2258
 7935SOL    HW224587   5.522   2.755   2.711  0.7541  0.8520  0.0390
 7936SOL     OW24588   2.402   6.286   5.985  0.2996 -0.4401 -0.1303
 7936SOL    HW124589   2.411   6.202   5.939  0.4211 -0.3975 -0.1853
 7936SOL    HW224590   2.311   6.312   5.969 -0.5669 -1.8431  2.0902
 7937SOL     OW24591   7.921   3.920   6.520  0.4616  0.2303 -0.2661
 7937SOL    HW124592   7.989   3.983   6.497  0.9685  0.2909  1.2857
 7937SOL    HW224593   7.885   3.952   6.603 -0.6217 -0.4630 -0.4485
 7938SOL     OW24594   5.816   2.415   0.994  0.5744 -0.2243  0.0481
 7938SOL    HW124595   5.859   2.469   0.929 -0.2640  2.2099  1.3991
 7938SOL    HW224596   5.888   2.378   1.046  1.1376  0.1548 -0.4500
 7939SOL     OW24597   7.360   1.057   5.124  0.1307  0.1539  0.2957
 7939SOL    HW124598   7.393   0.982   5.174  0.1404  0.4478  0.7303
 7939SOL    HW224599   7.438   1.097   5.086  0.2580  0.7042  1.1230
 7940SOL     OW24600   1.797   3.765   7.149  0.0058  0.3019 -0.2701
 7940SOL    HW124601   1.871   3.741   7.205 -0.3365  0.8425  0.4391
 7940SOL    HW224602   1.738   3.814   7.207 -0.6413  0.3675 -0.9624
 7941SOL     OW24603   0.088   2.856   8.100 -0.0419  0.2179  0.2862
 7941SOL    HW124604   0.117   2.769   8.128 -2.3538 -1.0131 -0.8693
 7941SOL    HW224605   0.111   2.860   8.007 -0.0478  0.8321  0.3076
 7942SOL     OW24606   0.236   5.394   5.366  0.5757  0.1904  0.5129
 7942SOL    HW124607   0.221   5.366   5.275  1.5011 -0.2945  0.5021
 7942SOL    HW224608   0.271   5.482   5.358 -2.1129  1.3577  0.5378
 7943SOL     OW24609   7.463   5.900   4.537  0.2902  0.0636 -0.1953
 7943SOL    HW124610   7.458   5.816   4.583 -0.2645 -0.2317 -0.7947
 7943SOL    HW224611   7.548   5.936   4.564 -0.0418 -0.0711  1.1160
 7944SOL     OW24612   2.328   6.139   6.305 -0.5512 -0.5555  0.1975
 7944SOL    HW124613   2.291   6.227   6.298 -1.7087 -0.8683  1.8759
 7944SOL    HW224614   2.265   6.090   6.358  1.2755 -1.7130  1.4088
 7945SOL     OW24615   3.233   0.394   3.490  0.0469 -0.6005 -0.8318
 7945SOL    HW124616   3.326   0.415   3.503  0.2658 -1.3048 -1.2150
 7945SOL    HW224617   3.233   0.305   3.455 -0.8416 -1.1896  0.5638
 7946SOL     OW24618   8.274   6.120   0.051  0.2262  0.1211 -0.0644
 7946SOL    HW124619   8.186   6.127   0.013  0.1617  2.3471  0.3420
 7946SOL    HW224620   8.331   6.102  -0.024 -0.4110  0.1107 -0.5536
 7947SOL     OW24621   8.131   6.996   5.541 -0.2122  0.0740  0.1302
 7947SOL    HW124622   8.217   6.953   5.532 -0.0849  0.3933 -0.1833
 7947SOL    HW224623   8.143   7.081   5.500 -0.6334  0.1871  0.2443
 7948SOL     OW24624   2.226   3.906   1.779  0.2522  0.7148 -0.7916
 7948SOL    HW124625   2.306   3.865   1.812 -0.2729 -1.5834 -2.2025
 7948SOL    HW224626   2.246   3.930   1.689 -1.0417 -1.2479 -1.6603
 7949SOL     OW24627   4.617   4.297   6.897  0.1791  0.0875  0.1349
 7949SOL    HW124628   4.532   4.272   6.933  0.4646 -1.4003 -0.1769
 7949SOL    HW224629   4.596   4.356   6.825 -0.4476  2.1579  1.8883
 7950SOL     OW24630   7.939   6.947   6.798 -0.0581  0.1691 -0.1358
 7950SOL    HW124631   7.955   6.856   6.826 -0.6953  0.5916  1.7490
 7950SOL    HW224632   7.953   6.945   6.703 -1.3387 -2.1967 -0.3636
 7951SOL     OW24633   7.993   5.065   8.112  0.5601  0.0609  0.2080
 7951SOL    HW124634   7.940   5.014   8.173  0.6536  0.0079  0.2435
 7951SOL    HW224635   8.010   5.147   8.158 -2.9545  1.8618 -1.2969
 7952SOL     OW24636   5.561   3.982   5.323  0.2178  0.5895  0.3772
 7952SOL    HW124637   5.468   3.958   5.318  0.5634 -0.8311  0.3843
 7952SOL    HW224638   5.584   4.006   5.233  0.4164 -1.4121 -0.1457
 7953SOL     OW24639   7.376   0.762   1.013 -0.4381  0.8752 -0.3784
 7953SOL    HW124640   7.409   0.672   1.022 -0.0850  0.9028 -1.2686
 7953SOL    HW224641   7.286   0.758   1.045  0.2622  0.7044  1.6980
 7954SOL     OW24642   7.154   2.814   1.275  0.3860  0.0022 -0.1605
 7954SOL    HW124643   7.227   2.764   1.237  0.9294  0.3220  0.4289
 7954SOL    HW224644   7.184   2.905   1.271 -0.0165  0.1404  0.0245
 7955SOL     OW24645   3.101   7.876   0.670  0.2494 -0.3269  0.0325
 7955SOL    HW124646   3.156   7.898   0.745 -0.1023 -1.4485  0.6507
 7955SOL    HW224647   3.133   7.790   0.641 -1.4759 -1.2819  0.7615
 7956SOL     OW24648   8.010   2.611   6.952 -0.2482 -1.0012  0.0088
 7956SOL    HW124649   8.054   2.528   6.934  0.8188 -0.8802  1.8083
 7956SOL    HW224650   7.961   2.596   7.033  0.0751  0.1248  0.4419
 7957SOL     OW24651   2.166   6.303   3.182  0.7889 -0.0448 -0.6961
 7957SOL    HW124652   2.186   6.245   3.109  1.8577 -1.5883  0.7446
 7957SOL    HW224653   2.141   6.245   3.253  1.3946  1.2716  0.6689
 7958SOL     OW24654   6.390   6.610   0.464  0.7201  0.3958  0.1682
 7958SOL    HW124655   6.395   6.646   0.376 -0.8666  0.7760  0.1941
 7958SOL    HW224656   6.396   6.687   0.522 -0.0933  0.3625  0.3111
 7959SOL     OW24657   4.494   7.638   6.962 -0.3221  0.4160  0.2578
 7959SOL    HW124658   4.421   7.698   6.948  0.1610  1.1023  0.6266
 7959SOL    HW224659   4.544   7.677   7.034  1.6628  1.1696 -1.4260
 7960SOL     OW24660   2.317   6.142   5.740 -0.0047 -0.0119  0.1071
 7960SOL    HW124661   2.235   6.105   5.773 -0.0638  0.4595  0.5118
 7960SOL    HW224662   2.338   6.090   5.663 -0.8785  0.1021 -0.2122
 7961SOL     OW24663   5.199   3.912   5.079 -0.1880 -0.2314  0.1686
 7961SOL    HW124664   5.251   3.908   5.159  0.9699 -0.8885 -0.5809
 7961SOL    HW224665   5.121   3.860   5.098 -0.2144  0.1243  1.0608
 7962SOL     OW24666   4.659   5.839   2.929 -0.5179  0.2122 -0.3524
 7962SOL    HW124667   4.693   5.926   2.949 -0.4602  0.0034  0.4784
 7962SOL    HW224668   4.735   5.791   2.895 -0.1203 -0.0547  0.8878
 7963SOL     OW24669   0.729   2.856   5.788 -0.0840  0.1074  0.5799
 7963SOL    HW124670   0.656   2.807   5.750 -0.6036  1.2681  0.0289
 7963SOL    HW224671   0.688   2.931   5.831  0.7590  0.6092  0.5308
 7964SOL     OW24672   0.420   1.250   0.219 -1.1069  0.4509 -0.3783
 7964SOL    HW124673   0.353   1.214   0.276 -0.0027 -1.5170 -0.2438
 7964SOL    HW224674   0.455   1.325   0.267 -1.6081  0.0850  0.5853
 7965SOL     OW24675   0.681   7.191   2.487 -0.2894  0.2562  0.5662
 7965SOL    HW124676   0.605   7.148   2.446  1.4501 -0.4977 -2.1440
 7965SOL    HW224677   0.658   7.284   2.487 -1.2937  0.0252 -0.0233
 7966SOL     OW24678   6.054   1.795   1.915  0.2915 -0.6732  0.4424
 7966SOL    HW124679   6.042   1.840   1.832  0.1172  1.3490  1.5124
 7966SOL    HW224680   5.990   1.836   1.974  2.5655  0.2423  2.4242
 7967SOL     OW24681   4.731   5.179   1.381 -0.1442  0.0390  0.1544
 7967SOL    HW124682   4.640   5.168   1.408  0.2767 -0.9237  1.2453
 7967SOL    HW224683   4.760   5.092   1.355  0.6046  0.2393  0.2799
 7968SOL     OW24684   0.220   6.807   7.684  0.7549 -0.0783  0.1174
 7968SOL    HW124685   0.128   6.784   7.695  0.6919 -0.1796 -0.6151
 7968SOL    HW224686   0.267   6.744   7.739  0.3762  0.1629  0.7303
 7969SOL     OW24687   7.510   0.847   2.217  0.1844 -0.1445 -0.0570
 7969SOL    HW124688   7.519   0.825   2.125 -0.2770 -0.4831 -0.0253
 7969SOL    HW224689   7.417   0.867   2.228  0.8097  3.8785 -0.5227
 7970SOL     OW24690   5.016   1.214   1.619 -0.0426  0.2610 -0.0272
 7970SOL    HW124691   4.934   1.187   1.579  1.4615 -0.7736 -2.6153
 7970SOL    HW224692   5.027   1.305   1.592 -0.3168  0.3954  0.3082
 7971SOL     OW24693   0.980   8.022   1.128 -0.3001 -0.3158 -0.0068
 7971SOL    HW124694   0.993   7.927   1.127 -0.3252 -0.3492 -2.1286
 7971SOL    HW224695   1.047   8.056   1.187 -0.2936 -1.6411  0.7776
 7972SOL     OW24696   1.364   0.534   5.437  0.1269 -0.4303 -0.3619
 7972SOL    HW124697   1.438   0.568   5.387  0.2411 -0.7195 -0.3886
 7972SOL    HW224698   1.334   0.457   5.388  0.9677 -1.4130  0.6091
 7973SOL     OW24699   4.566   2.104   7.201  0.1370 -0.3730 -0.5432
 7973SOL    HW124700   4.619   2.153   7.137  0.1680  1.1821  0.5922
 7973SOL    HW224701   4.523   2.173   7.253 -0.5664 -1.5936  0.5388
 7974SOL     OW24702   1.663   8.322   4.783  0.0167 -0.3283  0.0454
 7974SOL    HW124703   1.653   8.235   4.744  0.9624 -0.0499 -0.8693
 7974SOL    HW224704   1.736   8.361   4.735 -1.3426  1.5514 -0.6203
 7975SOL     OW24705   2.759   7.088   7.895 -0.6279  0.0988  0.0366
 7975SOL    HW124706   2.846   7.064   7.929 -0.1868  1.3456 -0.1618
 7975SOL    HW224707   2.714   7.004   7.883  0.2901 -0.5287  0.8223
 7976SOL     OW24708   4.566   7.007   1.216 -0.4143  0.0907 -0.4998
 7976SOL    HW124709   4.550   6.914   1.198  0.2617 -0.5252  1.7206
 7976SOL    HW224710   4.599   7.042   1.134 -0.7180 -1.6244 -1.3990
 7977SOL     OW24711   3.322   3.187   2.097 -0.2013 -0.3193 -0.1920
 7977SOL    HW124712   3.401   3.237   2.120 -0.6494  1.4734 -2.1212
 7977SOL    HW224713   3.352   3.125   2.030 -0.1670 -0.6069  0.0917
 7978SOL     OW24714   5.140   0.941   3.622  0.3988  0.7077  0.6563
 7978SOL    HW124715   5.081   1.011   3.592 -2.0875 -1.0869  1.0832
 7978SOL    HW224716   5.120   0.931   3.715 -0.7699 -1.8338  0.2053
 7979SOL     OW24717   5.829   0.407   5.859  0.2322  0.6778 -0.3138
 7979SOL    HW124718   5.786   0.492   5.848 -0.3572  0.3242 -0.7339
 7979SOL    HW224719   5.766   0.354   5.908  0.7947  0.6316  0.3720
 7980SOL     OW24720   5.452   4.236   6.293 -0.5068 -0.6649 -0.5021
 7980SOL    HW124721   5.371   4.227   6.244  0.1435  0.1345 -1.7860
 7980SOL    HW224722   5.439   4.313   6.349 -0.5829 -0.4489 -0.8161
 7981SOL     OW24723   7.923   2.758   2.186 -0.3064 -0.2811 -0.5289
 7981SOL    HW124724   7.876   2.705   2.251 -0.9904 -0.2159 -0.9568
 7981SOL    HW224725   7.948   2.695   2.118  0.0862 -0.2877 -0.3770
 7982SOL     OW24726   6.227   1.466   7.325  0.2101  0.2353  0.1857
 7982SOL    HW124727   6.210   1.375   7.302 -0.3584  0.6987 -1.3157
 7982SOL    HW224728   6.312   1.464   7.370 -0.6339 -1.2424  1.8117
 7983SOL     OW24729   0.890   6.953   7.118 -0.4341 -0.5346 -0.1334
 7983SOL    HW124730   0.871   6.928   7.208 -0.3532  0.3604  0.1510
 7983SOL    HW224731   0.966   7.012   7.126 -0.5916 -0.2411 -0.7553
 7984SOL     OW24732   1.857   2.528   5.104  0.3575  0.0312 -0.5802
 7984SOL    HW124733   1.811   2.523   5.020  1.6881 -0.0494 -1.3179
 7984SOL    HW224734   1.799   2.481   5.165 -0.4289 -0.2631 -1.5234
 7985SOL     OW24735   6.915   2.582   4.451 -0.0062 -0.2390 -0.0719
 7985SOL    HW124736   6.945   2.494   4.429 -1.2753 -0.9288  0.7925
 7985SOL    HW224737   6.946   2.637   4.379  0.5676 -1.4384 -0.7697
 7986SOL     OW24738   1.898   4.048   4.747 -0.4587 -0.1527  0.1695
 7986SOL    HW124739   1.992   4.058   4.735 -0.6308  0.2903 -0.8775
 7986SOL    HW224740   1.888   4.021   4.838  0.5460  1.5731  0.8191
 7987SOL     OW24741   6.443   1.142   2.938 -0.2672  0.1353 -0.0833
 7987SOL    HW124742   6.516   1.105   2.988 -0.8683 -0.4665  0.3614
 7987SOL    HW224743   6.435   1.085   2.862 -1.7973 -1.2809  1.0700
 7988SOL     OW24744   2.972   1.561   0.618 -0.0620  0.1631  0.0816
 7988SOL    HW124745   2.953   1.577   0.525  2.5481 -0.9166 -0.7281
 7988SOL    HW224746   3.054   1.607   0.634 -1.0181  1.2951  2.2468
 7989SOL     OW24747   5.281   6.019   4.271 -0.1210  0.8323 -0.0984
 7989SOL    HW124748   5.375   6.036   4.263  0.1573 -1.1839 -2.5428
 7989SOL    HW224749   5.275   5.931   4.308 -1.2517  2.2972  3.6669
 7990SOL     OW24750   5.504   0.213   3.847 -0.1857 -0.6332  0.2192
 7990SOL    HW124751   5.429   0.173   3.892  0.8760 -1.1385  1.6047
 7990SOL    HW224752   5.511   0.165   3.765 -0.0838 -2.0775  1.0313
 7991SOL     OW24753   2.692   4.695   5.280  0.2235  0.8441 -0.1469
 7991SOL    HW124754   2.702   4.766   5.344 -0.2147  0.4097  0.4069
 7991SOL    HW224755   2.772   4.700   5.226  1.0438  0.6137  1.0232
 7992SOL     OW24756   7.712   1.462   7.591 -0.1250 -0.0377  0.4493
 7992SOL    HW124757   7.719   1.378   7.545  0.1757  0.6418 -0.7767
 7992SOL    HW224758   7.797   1.504   7.579  0.0912  0.0037  1.9678
 7993SOL     OW24759   5.355   7.209   2.811 -0.3580  0.0276 -0.0998
 7993SOL    HW124760   5.428   7.205   2.874 -0.8759 -0.4170  0.4882
 7993SOL    HW224761   5.395   7.239   2.730  0.2117  1.2757  0.6143
 7994SOL     OW24762   4.097   5.538   4.671 -0.1784 -0.5476 -0.0449
 7994SOL    HW124763   4.019   5.540   4.616 -0.0109 -2.3076 -0.4115
 7994SOL    HW224764   4.074   5.592   4.747 -1.6708 -0.8608 -0.2456
 7995SOL     OW24765   3.373   5.988   6.163  0.6721  0.1350  0.7956
 7995SOL    HW124766   3.408   6.064   6.210  0.2416  2.1217 -1.8763
 7995SOL    HW224767   3.413   5.993   6.076 -1.0891 -1.4317 -0.1663
 7996SOL     OW24768   0.712   7.846   3.503  0.6944 -0.0397 -0.2709
 7996SOL    HW124769   0.646   7.788   3.541  0.1829  0.7778  0.1280
 7996SOL    HW224770   0.726   7.913   3.570  1.3894  0.2097 -0.6599
 7997SOL     OW24771   3.717   0.851   2.589 -0.3011  0.1565  0.0717
 7997SOL    HW124772   3.659   0.907   2.537  1.1027  1.4103 -0.2183
 7997SOL    HW224773   3.790   0.908   2.614 -0.1146 -0.8590  2.0319
 7998SOL     OW24774   3.407   5.975   1.469  0.1037 -0.1426  0.1641
 7998SOL    HW124775   3.327   5.961   1.418 -0.7428  1.4659  0.9390
 7998SOL    HW224776   3.478   5.958   1.408 -0.8597  0.3208 -1.1475
 7999SOL     OW24777   7.989   7.959   0.759 -0.0646  0.2291 -0.3273
 7999SOL    HW124778   7.999   7.927   0.670 -0.9689  1.6367 -0.9629
 7999SOL    HW224779   8.003   8.054   0.753  1.2622  0.1881  1.2679
 8000SOL     OW24780   2.428   5.627   1.800  0.0404 -0.6095 -0.2362
 8000SOL    HW124781   2.457   5.564   1.734 -2.3255 -1.5393 -0.4783
 8000SOL    HW224782   2.392   5.700   1.751  2.1034  0.6843  0.0571
 8001SOL     OW24783   0.490   1.351   2.372  0.5367 -0.0878  0.6983
 8001SOL    HW124784   0.542   1.431   2.385 -1.5302  1.9147 -2.0100
 8001SOL    HW224785   0.539   1.301   2.307  0.7016  0.1377  0.6475
 8002SOL     OW24786   0.607   3.385   2.507 -0.9205 -0.1291 -0.4382
 8002SOL    HW124787   0.568   3.332   2.437 -1.6120  0.6729 -0.6765
 8002SOL    HW224788   0.692   3.343   2.524 -0.6041 -0.1839 -1.9676
 8003SOL     OW24789   0.990   1.301   2.912 -0.0595  0.7276  0.3656
 8003SOL    HW124790   0.897   1.281   2.922  0.0283 -1.4353 -2.0321
 8003SOL    HW224791   1.035   1.220   2.935  0.8999  0.4776 -2.0198
 8004SOL     OW24792   0.065   4.902   4.262  0.3390 -0.5842  0.6784
 8004SOL    HW124793  -0.010   4.931   4.211  1.2313  0.9586  0.2034
 8004SOL    HW224794   0.106   4.834   4.208  0.7624  0.4023 -0.2705
 8005SOL     OW24795   2.671   6.271   4.345 -0.4606 -0.1812 -0.0383
 8005SOL    HW124796   2.709   6.356   4.367 -0.3867  1.1362 -4.3424
 8005SOL    HW224797   2.734   6.207   4.380  1.1413  1.6209  0.5557
 8006SOL     OW24798   5.206   3.350   2.884 -0.1758  0.2098  0.2826
 8006SOL    HW124799   5.166   3.422   2.933 -0.5173 -0.1107  0.4796
 8006SOL    HW224800   5.239   3.291   2.952 -1.4703 -0.7010  0.1599
 8007SOL     OW24801   0.578   0.236   3.464 -0.2362 -0.7736 -0.4424
 8007SOL    HW124802   0.594   0.297   3.392  0.4430  1.0329  1.1480
 8007SOL    HW224803   0.484   0.244   3.482  0.0914  1.0586  0.7380
 8008SOL     OW24804   3.865   5.547   2.388  0.1721  0.2876 -0.1012
 8008SOL    HW124805   3.915   5.620   2.351  0.0565  0.4767  0.1163
 8008SOL    HW224806   3.773   5.573   2.379  0.1496  1.5944  2.7941
 8009SOL     OW24807   7.212   2.490   4.579  0.3100  0.3648  0.0424
 8009SOL    HW124808   7.259   2.510   4.498 -0.1136 -0.8956 -0.5443
 8009SOL    HW224809   7.140   2.434   4.551 -0.6052  0.9535  1.1407
 8010SOL     OW24810   4.867   1.842   1.963  0.2593 -0.0581  0.2633
 8010SOL    HW124811   4.791   1.823   2.017 -1.5571  1.6405 -1.5199
 8010SOL    HW224812   4.859   1.782   1.888  2.0281 -1.4846  1.1276
 8011SOL     OW24813   6.039   2.895   3.090 -0.2760  0.3768 -0.1264
 8011SOL    HW124814   6.040   2.854   3.003  4.7608  1.0703 -0.6598
 8011SOL    HW224815   6.048   2.821   3.151  0.0648  0.1460 -0.4547
 8012SOL     OW24816   0.068   7.296   0.430 -0.2463 -0.2654  0.0250
 8012SOL    HW124817   0.036   7.341   0.352 -1.3330 -0.8378  0.1183
 8012SOL    HW224818   0.126   7.228   0.396  1.0837  0.9134 -0.1355
 8013SOL     OW24819   4.803   4.858   0.366 -0.6121  0.2170 -0.1654
 8013SOL    HW124820   4.768   4.842   0.279 -0.3925  0.3454 -0.2774
 8013SOL    HW224821   4.892   4.823   0.362 -0.5708  0.3074 -0.0200
 8014SOL     OW24822   5.070   5.760   4.090 -0.2268 -0.1262  0.1589
 8014SOL    HW124823   5.142   5.720   4.139  0.0058 -0.9127 -0.7956
 8014SOL    HW224824   5.110   5.787   4.007 -0.6522  1.0311  0.3042
 8015SOL     OW24825   6.261   2.691   0.406 -0.2265  0.1344 -0.3610
 8015SOL    HW124826   6.245   2.736   0.489  0.2860  0.8638 -0.6528
 8015SOL    HW224827   6.223   2.604   0.419  0.2457  0.0830  0.8019
 8016SOL     OW24828   0.457   6.225   0.239  0.9051  0.0144  0.0945
 8016SOL    HW124829   0.439   6.233   0.145 -0.8070 -0.7902  0.3322
 8016SOL    HW224830   0.531   6.164   0.243 -1.1550 -2.7084 -0.6453
 8017SOL     OW24831   1.733   5.647   0.753  0.2726  0.1355  1.2312
 8017SOL    HW124832   1.747   5.608   0.839 -0.5646  1.2399  1.8929
 8017SOL    HW224833   1.771   5.734   0.759  0.6259  0.0515  0.3274
 8018SOL     OW24834   1.898   1.503   7.909  0.4689  0.1685  0.1593
 8018SOL    HW124835   1.817   1.505   7.858 -0.1742 -0.0568  1.1313
 8018SOL    HW224836   1.869   1.498   8.000  1.5784  0.6510  0.5655
 8019SOL     OW24837   1.490   0.133   4.265  0.1644 -0.2648  0.3822
 8019SOL    HW124838   1.486   0.040   4.243  0.7766 -0.0469 -0.6809
 8019SOL    HW224839   1.464   0.179   4.185 -2.3158  0.4696  1.5050
 8020SOL     OW24840   1.407   7.843   6.043  0.1148  0.3551 -0.4957
 8020SOL    HW124841   1.330   7.838   6.100  1.4196  1.8941  1.5517
 8020SOL    HW224842   1.372   7.847   5.954 -2.1435  0.8554  0.3692
 8021SOL     OW24843   0.280   3.623   4.469 -0.1667  0.0555  0.4640
 8021SOL    HW124844   0.229   3.614   4.549 -0.1867 -1.5274  0.2902
 8021SOL    HW224845   0.347   3.688   4.490 -0.0005 -0.5499  1.8349
 8022SOL     OW24846   2.703   6.809   7.011 -0.0185 -0.0560  0.9422
 8022SOL    HW124847   2.699   6.791   6.917 -2.4420  1.3786  0.6952
 8022SOL    HW224848   2.730   6.901   7.016  1.1836 -0.4302  1.7318
 8023SOL     OW24849   5.049   1.609   3.193  0.2966 -0.5919 -0.7770
 8023SOL    HW124850   5.018   1.699   3.203  0.2968 -0.7077  0.3619
 8023SOL    HW224851   5.130   1.605   3.243 -0.9601 -1.8423  1.3247
 8024SOL     OW24852   5.557   1.480   4.736 -0.8772 -0.2254  0.2660
 8024SOL    HW124853   5.581   1.406   4.791 -3.5964  0.7376  3.0302
 8024SOL    HW224854   5.639   1.529   4.725  0.3961 -2.1603  0.6386
 8025SOL     OW24855   6.432   0.567   4.753 -0.0983 -0.2315 -0.2099
 8025SOL    HW124856   6.479   0.546   4.672 -0.2215 -0.8819 -0.1221
 8025SOL    HW224857   6.485   0.634   4.795 -0.0335  0.1066 -0.8307
 8026SOL     OW24858   2.270   2.431   8.288 -0.2558  0.5425 -0.0446
 8026SOL    HW124859   2.268   2.338   8.312 -2.3309  0.3496 -0.7567
 8026SOL    HW224860   2.345   2.439   8.230 -0.8239 -1.0057 -1.0502
 8027SOL     OW24861   1.017   2.431   0.330 -0.2447  0.1480 -0.4193
 8027SOL    HW124862   1.110   2.410   0.325  0.0188  0.8114  1.0174
 8027SOL    HW224863   1.011   2.520   0.294 -0.4195 -0.0909 -0.9951
 8028SOL     OW24864   3.495   1.547   2.466 -0.0091  0.6575  0.3119
 8028SOL    HW124865   3.555   1.580   2.533  0.4796  0.5714 -0.0741
 8028SOL    HW224866   3.422   1.510   2.515  0.7369 -0.1759  0.8178
 8029SOL     OW24867   0.266   3.343   0.564  0.1877  0.7619  0.7122
 8029SOL    HW124868   0.356   3.323   0.539 -0.0345 -1.9428  1.7022
 8029SOL    HW224869   0.259   3.438   0.559  2.0449  0.8435 -2.7373
 8030SOL     OW24870   0.929   7.272   6.111  0.4665 -0.2851  0.4703
 8030SOL    HW124871   0.855   7.322   6.074 -0.1505 -0.7492  1.0640
 8030SOL    HW224872   0.950   7.208   6.043  2.3242  1.7493 -1.0152
 8031SOL     OW24873   7.482   4.388   3.228 -0.7091  0.7613 -0.2102
 8031SOL    HW124874   7.498   4.297   3.253 -0.2545  0.6245 -0.9602
 8031SOL    HW224875   7.568   4.420   3.200 -1.0583  1.1166 -0.8884
 8032SOL     OW24876   1.830   2.715   5.961 -0.2092  0.0755 -0.5787
 8032SOL    HW124877   1.825   2.805   5.928 -0.4514 -0.3995 -1.9352
 8032SOL    HW224878   1.807   2.722   6.053 -3.0303  1.0694 -1.2393
 8033SOL     OW24879   5.107   5.163   8.080  0.5622  0.2609 -0.2032
 8033SOL    HW124880   5.139   5.106   8.009  1.7231  1.7667 -0.9261
 8033SOL    HW224881   5.012   5.153   8.076  0.6225 -0.0079 -1.7079
 8034SOL     OW24882   7.323   0.264   5.946  0.0083  0.1330  0.3290
 8034SOL    HW124883   7.309   0.172   5.968  1.1393  0.0327  0.6806
 8034SOL    HW224884   7.393   0.292   6.005  0.0859  1.0602 -0.1896
 8035SOL     OW24885   0.814   4.821   5.617  0.5126 -0.7270 -0.6732
 8035SOL    HW124886   0.770   4.854   5.539  0.2234  1.0199  0.1625
 8035SOL    HW224887   0.894   4.781   5.584  0.6105  0.3628 -1.8602
 8036SOL     OW24888   4.626   5.437   2.252  0.2383 -0.3831  0.1339
 8036SOL    HW124889   4.683   5.403   2.322 -0.4505 -0.7168  0.5412
 8036SOL    HW224890   4.539   5.442   2.292 -0.2087 -0.7641 -0.7551
 8037SOL     OW24891   1.176   5.573   4.152  0.2676  0.4550  0.3016
 8037SOL    HW124892   1.127   5.628   4.213 -0.8412 -0.4325  0.2241
 8037SOL    HW224893   1.112   5.546   4.086  0.6356 -1.4113  0.6713
 8038SOL     OW24894   1.203   3.456   7.673 -0.1512 -0.2512  0.2719
 8038SOL    HW124895   1.191   3.474   7.767 -1.4854  1.6422 -0.2080
 8038SOL    HW224896   1.189   3.362   7.665  2.5344 -0.9776  2.2980
 8039SOL     OW24897   7.066   0.871   0.138 -0.1589 -0.0619  0.1201
 8039SOL    HW124898   7.156   0.838   0.142  0.6214  1.7585 -0.9630
 8039SOL    HW224899   7.043   0.888   0.230 -0.0133 -1.9809  0.5511
 8040SOL     OW24900   1.545   7.512   1.263 -0.1189 -0.2409 -0.1880
 8040SOL    HW124901   1.608   7.533   1.194  0.6052 -0.9073  0.2467
 8040SOL    HW224902   1.598   7.471   1.331 -0.7263  0.9054  1.0138
 8041SOL     OW24903   7.084   8.217   1.049  0.0905 -0.5009 -0.6809
 8041SOL    HW124904   7.006   8.201   0.996  0.2290 -0.4174 -0.9081
 8041SOL    HW224905   7.126   8.131   1.056  0.5159 -0.3602 -1.4019
 8042SOL     OW24906   6.819   0.498   0.156  0.2798 -0.4686  0.0722
 8042SOL    HW124907   6.844   0.406   0.148  0.3436 -0.4968  0.5970
 8042SOL    HW224908   6.728   0.496   0.185 -0.2083 -0.3643 -1.3719
 8043SOL     OW24909   2.376   5.346   5.760 -0.6397  0.2340 -0.4216
 8043SOL    HW124910   2.422   5.290   5.698  0.6344  0.7655 -0.0019
 8043SOL    HW224911   2.305   5.292   5.794  1.4636 -1.7626  1.1519
 8044SOL     OW24912   0.096   7.503   8.207  0.1308  0.0501  0.8011
 8044SOL    HW124913   0.093   7.586   8.160  0.0703  0.2494  1.1483
 8044SOL    HW224914   0.163   7.452   8.162 -1.9365 -0.9182 -1.3344
 8045SOL     OW24915   4.829   0.428   1.241  0.6816  0.0500  0.1912
 8045SOL    HW124916   4.795   0.510   1.205 -1.4740 -0.6138  0.5592
 8045SOL    HW224917   4.828   0.368   1.167  0.2650 -0.1903  0.3892
 8046SOL     OW24918   6.312   6.067   1.273 -0.1922  0.3064 -0.2412
 8046SOL    HW124919   6.407   6.071   1.263 -0.1559 -0.7869 -0.4466
 8046SOL    HW224920   6.298   6.049   1.366 -0.1140 -1.2989 -0.5076
 8047SOL     OW24921   5.025   2.975   3.841 -0.1887 -0.1080 -0.1837
 8047SOL    HW124922   4.946   2.964   3.789 -1.9870  1.1714  2.0731
 8047SOL    HW224923   5.039   3.070   3.845 -0.4794 -0.1016  2.0447
 8048SOL     OW24924   7.724   0.297   1.858  0.0755  0.4273  0.5549
 8048SOL    HW124925   7.800   0.276   1.803 -0.9083  0.9019 -1.0604
 8048SOL    HW224926   7.738   0.387   1.886  1.3633 -0.3294  2.4672
 8049SOL     OW24927   0.591   0.481   6.026  0.7681 -0.3261 -0.4397
 8049SOL    HW124928   0.654   0.541   5.986  2.0318  0.0894  1.9638
 8049SOL    HW224929   0.577   0.517   6.113  0.3810 -2.6894  0.5290
 8050SOL     OW24930   7.568   3.781   4.412  0.3169 -0.5458 -0.3325
 8050SOL    HW124931   7.568   3.700   4.463  0.1689 -0.5405 -0.3240
 8050SOL    HW224932   7.536   3.754   4.326 -1.9946 -0.0918  0.3147
 8051SOL     OW24933   8.278   7.979   0.726  0.1499 -0.7806 -0.2728
 8051SOL    HW124934   8.185   7.958   0.719  0.0838 -0.4438 -0.4029
 8051SOL    HW224935   8.302   8.011   0.639  0.4168 -0.9891 -0.2772
 8052SOL     OW24936   7.714   6.446   7.305  0.1542 -0.1404  0.0303
 8052SOL    HW124937   7.672   6.385   7.365 -0.9993 -0.2854 -0.8968
 8052SOL    HW224938   7.711   6.531   7.350 -0.8128 -0.2203  0.1351
 8053SOL     OW24939   1.635   4.976   1.026  0.7041  0.5411  0.1635
 8053SOL    HW124940   1.605   4.959   1.115 -3.2927 -1.6264 -1.3329
 8053SOL    HW224941   1.730   4.978   1.033  0.6041 -0.1560  4.3274
 8054SOL     OW24942   1.056   2.432   6.495 -0.4857 -0.5811 -0.6338
 8054SOL    HW124943   1.126   2.448   6.558 -1.0279  0.7482 -0.3307
 8054SOL    HW224944   1.099   2.437   6.410 -0.4477  2.0177 -0.5379
 8055SOL     OW24945   6.956   2.884   6.721 -0.6324  0.1484 -0.1924
 8055SOL    HW124946   6.937   2.802   6.676 -0.6847  0.9832 -1.7405
 8055SOL    HW224947   7.023   2.927   6.668 -0.4962  1.0487  0.6638
 8056SOL     OW24948   3.350   0.777   5.816 -0.4421  0.3041 -0.3456
 8056SOL    HW124949   3.341   0.693   5.770  0.1812  0.7096 -1.2366
 8056SOL    HW224950   3.288   0.835   5.771  0.4880  0.8228 -0.9783
 8057SOL     OW24951   5.421   7.787   0.594  0.7826  0.2881 -0.2783
 8057SOL    HW124952   5.370   7.832   0.527  0.0102  0.8056  0.6343
 8057SOL    HW224953   5.501   7.838   0.603  0.1469  1.2081  0.3705
 8058SOL     OW24954   0.785   8.068   7.861  0.4272  0.1680  0.1154
 8058SOL    HW124955   0.869   8.113   7.864  0.0728  0.7854  2.2437
 8058SOL    HW224956   0.788   8.007   7.935 -0.1394 -1.4733 -1.1446
 8059SOL     OW24957   0.121   1.690   3.076 -0.5740  0.4379 -0.1376
 8059SOL    HW124958   0.212   1.663   3.064 -0.6899 -0.1841  0.3108
 8059SOL    HW224959   0.125   1.762   3.139 -0.5386 -1.0283  1.6322
 8060SOL     OW24960   0.473   0.917   5.640 -0.1655  0.1379 -0.3907
 8060SOL    HW124961   0.429   0.911   5.725 -0.3688 -1.1666 -0.5612
 8060SOL    HW224962   0.564   0.895   5.658 -0.6563 -2.6411 -0.8193
 8061SOL     OW24963   7.360   6.064   0.960 -0.6777 -0.5671 -0.3080
 8061SOL    HW124964   7.386   6.155   0.947 -0.9275 -0.3895  0.3912
 8061SOL    HW224965   7.426   6.013   0.912  0.3770 -0.0934  0.5932
 8062SOL     OW24966   0.295   2.970   2.841 -0.7915  0.2507 -0.1267
 8062SOL    HW124967   0.293   3.036   2.771  0.5217 -1.4691 -1.9079
 8062SOL    HW224968   0.254   2.893   2.802  0.8295 -1.0596  0.6406
 8063SOL     OW24969   1.694   2.082   2.445  0.3975 -0.0178 -0.5037
 8063SOL    HW124970   1.754   2.081   2.371  1.1362  1.1744  0.0397
 8063SOL    HW224971   1.748   2.110   2.519 -0.4691 -0.5374  0.3473
 8064SOL     OW24972   2.481   3.596   6.948  0.3840  0.6766  0.0356
 8064SOL    HW124973   2.493   3.547   7.030 -1.1856  0.3808  0.1311
 8064SOL    HW224974   2.425   3.670   6.973  1.9467  2.0184 -0.2981
 8065SOL     OW24975   8.172   8.173   0.203  0.4123 -0.6061 -0.4805
 8065SOL    HW124976   8.224   8.143   0.278  1.0551 -2.9069 -1.7338
 8065SOL    HW224977   8.082   8.167   0.233  0.5713 -2.8902 -0.2651
 8066SOL     OW24978   1.984   5.209   4.990 -0.4339  0.4518  0.5438
 8066SOL    HW124979   1.930   5.190   4.913  0.7901 -1.0298 -0.0015
 8066SOL    HW224980   1.936   5.170   5.063 -0.1668 -0.8235  0.0698
 8067SOL     OW24981   4.111   2.979   7.108 -0.0148 -0.1871 -0.6397
 8067SOL    HW124982   4.076   3.067   7.123  1.0480 -0.0316  1.3062
 8067SOL    HW224983   4.036   2.921   7.121 -0.2426  0.3146  0.4472
 8068SOL     OW24984   3.494   7.270   3.420 -0.8846 -0.0499 -0.2117
 8068SOL    HW124985   3.582   7.307   3.421 -1.0117  0.2438  0.9974
 8068SOL    HW224986   3.508   7.176   3.416 -0.5119 -0.0061  0.0036
 8069SOL     OW24987   5.457   5.179   4.096 -0.4322  0.0135  0.1947
 8069SOL    HW124988   5.430   5.090   4.076  0.7167 -1.1132  3.0676
 8069SOL    HW224989   5.552   5.174   4.105 -0.3466  1.5249  0.4703
 8070SOL     OW24990   6.347   0.157   6.447  0.1982  0.2196 -0.1138
 8070SOL    HW124991   6.302   0.241   6.445 -3.8207 -1.5778  2.2953
 8070SOL    HW224992   6.382   0.150   6.536  3.0987  0.3729 -1.1148
 8071SOL     OW24993   3.733   7.509   1.494  0.1310  0.6998 -0.3860
 8071SOL    HW124994   3.763   7.583   1.547  1.2579  0.0341 -0.0883
 8071SOL    HW224995   3.813   7.469   1.461 -0.3853 -1.3674  0.7596
 8072SOL     OW24996   5.263   5.395   5.163 -0.7003 -0.1399  0.4749
 8072SOL    HW124997   5.279   5.334   5.235 -2.8607  0.2418  1.3774
 8072SOL    HW224998   5.232   5.474   5.206  0.0605  0.8825 -0.7966
 8073SOL     OW24999   1.959   2.065   7.507  0.6631 -0.4696  0.3393
 8073SOL    HW125000   2.023   2.001   7.475 -0.2856 -1.2265 -0.1050
 8073SOL    HW225001   1.876   2.037   7.469 -0.0576  0.1130  1.4241
 8074SOL     OW25002   0.583   1.242   3.486 -0.3542 -0.2988 -0.3131
 8074SOL    HW125003   0.562   1.315   3.428 -5.1040 -1.5690 -0.6377
 8074SOL    HW225004   0.641   1.186   3.435  1.1104  1.8054 -1.0949
 8075SOL     OW25005   8.063   3.799   5.065 -0.0226 -0.1247  0.4709
 8075SOL    HW125006   8.076   3.839   5.151  1.1317  0.3677  0.0800
 8075SOL    HW225007   7.968   3.803   5.052 -0.0394  1.6808  0.8449
 8076SOL     OW25008   5.070   4.357   3.928 -0.1675 -0.0424 -0.2981
 8076SOL    HW125009   5.138   4.423   3.919 -0.2539  0.0717 -0.1263
 8076SOL    HW225010   4.988   4.406   3.920 -0.2392 -0.0339  0.4459
 8077SOL     OW25011   0.067   8.189   7.116 -0.0582  0.3437  0.1023
 8077SOL    HW125012   0.137   8.165   7.175 -0.2370  0.1790  0.2493
 8077SOL    HW225013  -0.010   8.143   7.150 -0.2289  0.4954 -0.0758
 8078SOL     OW25014   5.640   6.035   2.526  0.2256 -0.3591  0.7089
 8078SOL    HW125015   5.622   5.964   2.587  1.5337 -2.5015 -1.2447
 8078SOL    HW225016   5.695   5.996   2.458  0.2091  2.2891 -0.9993
 8079SOL     OW25017   5.473   5.850   1.317 -0.5873 -0.1061  0.5808
 8079SOL    HW125018   5.449   5.808   1.399 -0.2371 -2.7283 -0.5620
 8079SOL    HW225019   5.395   5.840   1.261 -0.3570  0.4600  0.1461
 8080SOL     OW25020   4.148   6.128   3.785 -0.0440 -0.4902  0.1083
 8080SOL    HW125021   4.153   6.206   3.729 -2.3992 -0.7628 -0.5705
 8080SOL    HW225022   4.063   6.135   3.827  0.8442 -1.3388  2.1717
 8081SOL     OW25023   1.187   1.569   8.120 -0.7692 -0.1911  0.2546
 8081SOL    HW125024   1.230   1.522   8.192 -0.3596  0.3279  0.3581
 8081SOL    HW225025   1.203   1.515   8.043 -0.6662 -0.4331  0.4466
 8082SOL     OW25026   7.937   0.713   6.718 -0.3205 -0.3877  0.5447
 8082SOL    HW125027   7.878   0.753   6.655  2.5687 -1.0704 -2.9256
 8082SOL    HW225028   8.011   0.774   6.724  1.0613 -1.9872  0.4524
 8083SOL     OW25029   4.018   8.204   0.590  0.2751  0.1724 -0.7520
 8083SOL    HW125030   4.064   8.158   0.520 -1.4416 -0.3877 -1.5597
 8083SOL    HW225031   4.015   8.142   0.662  0.1808 -0.0408 -0.9401
 8084SOL     OW25032   4.905   8.201   0.509 -0.1514 -0.2766  0.1813
 8084SOL    HW125033   4.859   8.232   0.587 -0.8543 -0.0290 -0.3316
 8084SOL    HW225034   4.994   8.184   0.540 -0.0192  1.2225  0.7120
 8085SOL     OW25035   7.786   1.332   2.821  0.7341 -0.1320  0.5048
 8085SOL    HW125036   7.732   1.339   2.900  0.0829 -0.0956  0.0693
 8085SOL    HW225037   7.723   1.332   2.749  1.1699 -2.1091  0.0634
 8086SOL     OW25038   3.043   6.740   1.580 -0.5227 -0.3772 -0.2844
 8086SOL    HW125039   3.036   6.649   1.553  0.1531 -0.1801 -1.1742
 8086SOL    HW225040   2.968   6.754   1.638 -0.7018 -1.4569 -0.2344
 8087SOL     OW25041   1.878   5.610   6.957 -0.3287  0.0074  0.8789
 8087SOL    HW125042   1.926   5.674   6.904 -1.3186  0.4421  0.4975
 8087SOL    HW225043   1.860   5.538   6.898  1.2760 -0.9199  1.4504
 8088SOL     OW25044   6.762   7.946   6.058 -0.6714 -0.0657  0.2730
 8088SOL    HW125045   6.688   7.962   6.116 -0.9643  1.2287 -0.4237
 8088SOL    HW225046   6.731   7.879   5.998 -2.1588  2.0267 -1.4480
 8089SOL     OW25047   6.114   7.363   6.035  0.1902  0.1879 -0.0804
 8089SOL    HW125048   6.026   7.335   6.009  0.3381 -1.4857  1.0617
 8089SOL    HW225049   6.113   7.458   6.023 -1.3175  0.0553 -1.3758
 8090SOL     OW25050   6.136   5.442   6.295  0.4697  0.1029  0.4173
 8090SOL    HW125051   6.102   5.529   6.316  2.0000  0.3275  2.2694
 8090SOL    HW225052   6.216   5.459   6.244 -0.1173 -0.2968 -0.6723
 8091SOL     OW25053   7.077   5.613   6.715 -0.3881  1.2871 -0.7510
 8091SOL    HW125054   7.107   5.670   6.786  1.9318 -0.6645 -0.0346
 8091SOL    HW225055   7.130   5.639   6.639 -0.1625  0.8581 -0.7409
 8092SOL     OW25056   4.639   7.905   5.706 -0.4543  0.4844 -0.1599
 8092SOL    HW125057   4.647   7.987   5.756  0.4399  0.6881 -0.6161
 8092SOL    HW225058   4.721   7.858   5.724 -1.3161 -0.7145  0.7774
 8093SOL     OW25059   7.306   5.747   7.557  0.0621  0.5957  0.1167
 8093SOL    HW125060   7.338   5.657   7.562 -1.1016  0.1405 -0.4180
 8093SOL    HW225061   7.385   5.799   7.546  0.8650 -0.2355  1.5384
 8094SOL     OW25062   6.148   1.605   0.959  0.0150 -0.5517 -0.0631
 8094SOL    HW125063   6.079   1.665   0.932  0.1933 -0.7391 -0.9907
 8094SOL    HW225064   6.107   1.518   0.956  0.4720 -0.7495 -1.3772
 8095SOL     OW25065   7.862   3.191   1.122  0.0295  0.2889 -0.1757
 8095SOL    HW125066   7.811   3.111   1.111 -2.3170  1.5112  0.9971
 8095SOL    HW225067   7.803   3.261   1.092  1.0489  1.7735  1.1577
 8096SOL     OW25068   5.462   3.442   4.070  0.1375 -0.5517 -0.3553
 8096SOL    HW125069   5.525   3.507   4.101 -0.6031 -0.9498  2.2118
 8096SOL    HW225070   5.481   3.363   4.120 -1.5450 -1.0734 -0.4624
 8097SOL     OW25071   5.186   7.469   3.260  0.0431 -0.1051  0.3212
 8097SOL    HW125072   5.099   7.445   3.228 -0.1031  0.5290  0.2268
 8097SOL    HW225073   5.204   7.554   3.220 -0.0621  0.6354  1.7748
 8098SOL     OW25074   7.852   0.713   0.861 -0.1736 -0.1671  0.1191
 8098SOL    HW125075   7.892   0.634   0.899  0.5444 -0.3166 -0.9108
 8098SOL    HW225076   7.910   0.784   0.887 -2.7103  0.7466  4.2570
 8099SOL     OW25077   6.823   2.108   7.620 -0.2158 -0.4708 -0.8941
 8099SOL    HW125078   6.731   2.133   7.612 -0.3344 -0.0006  1.1719
 8099SOL    HW225079   6.870   2.192   7.620 -0.2086 -0.3761  1.8154
 8100SOL     OW25080   6.731   7.988   8.111 -0.3218  0.3103  0.1012
 8100SOL    HW125081   6.731   7.933   8.189  0.9284  0.5507  0.2982
 8100SOL    HW225082   6.769   7.933   8.043  0.6294  0.8029  0.2182
 8101SOL     OW25083   7.506   4.566   7.911 -0.1399  0.2366  0.5788
 8101SOL    HW125084   7.516   4.478   7.948 -1.2553  0.6071  1.8503
 8101SOL    HW225085   7.411   4.577   7.902 -0.0245  1.4085  0.6815
 8102SOL     OW25086   0.698   3.941   2.323 -0.4734  0.2313 -0.2242
 8102SOL    HW125087   0.673   3.869   2.381 -0.0753  1.3504  1.4041
 8102SOL    HW225088   0.787   3.919   2.295  0.1730  0.7018  1.3464
 8103SOL     OW25089   4.947   4.512   1.629 -0.8059 -0.0504  0.2188
 8103SOL    HW125090   4.939   4.433   1.576 -0.1889  0.3131 -0.4491
 8103SOL    HW225091   4.927   4.484   1.718  0.4174 -1.1879  0.1649
 8104SOL     OW25092   3.608   5.867   6.551  0.1457  0.3219  0.0171
 8104SOL    HW125093   3.660   5.843   6.474  0.9190 -0.6209  0.8200
 8104SOL    HW225094   3.610   5.963   6.552 -2.9528  0.6344 -3.1990
 8105SOL     OW25095   4.066   4.442   6.764  0.9751  0.5543  0.4424
 8105SOL    HW125096   4.117   4.441   6.683  0.7248  0.7191  0.2832
 8105SOL    HW225097   4.003   4.514   6.753 -0.7477 -0.9802 -0.2747
 8106SOL     OW25098   3.891   3.820   7.971 -0.0045  0.1981  0.2048
 8106SOL    HW125099   3.902   3.785   7.883  0.4911  2.4009 -0.6612
 8106SOL    HW225100   3.966   3.879   7.983  0.2595 -0.4604  2.3394
 8107SOL     OW25101   0.195   6.267   1.469 -0.4521 -0.3719  0.0735
 8107SOL    HW125102   0.275   6.235   1.510  1.3196 -0.3617 -3.0627
 8107SOL    HW225103   0.141   6.189   1.458 -0.0327 -0.7209  0.4368
 8108SOL     OW25104   7.910   1.849   5.901  0.1027  0.2507 -0.1620
 8108SOL    HW125105   7.932   1.763   5.866  1.1676  1.1986 -1.9516
 8108SOL    HW225106   7.833   1.876   5.852 -1.4893 -0.4626  1.8050
 8109SOL     OW25107   6.275   8.032   5.144  0.2180 -0.1426  0.0751
 8109SOL    HW125108   6.264   8.099   5.210  0.1135  0.2338 -0.3193
 8109SOL    HW225109   6.224   8.063   5.069 -1.4539 -1.5591  0.5396
 8110SOL     OW25110   2.094   0.778   7.173 -0.4971  0.4240  0.3623
 8110SOL    HW125111   2.009   0.820   7.159  0.2511  1.9258  0.1095
 8110SOL    HW225112   2.153   0.850   7.195  1.0007 -0.4181 -0.7514
 8111SOL     OW25113   6.194   2.383   0.440 -0.6921 -0.4499  0.4648
 8111SOL    HW125114   6.170   2.336   0.360  3.4403  0.7464 -1.8290
 8111SOL    HW225115   6.264   2.329   0.479  0.4199  1.1128  0.7233
 8112SOL     OW25116   7.422   7.610   5.065 -0.1127  0.4624  0.5289
 8112SOL    HW125117   7.362   7.545   5.103 -0.0170 -0.7585 -1.2607
 8112SOL    HW225118   7.503   7.598   5.113  0.8646 -2.9667 -1.6025
 8113SOL     OW25119   4.667   4.162   4.115 -0.5862  0.1484  0.1256
 8113SOL    HW125120   4.690   4.129   4.028  1.2878  1.2678  0.1317
 8113SOL    HW225121   4.573   4.148   4.122 -0.3445 -2.6577 -0.8957
 8114SOL     OW25122   5.920   6.482   7.685 -0.1823  0.2763 -0.5023
 8114SOL    HW125123   5.886   6.540   7.753 -0.9160  0.1767 -0.7715
 8114SOL    HW225124   5.926   6.538   7.607  0.3370  0.3058 -0.4490
 8115SOL     OW25125   2.070   7.365   5.908 -0.0258 -0.1151  0.3584
 8115SOL    HW125126   2.157   7.337   5.878  0.4008  0.2866  1.1887
 8115SOL    HW225127   2.087   7.407   5.992 -1.1242 -0.6868  0.8753
 8116SOL     OW25128   4.752   4.368   5.865 -0.1225  0.3234  0.1648
 8116SOL    HW125129   4.793   4.311   5.800 -1.0116 -0.4357  0.2578
 8116SOL    HW225130   4.810   4.445   5.869 -0.4506  0.7490 -2.0662
 8117SOL     OW25131   6.433   4.216   5.055  0.1712 -0.1376  0.7002
 8117SOL    HW125132   6.515   4.263   5.038 -0.1554  0.1473 -0.1682
 8117SOL    HW225133   6.457   4.123   5.049  0.6188 -0.0728  1.4188
 8118SOL     OW25134   3.065   6.475   1.504  0.4809  0.0672 -0.2883
 8118SOL    HW125135   3.160   6.483   1.495  0.5316 -0.3439 -0.1270
 8118SOL    HW225136   3.051   6.452   1.596  0.1927  0.5937 -0.1945
 8119SOL     OW25137   6.606   1.254   7.381 -0.3612  0.4921 -0.0848
 8119SOL    HW125138   6.570   1.165   7.392 -0.8108  0.8433  1.5499
 8119SOL    HW225139   6.688   1.253   7.430  0.0141  0.7613 -0.7057
 8120SOL     OW25140   4.670   7.863   8.222 -0.1042 -0.2240  0.1108
 8120SOL    HW125141   4.731   7.905   8.282  0.0424 -0.0730 -0.1429
 8120SOL    HW225142   4.724   7.830   8.151 -0.3265  0.0032 -0.1697
 8121SOL     OW25143   1.877   0.522   6.501  0.2516 -0.6562  0.0646
 8121SOL    HW125144   1.934   0.469   6.446  0.6877  0.3293 -0.4559
 8121SOL    HW225145   1.929   0.542   6.579 -0.2370 -1.7435  0.6899
 8122SOL     OW25146   2.885   3.141   3.784  0.6051  0.2969  0.2634
 8122SOL    HW125147   2.867   3.137   3.690  0.4067  0.0092  0.3106
 8122SOL    HW225148   2.906   3.232   3.801 -0.1038  0.5025  0.0737
 8123SOL     OW25149   4.978   3.015   1.968 -0.3890  0.2192 -0.3473
 8123SOL    HW125150   4.985   3.111   1.965  0.6933  0.1357 -0.7678
 8123SOL    HW225151   4.893   2.999   2.008 -0.5139  1.3616 -0.1187
 8124SOL     OW25152   0.682   4.633   0.181 -0.4406  0.0264 -0.6877
 8124SOL    HW125153   0.731   4.625   0.263 -1.1581 -1.7407 -0.3732
 8124SOL    HW225154   0.744   4.671   0.119  0.9761 -1.0985 -0.0171
 8125SOL     OW25155   4.610   0.360   4.477  0.2686  0.4556  0.1138
 8125SOL    HW125156   4.588   0.274   4.512  1.8267  0.1800  0.4942
 8125SOL    HW225157   4.558   0.421   4.529 -2.3812 -0.3098 -1.4697
 8126SOL     OW25158   6.678   1.609   0.931 -0.3688 -0.4924 -0.0516
 8126SOL    HW125159   6.705   1.524   0.964  0.6661 -0.2761 -0.3025
 8126SOL    HW225160   6.750   1.668   0.954 -0.3510 -0.0092 -1.2390
 8127SOL     OW25161   7.087   6.305   0.053 -0.3619  0.1548  0.0007
 8127SOL    HW125162   6.991   6.307   0.057 -0.3236  1.3513  0.9495
 8127SOL    HW225163   7.107   6.308  -0.041 -1.2656  1.3339 -0.1892
 8128SOL     OW25164   0.743   3.385   3.579 -0.3601  0.0661  0.3080
 8128SOL    HW125165   0.830   3.372   3.541 -0.6538  0.1077 -0.4009
 8128SOL    HW225166   0.705   3.297   3.583  0.0490 -0.0768  1.4796
 8129SOL     OW25167   7.583   7.632   6.433  0.1079 -0.1691  0.4123
 8129SOL    HW125168   7.548   7.544   6.415 -1.2175  0.8198 -2.5082
 8129SOL    HW225169   7.660   7.638   6.376 -0.2160  0.7735  0.0573
 8130SOL     OW25170   4.485   1.330   6.618 -0.3688  0.1791  0.3318
 8130SOL    HW125171   4.480   1.249   6.566 -0.1573  0.0960  0.4386
 8130SOL    HW225172   4.559   1.315   6.678  0.3809  0.8882 -0.3912
 8131SOL     OW25173   3.983   0.528   6.917 -0.4180  0.4552 -0.2466
 8131SOL    HW125174   3.994   0.562   6.828  1.5249 -0.5903 -0.4660
 8131SOL    HW225175   4.028   0.443   6.916 -1.2733 -0.0634  1.4652
 8132SOL     OW25176   4.938   7.836   6.250 -0.2021  1.2462 -0.4470
 8132SOL    HW125177   5.025   7.865   6.276 -0.1053  0.1839  0.5059
 8132SOL    HW225178   4.949   7.744   6.225 -1.3532  0.4167  1.7338
 8133SOL     OW25179   7.077   4.793   6.139  0.2866  0.1081 -0.0631
 8133SOL    HW125180   7.076   4.866   6.077  2.4251  0.8950  0.7152
 8133SOL    HW225181   7.003   4.737   6.113 -0.2174  1.5423 -1.8920
 8134SOL     OW25182   6.608   0.024   7.829  0.1657 -0.1333 -0.5243
 8134SOL    HW125183   6.516   0.044   7.817  0.5362  1.4047 -1.0051
 8134SOL    HW225184   6.637  -0.011   7.745  0.2050  0.1406 -0.6247
 8135SOL     OW25185   7.092   7.310   3.034  0.6427  0.0668  0.5107
 8135SOL    HW125186   7.057   7.264   2.957 -0.1412 -0.0839  0.9413
 8135SOL    HW225187   7.162   7.365   3.000  0.7626 -0.5198 -0.2078
 8136SOL     OW25188   0.388   4.141   6.479 -0.0967 -0.2571 -0.1699
 8136SOL    HW125189   0.326   4.164   6.548 -0.5228  0.6624 -0.8316
 8136SOL    HW225190   0.430   4.061   6.510 -0.3702  0.0633  1.0861
 8137SOL     OW25191   6.919   4.444   0.138 -0.1129 -0.0603  0.4093
 8137SOL    HW125192   6.854   4.375   0.135  0.4435 -0.5760 -1.4066
 8137SOL    HW225193   6.886   4.511   0.078  1.1342 -0.5058 -0.8622
 8138SOL     OW25194   0.279   7.411   2.467 -0.2137  0.5846  0.1671
 8138SOL    HW125195   0.185   7.420   2.452 -0.2216 -0.1015 -0.2202
 8138SOL    HW225196   0.286   7.345   2.535  0.0605 -1.2966 -1.6064
 8139SOL     OW25197   1.722   6.156   2.011 -0.0584 -0.3938 -0.0656
 8139SOL    HW125198   1.659   6.227   1.995 -0.5660 -0.7908  0.1419
 8139SOL    HW225199   1.741   6.121   1.925  3.3613  2.5806 -0.7933
 8140SOL     OW25200   3.030   6.337   6.660 -0.0683  0.0626  0.1063
 8140SOL    HW125201   2.990   6.267   6.610  0.3209  0.0281 -0.1594
 8140SOL    HW225202   2.963   6.361   6.725 -0.1541 -0.6319  0.2817
 8141SOL     OW25203   2.637   3.981   7.025  0.6846  0.7301 -0.2538
 8141SOL    HW125204   2.606   3.956   7.112 -0.1692 -1.0228 -1.0121
 8141SOL    HW225205   2.712   3.923   7.008  0.7164  0.9104 -0.7522
 8142SOL     OW25206   4.780   4.391   1.053  0.1768 -0.0538 -0.4770
 8142SOL    HW125207   4.767   4.433   0.968 -2.0669 -0.0185 -0.1707
 8142SOL    HW225208   4.874   4.401   1.070 -0.0482  4.2031 -0.7497
 8143SOL     OW25209   3.984   2.672   3.953 -0.1536 -0.3840 -0.2796
 8143SOL    HW125210   3.944   2.752   3.919 -1.6631 -0.1224  1.9149
 8143SOL    HW225211   3.974   2.609   3.881 -0.3678  0.9364 -1.4552
 8144SOL     OW25212   0.103   3.132   1.707  0.4458  0.5113 -0.3014
 8144SOL    HW125213   0.125   3.132   1.614 -0.5891 -1.9784 -0.6364
 8144SOL    HW225214   0.177   3.086   1.748  0.0802  0.0301 -0.1718
 8145SOL     OW25215   3.094   3.793   5.779  0.5059  0.5150  0.2796
 8145SOL    HW125216   3.081   3.863   5.715  1.6710 -0.1167 -0.6643
 8145SOL    HW225217   3.141   3.836   5.851  0.6318  0.8515  0.0030
 8146SOL     OW25218   1.804   2.688   7.478 -0.3621 -0.2055  0.8969
 8146SOL    HW125219   1.873   2.657   7.536  0.7950 -0.2253 -0.4396
 8146SOL    HW225220   1.844   2.760   7.430 -1.5121  0.2504  0.6006
 8147SOL     OW25221   3.775   0.119   2.132  0.6390 -0.5764 -0.4055
 8147SOL    HW125222   3.708   0.050   2.130 -0.3204  0.3289 -0.4896
 8147SOL    HW225223   3.733   0.195   2.091  1.3647  0.3319  0.4695
 8148SOL     OW25224   7.879   4.710   7.312  0.4584 -0.0619 -0.0966
 8148SOL    HW125225   7.864   4.665   7.396  0.3862  0.4462  0.1658
 8148SOL    HW225226   7.794   4.745   7.288  0.8106  1.2237  0.4589
 8149SOL     OW25227   8.153   4.908   3.092 -0.1596 -0.6516  0.2736
 8149SOL    HW125228   8.213   4.958   3.037 -1.4485  0.9464  0.2446
 8149SOL    HW225229   8.210   4.857   3.150  1.2069  0.1428 -0.3300
 8150SOL     OW25230   4.066   6.606   6.487  0.4173 -0.3542  0.2086
 8150SOL    HW125231   4.068   6.589   6.393 -0.9939 -0.4385  0.1659
 8150SOL    HW225232   4.123   6.539   6.525  1.1566 -0.1956 -0.5923
 8151SOL     OW25233   2.088   5.691   2.997  0.0333 -0.7022  0.1142
 8151SOL    HW125234   2.145   5.694   3.073  0.2590 -0.8844 -0.0439
 8151SOL    HW225235   2.000   5.711   3.030  0.0667 -1.1658  0.4811
 8152SOL     OW25236   4.121   3.685   6.996 -0.2896  0.1806  0.4462
 8152SOL    HW125237   4.087   3.751   6.936 -0.5421 -1.1600 -0.9468
 8152SOL    HW225238   4.132   3.607   6.942  1.6464 -0.4396  1.6516
 8153SOL     OW25239   0.303   5.466   6.485  0.1707  0.6224 -0.0191
 8153SOL    HW125240   0.222   5.453   6.534  0.4799  2.6113  1.1157
 8153SOL    HW225241   0.281   5.529   6.417  0.3508 -0.2638 -0.9319
 8154SOL     OW25242   1.131   1.299   5.236 -0.0416 -0.6272 -0.3017
 8154SOL    HW125243   1.182   1.257   5.305 -1.0464 -1.0397  0.2080
 8154SOL    HW225244   1.091   1.374   5.279 -0.2625 -0.5935 -0.5670
 8155SOL     OW25245   4.913   0.154   7.352  0.3088 -0.2597  0.3198
 8155SOL    HW125246   4.921   0.203   7.434  1.2798  0.8009 -0.3703
 8155SOL    HW225247   4.930   0.063   7.377 -0.2619 -0.0863  1.4246
 8156SOL     OW25248   3.707   8.220   4.542  0.4006 -0.3707  0.1972
 8156SOL    HW125249   3.718   8.304   4.588  1.4196 -0.5032  0.2037
 8156SOL    HW225250   3.787   8.210   4.492  0.0126 -1.0543 -0.2950
 8157SOL     OW25251   7.719   2.617   0.638  0.7196 -0.3696  0.2335
 8157SOL    HW125252   7.650   2.647   0.580  0.9514  0.9066  0.5977
 8157SOL    HW225253   7.775   2.563   0.581  0.0916 -0.4387 -0.3409
 8158SOL     OW25254   5.632   5.874   6.514 -0.1888 -0.5840  0.0914
 8158SOL    HW125255   5.717   5.904   6.482 -0.6534  1.0043  0.2763
 8158SOL    HW225256   5.606   5.805   6.453  0.1631  0.5447 -1.3801
 8159SOL     OW25257   2.800   1.436   1.186 -0.4617  0.3688  0.7279
 8159SOL    HW125258   2.783   1.409   1.096  0.2537  1.0434  0.3778
 8159SOL    HW225259   2.715   1.432   1.229 -0.8184  0.1006  0.0089
 8160SOL     OW25260   2.269   4.031   4.128 -0.1653 -0.4394 -0.5511
 8160SOL    HW125261   2.216   4.110   4.111  1.0594  0.3915 -0.6505
 8160SOL    HW225262   2.266   4.020   4.223  0.5071  0.3624 -0.4241
 8161SOL     OW25263   7.884   1.128   4.438 -0.9291  0.1127 -0.0586
 8161SOL    HW125264   7.875   1.059   4.504  2.2222  0.6856  1.1673
 8161SOL    HW225265   7.915   1.204   4.487  1.2064  0.6837 -2.1134
 8162SOL     OW25266   7.852   6.947   7.709 -0.0510  0.2352  0.5954
 8162SOL    HW125267   7.932   6.978   7.668  0.1796  1.2934  1.7502
 8162SOL    HW225268   7.863   6.853   7.718  0.3232  0.1342 -0.7756
 8163SOL     OW25269   7.667   4.647   3.486  0.1619 -0.3142  0.4378
 8163SOL    HW125270   7.655   4.552   3.486  1.4628 -0.5012 -0.6431
 8163SOL    HW225271   7.762   4.659   3.493  0.2678  0.8259 -2.0416
 8164SOL     OW25272   3.885   7.932   3.138 -0.3532 -0.4762 -0.3355
 8164SOL    HW125273   3.943   7.979   3.078 -0.5910  0.8242  0.4204
 8164SOL    HW225274   3.933   7.851   3.159  1.1428  0.4931  0.1683
 8165SOL     OW25275   6.977   5.132   1.431  1.2307  0.0988 -0.0139
 8165SOL    HW125276   7.042   5.083   1.482  1.2314 -1.0605 -1.0753
 8165SOL    HW225277   6.897   5.079   1.438  0.8913  0.5795 -0.2077
 8166SOL     OW25278   1.589   2.031   2.753  0.0293 -0.0630  0.2038
 8166SOL    HW125279   1.568   1.966   2.686  0.8105  1.0141 -1.1520
 8166SOL    HW225280   1.602   1.980   2.833 -1.5517 -1.3314 -0.2896
 8167SOL     OW25281   7.563   6.235   2.647  0.2675 -0.6800  0.1697
 8167SOL    HW125282   7.652   6.213   2.674  0.2341 -0.1058  0.7743
 8167SOL    HW225283   7.521   6.151   2.632 -0.5158 -1.2719  4.4466
 8168SOL     OW25284   6.167   7.410   2.214 -0.1917  0.4403 -0.2178
 8168SOL    HW125285   6.171   7.322   2.176 -0.1596 -0.3232  1.4933
 8168SOL    HW225286   6.074   7.422   2.235 -0.1906  0.8162 -0.4183
 8169SOL     OW25287   3.742   7.908   4.156  0.1973 -0.0522 -0.0105
 8169SOL    HW125288   3.765   7.856   4.079  1.0204 -0.0655  0.2351
 8169SOL    HW225289   3.654   7.940   4.138 -0.4575 -1.7662 -0.0457
 8170SOL     OW25290   1.710   3.609   1.412  0.1597 -0.2197 -0.3508
 8170SOL    HW125291   1.659   3.539   1.370  0.3577  0.1523 -1.2235
 8170SOL    HW225292   1.800   3.593   1.383  0.7793 -1.4471  1.9194
 8171SOL     OW25293   7.268   5.969   4.117 -0.0214  0.3209  0.4420
 8171SOL    HW125294   7.186   6.019   4.112  1.0311  2.0598 -0.3232
 8171SOL    HW225295   7.277   5.948   4.210 -1.2693  0.1810  0.5544
 8172SOL     OW25296   2.348   5.975   5.522  0.1924 -0.1497  0.1705
 8172SOL    HW125297   2.363   6.045   5.458 -0.1237 -1.1513 -1.0329
 8172SOL    HW225298   2.277   5.923   5.484 -2.0251  0.7928  2.6587
 8173SOL     OW25299   4.631   2.633   4.788 -0.1403 -0.1268  0.4983
 8173SOL    HW125300   4.611   2.597   4.702 -1.9355  0.1581  0.7560
 8173SOL    HW225301   4.547   2.636   4.833  0.4591  1.4301  1.6161
 8174SOL     OW25302   5.854   1.790   7.272 -0.0169  0.1426  0.2126
 8174SOL    HW125303   5.887   1.714   7.320  1.3825 -1.2531 -2.7100
 8174SOL    HW225304   5.762   1.768   7.254 -0.4401  0.4985  1.7799
 8175SOL     OW25305   1.413   7.915   8.265  0.6081  0.1815 -0.1828
 8175SOL    HW125306   1.361   7.836   8.248  0.7698  0.1492 -0.5430
 8175SOL    HW225307   1.504   7.886   8.256  0.6526  0.6317 -1.3758
 8176SOL     OW25308   4.051   7.069   3.309 -0.3281 -0.3715 -0.1955
 8176SOL    HW125309   4.057   7.104   3.398 -0.3638  0.2229 -0.4245
 8176SOL    HW225310   4.135   7.091   3.269 -0.2734 -0.7285 -0.2769
 8177SOL     OW25311   5.781   7.812   7.358  0.1125  0.4657  0.4172
 8177SOL    HW125312   5.758   7.824   7.265  0.1909 -0.3576  0.2834
 8177SOL    HW225313   5.729   7.879   7.404 -2.9537 -1.5324  0.1672
 8178SOL     OW25314   6.451   1.607   6.138 -0.3612  0.3877  0.2170
 8178SOL    HW125315   6.405   1.689   6.118 -0.8274  0.1264  0.1999
 8178SOL    HW225316   6.544   1.629   6.129 -0.4758  0.9466  0.3301
 8179SOL     OW25317   1.544   0.985   3.730 -0.1769 -0.3422  0.1864
 8179SOL    HW125318   1.637   1.004   3.737 -0.3998  1.3416 -0.9338
 8179SOL    HW225319   1.501   1.055   3.779 -0.8520 -1.4037  1.1515
 8180SOL     OW25320   4.178   1.252   5.994 -0.4716 -0.4805  0.4302
 8180SOL    HW125321   4.198   1.186   5.928 -2.0066 -0.4778 -0.0755
 8180SOL    HW225322   4.083   1.263   5.989 -0.1325  3.1401 -0.8551
 8181SOL     OW25323   2.774   8.164   1.832 -0.2399 -0.0855 -0.6465
 8181SOL    HW125324   2.738   8.252   1.825  1.3560  0.6131 -0.4524
 8181SOL    HW225325   2.715   8.119   1.893 -0.9765  0.9026 -0.6161
 8182SOL     OW25326   5.696   3.249   3.820  0.1433 -0.4182  0.8296
 8182SOL    HW125327   5.668   3.341   3.817 -0.0890 -0.5040 -0.8007
 8182SOL    HW225328   5.640   3.209   3.886 -0.8714  0.2949  0.4357
 8183SOL     OW25329   2.315   0.215   4.092 -0.4640  0.4389  0.1652
 8183SOL    HW125330   2.243   0.257   4.045  0.1560  0.6394 -0.6230
 8183SOL    HW225331   2.329   0.133   4.045 -1.2083 -0.3460  1.2768
 8184SOL     OW25332   0.427   7.963   7.955 -0.0893  0.5206  0.3299
 8184SOL    HW125333   0.483   7.886   7.961 -1.1804 -0.1982  1.9506
 8184SOL    HW225334   0.338   7.928   7.948 -0.4269  1.6335 -2.1800
 8185SOL     OW25335   5.414   4.323   4.331 -0.1749 -0.3630  0.4132
 8185SOL    HW125336   5.483   4.332   4.265  1.0856 -1.3726  1.5305
 8185SOL    HW225337   5.340   4.286   4.284 -0.4581  1.9273 -1.1011
 8186SOL     OW25338   2.924   3.822   6.733 -0.4157 -0.0212  0.2181
 8186SOL    HW125339   2.928   3.915   6.754  1.1443 -0.3863  1.7742
 8186SOL    HW225340   2.850   3.789   6.785 -0.8242  0.2777 -0.1576
 8187SOL     OW25341   0.752   2.830   1.338  0.7365  1.2358 -0.5976
 8187SOL    HW125342   0.695   2.895   1.297  0.0312  2.1505  1.6407
 8187SOL    HW225343   0.841   2.858   1.318  0.4182  2.0671 -0.8667
 8188SOL     OW25344   2.537   7.882   7.547 -0.8932 -0.0446  0.6308
 8188SOL    HW125345   2.525   7.947   7.616  1.3600 -0.0176  1.0643
 8188SOL    HW225346   2.628   7.854   7.556 -1.6606 -2.9600  0.1867
 8189SOL     OW25347   2.553   2.707   7.023 -0.3044 -0.0762  0.1507
 8189SOL    HW125348   2.465   2.710   6.984  0.2853  3.1967 -1.2719
 8189SOL    HW225349   2.538   2.717   7.117 -1.4491  1.7854 -0.1905
 8190SOL     OW25350   2.529   1.388   4.553  0.2081 -0.2412 -0.1743
 8190SOL    HW125351   2.465   1.458   4.566 -0.5048 -0.8717 -0.2205
 8190SOL    HW225352   2.491   1.333   4.485  0.5584 -0.9140  0.1640
 8191SOL     OW25353   0.421   2.947   7.892  0.4556 -0.9228  0.3872
 8191SOL    HW125354   0.325   2.944   7.892  0.3815  0.4009  1.2538
 8191SOL    HW225355   0.442   3.027   7.843  1.1218 -1.2322  0.1566
 8192SOL     OW25356   5.123   1.638   4.587  0.2392  0.4314  0.3961
 8192SOL    HW125357   5.215   1.612   4.581  0.2564  0.6848 -0.6635
 8192SOL    HW225358   5.084   1.574   4.646  0.8337 -0.4370 -0.1244
 8193SOL     OW25359   2.245   3.200   5.756 -0.1845  0.1506 -0.1988
 8193SOL    HW125360   2.295   3.269   5.800 -0.2902  0.6878 -0.9183
 8193SOL    HW225361   2.155   3.211   5.788 -0.5321  1.3834 -1.5390
 8194SOL     OW25362   0.328   0.267   6.158  0.1680 -0.0931  0.3349
 8194SOL    HW125363   0.288   0.224   6.082 -3.5994  2.2695  0.7294
 8194SOL    HW225364   0.310   0.209   6.231 -0.4867 -0.1469  0.1351
 8195SOL     OW25365   3.102   0.455   6.941 -0.2985  0.0705 -0.6382
 8195SOL    HW125366   3.177   0.397   6.927 -0.7414 -0.4086 -1.0271
 8195SOL    HW225367   3.139   0.530   6.988  0.4654 -0.0699 -0.9999
 8196SOL     OW25368   3.601   1.457   6.706  0.2617 -0.4138  0.4341
 8196SOL    HW125369   3.532   1.522   6.721  0.9879 -0.1884  3.2889
 8196SOL    HW225370   3.556   1.373   6.705 -0.2911 -0.1226 -0.0728
 8197SOL     OW25371   6.555   1.863   3.982 -0.3499  0.2605 -0.4143
 8197SOL    HW125372   6.517   1.833   4.065  0.4968  3.0557  1.1150
 8197SOL    HW225373   6.625   1.800   3.965 -2.5203 -2.2085 -0.7858
 8198SOL     OW25374   1.457   1.017   6.747 -0.1027 -0.6030  0.5231
 8198SOL    HW125375   1.535   0.963   6.759 -1.1582 -2.4664 -0.6297
 8198SOL    HW225376   1.469   1.058   6.661  0.4215  0.5967  1.1420
 8199SOL     OW25377   6.967   8.073   5.772  0.0418 -0.1891  0.4305
 8199SOL    HW125378   7.013   8.014   5.831  1.5066  2.1839  1.8458
 8199SOL    HW225379   6.974   8.159   5.814 -2.1488  1.0006 -1.3869
 8200SOL     OW25380   0.936   2.231   2.485  0.3730  0.2969 -0.0741
 8200SOL    HW125381   0.926   2.254   2.393  1.5094  1.0691 -0.0267
 8200SOL    HW225382   1.029   2.244   2.503 -0.1681  2.2437  1.7164
 8201SOL     OW25383   3.092   4.245   5.614  0.1752 -0.4702 -0.1473
 8201SOL    HW125384   3.036   4.260   5.690 -2.6015 -0.0682 -2.1078
 8201SOL    HW225385   3.126   4.332   5.591 -2.2242  0.1636 -1.6061
 8202SOL     OW25386   8.219   4.799   5.808  0.4012  0.4397 -0.7067
 8202SOL    HW125387   8.212   4.894   5.805  1.1796  0.4777 -1.6434
 8202SOL    HW225388   8.130   4.768   5.788 -0.1369  0.9530  0.7499
 8203SOL     OW25389   2.198   4.715   1.951 -0.2143 -0.0912 -0.1777
 8203SOL    HW125390   2.178   4.624   1.976  2.0624 -0.1309  1.8871
 8203SOL    HW225391   2.134   4.735   1.882 -0.7975 -3.2387 -0.7328
 8204SOL     OW25392   5.795   5.838   7.596  0.3070  0.2247 -0.1484
 8204SOL    HW125393   5.788   5.920   7.644 -1.0615  0.4890 -0.7687
 8204SOL    HW225394   5.870   5.850   7.538  0.2373  0.9559 -0.0874
 8205SOL     OW25395   6.966   4.802   7.618  0.1049  0.2347 -0.3889
 8205SOL    HW125396   6.894   4.795   7.556 -1.5967 -1.2639  1.5980
 8205SOL    HW225397   6.989   4.895   7.618 -0.7086  0.4808 -2.2326
 8206SOL     OW25398   2.761   4.982   0.736 -0.3622 -0.1418  0.4185
 8206SOL    HW125399   2.805   4.897   0.722 -2.8877 -1.5490  0.4759
 8206SOL    HW225400   2.801   5.040   0.671  0.3510 -1.7919 -0.6971
 8207SOL     OW25401   4.599   3.519   1.618  0.0620 -0.1184  0.4289
 8207SOL    HW125402   4.564   3.478   1.539  0.6113 -1.7432  0.9879
 8207SOL    HW225403   4.693   3.501   1.614  0.7782  3.1690 -0.4781
 8208SOL     OW25404   5.489   4.040   0.468  0.2159  0.1913 -0.3577
 8208SOL    HW125405   5.409   3.997   0.496 -0.4249  0.5653 -1.5280
 8208SOL    HW225406   5.501   4.112   0.530 -1.5906  1.4836 -1.4032
 8209SOL     OW25407   5.236   7.196   0.764 -0.2021  0.1661 -0.4066
 8209SOL    HW125408   5.311   7.144   0.792 -0.1927 -0.1760 -1.0670
 8209SOL    HW225409   5.214   7.248   0.841 -0.3174 -0.9260  0.3215
 8210SOL     OW25410   3.807   3.966   3.221 -0.3863 -0.4708  0.0567
 8210SOL    HW125411   3.890   4.013   3.228 -0.2002 -0.8934  0.8057
 8210SOL    HW225412   3.789   3.962   3.127 -1.1818  2.4090  0.0144
 8211SOL     OW25413   4.727   8.018   0.958 -0.1202  0.6926  0.0229
 8211SOL    HW125414   4.735   7.958   1.032  0.7422  0.4424 -0.2616
 8211SOL    HW225415   4.636   8.012   0.931  0.2195 -1.4244 -0.7837
 8212SOL     OW25416   8.278   3.744   4.881  0.0759  0.1646 -0.4175
 8212SOL    HW125417   8.308   3.796   4.955 -0.4358  0.5232 -0.4545
 8212SOL    HW225418   8.201   3.698   4.914  0.9591 -1.1785 -0.1558
 8213SOL     OW25419   7.978   6.262   5.351  0.6767  0.3862 -0.4811
 8213SOL    HW125420   7.971   6.265   5.256  0.9953  1.6752 -0.4781
 8213SOL    HW225421   8.050   6.322   5.372 -0.2851  1.1841  0.6557
 8214SOL     OW25422   1.054   5.942   5.107 -0.3252  0.4218 -0.5343
 8214SOL    HW125423   1.147   5.951   5.086  0.0715 -0.3246  0.8316
 8214SOL    HW225424   1.029   5.857   5.071 -0.5987  0.7907 -1.2456
 8215SOL     OW25425   4.198   2.975   0.466  0.1453 -0.3590  0.0756
 8215SOL    HW125426   4.270   2.975   0.403 -1.1481 -0.5825 -1.4745
 8215SOL    HW225427   4.126   2.931   0.420 -1.5288  1.3738  0.9197
 8216SOL     OW25428   5.789   4.678   5.503 -0.1028 -0.2396  0.3918
 8216SOL    HW125429   5.824   4.717   5.583 -0.6377  0.1933  0.4111
 8216SOL    HW225430   5.754   4.751   5.453 -0.1952 -0.5665 -0.0284
 8217SOL     OW25431   2.967   4.662   3.369  0.2770 -1.0046  0.3597
 8217SOL    HW125432   2.876   4.688   3.388 -0.2430 -1.6527 -1.1128
 8217SOL    HW225433   2.972   4.660   3.274  1.3565 -2.6244  0.4181
 8218SOL     OW25434   7.332   2.682   1.105 -0.0210 -0.2466  0.1687
 8218SOL    HW125435   7.419   2.678   1.064  0.4354 -0.0771  1.0923
 8218SOL    HW225436   7.272   2.701   1.033  0.5367 -1.6514 -0.7190
 8219SOL     OW25437   2.127   1.534   4.912  0.3036  0.3987 -0.5073
 8219SOL    HW125438   2.092   1.553   4.825  0.9117  0.0804 -0.8296
 8219SOL    HW225439   2.081   1.456   4.940 -0.0839  0.6535 -0.4312
 8220SOL     OW25440   7.915   7.303   3.068  0.1027 -0.4788 -0.2403
 8220SOL    HW125441   7.933   7.289   3.161 -1.4970 -1.8467 -0.0894
 8220SOL    HW225442   7.993   7.348   3.035  1.4650 -1.5365  1.3860
 8221SOL     OW25443   7.993   8.210   0.678  0.5738 -0.0659  0.3594
 8221SOL    HW125444   8.001   8.257   0.762 -1.3853 -2.1129  1.8036
 8221SOL    HW225445   8.068   8.240   0.627  1.3797  1.9069  2.5193
 8222SOL     OW25446   7.746   5.139   5.359  0.6523 -0.2593 -0.2184
 8222SOL    HW125447   7.691   5.161   5.435  0.4446  2.4746 -1.0707
 8222SOL    HW225448   7.707   5.058   5.325  0.6297 -1.4572  2.4083
 8223SOL     OW25449   8.295   4.145   0.441 -0.5924 -0.0245 -0.0562
 8223SOL    HW125450   8.284   4.121   0.349  1.9321 -0.5008 -0.2902
 8223SOL    HW225451   8.295   4.062   0.488 -0.6008  0.1259  0.2113
 8224SOL     OW25452   3.822   4.702   2.138 -0.2151 -0.3778  0.2618
 8224SOL    HW125453   3.759   4.631   2.123  1.0281 -1.2426 -1.0863
 8224SOL    HW225454   3.901   4.658   2.169  0.3362  0.5041  0.1380
 8225SOL     OW25455   2.331   3.689   1.404  0.2661  0.1372  0.2271
 8225SOL    HW125456   2.236   3.688   1.414  0.2489 -1.3274  0.2565
 8225SOL    HW225457   2.345   3.716   1.313 -0.1663  0.4961  0.2617
 8226SOL     OW25458   1.493   0.816   4.600  0.2024 -0.3649 -0.1453
 8226SOL    HW125459   1.550   0.892   4.607  1.9858 -1.6506 -0.1316
 8226SOL    HW225460   1.436   0.821   4.677  2.0759 -0.4213  1.3234
 8227SOL     OW25461   2.432   1.493   5.165 -0.1764  0.3823 -0.4462
 8227SOL    HW125462   2.431   1.552   5.089 -0.2257 -0.4956 -1.1479
 8227SOL    HW225463   2.340   1.489   5.193 -0.6876 -1.4053 -2.0777
 8228SOL     OW25464   7.524   2.750   4.501 -0.1023  0.6799 -0.0710
 8228SOL    HW125465   7.523   2.744   4.596  0.8120  1.2920 -0.0058
 8228SOL    HW225466   7.594   2.690   4.474 -0.9456 -0.1730 -0.4326
 8229SOL     OW25467   3.187   4.684   3.551 -0.1239 -0.1732 -0.3548
 8229SOL    HW125468   3.186   4.762   3.606  1.3694 -1.7119  2.0255
 8229SOL    HW225469   3.113   4.696   3.491 -1.9810  1.5601  2.0746
 8230SOL     OW25470   3.742   4.590   2.811 -0.4335  0.3143  0.5526
 8230SOL    HW125471   3.794   4.671   2.810 -0.8518  0.5936 -0.6634
 8230SOL    HW225472   3.789   4.532   2.751 -1.5401  0.6097 -0.6545
 8231SOL     OW25473   5.788   0.059   3.428 -0.1171  0.4878  0.3832
 8231SOL    HW125474   5.778   0.088   3.338 -1.0070  0.2559  0.3928
 8231SOL    HW225475   5.741   0.124   3.480 -0.6622 -0.0358  0.5586
 8232SOL     OW25476   3.565   2.156   1.184 -0.3169 -0.2023  0.2845
 8232SOL    HW125477   3.526   2.115   1.260  0.8011 -2.0715 -0.0851
 8232SOL    HW225478   3.556   2.091   1.114  0.0176  0.8600 -0.7830
 8233SOL     OW25479   4.989   0.448   6.287  0.3763  0.1817 -0.3419
 8233SOL    HW125480   4.983   0.406   6.372  0.6472  1.5612  0.3863
 8233SOL    HW225481   4.948   0.533   6.299  0.1552  0.2950 -1.6778
 8234SOL     OW25482   6.586   1.771   0.368 -0.0955  0.3093 -0.3233
 8234SOL    HW125483   6.662   1.715   0.351 -1.7055 -2.3381  0.5441
 8234SOL    HW225484   6.510   1.717   0.343 -1.7904  2.0450  0.7677
 8235SOL     OW25485   5.068   6.417   2.225  0.1223 -0.1528  0.3920
 8235SOL    HW125486   5.075   6.511   2.242  0.1744 -0.2474  0.9113
 8235SOL    HW225487   5.158   6.385   2.234  0.0449 -0.3140  0.6009
 8236SOL     OW25488   1.407   4.242   6.465  0.6056  0.6716 -0.0137
 8236SOL    HW125489   1.320   4.266   6.496  0.0918  0.1139 -0.9610
 8236SOL    HW225490   1.395   4.224   6.372  1.2590 -1.6036  0.2663
 8237SOL     OW25491   7.968   6.512   4.204  0.4365 -0.0810 -0.1823
 8237SOL    HW125492   7.968   6.465   4.287  0.1090  0.5998  0.2143
 8237SOL    HW225493   7.884   6.558   4.202  1.2071  1.3942 -0.0164
 8238SOL     OW25494   0.376   1.303   4.462  0.1231 -0.3469 -0.2627
 8238SOL    HW125495   0.412   1.240   4.399 -0.8050  1.0573 -2.3080
 8238SOL    HW225496   0.281   1.292   4.456 -0.0222  0.6770 -0.0751
 8239SOL     OW25497   7.265   2.786   7.013  0.0402  0.2311 -0.0778
 8239SOL    HW125498   7.291   2.878   7.027  0.5542  0.0648  0.0681
 8239SOL    HW225499   7.172   2.791   6.990  0.6019  1.0043 -2.4747
 8240SOL     OW25500   1.431   1.989   4.710 -0.0052 -0.8744 -0.6144
 8240SOL    HW125501   1.349   1.990   4.661 -0.6697 -0.8014  0.4628
 8240SOL    HW225502   1.458   2.081   4.713 -0.9534 -0.6089  0.7241
 8241SOL     OW25503   1.330   7.980   0.202  0.0249  0.5528 -0.4996
 8241SOL    HW125504   1.307   8.070   0.180 -1.5061  0.2630 -0.1807
 8241SOL    HW225505   1.366   7.944   0.120 -0.4010  1.1282 -0.9488
 8242SOL     OW25506   1.926   7.254   1.614  0.0322  0.0411  0.1408
 8242SOL    HW125507   2.005   7.296   1.580 -0.1453  0.6595  0.4696
 8242SOL    HW225508   1.957   7.170   1.649  0.0729 -1.0752 -2.3608
 8243SOL     OW25509   3.792   4.075   2.301  0.0105  0.4815  0.0044
 8243SOL    HW125510   3.711   4.125   2.314 -1.9736 -2.0148 -1.6481
 8243SOL    HW225511   3.790   4.008   2.369  1.0142  0.7211  0.2869
 8244SOL     OW25512   4.450   7.104   2.822  0.4367 -0.0780 -0.6409
 8244SOL    HW125513   4.403   7.039   2.770  0.4493  0.4147 -1.2728
 8244SOL    HW225514   4.535   7.113   2.779  0.4454  0.3410 -0.5388
 8245SOL     OW25515   2.961   4.335   5.847 -0.1317 -0.3764  0.1044
 8245SOL    HW125516   3.002   4.383   5.920  0.6477 -0.6058 -0.1743
 8245SOL    HW225517   2.912   4.401   5.800  0.1412 -0.0367  0.2896
 8246SOL     OW25518   2.936   0.469   4.979  0.3805 -0.1695  0.0573
 8246SOL    HW125519   2.987   0.499   4.904  0.0342 -2.3335 -1.1370
 8246SOL    HW225520   2.845   0.490   4.955  0.3477 -0.0973  0.2490
 8247SOL     OW25521   2.134   7.443   7.132  0.0568  0.3356 -0.4659
 8247SOL    HW125522   2.090   7.443   7.218  0.6011  0.1338 -0.1777
 8247SOL    HW225523   2.103   7.522   7.089  0.8941  1.2337  0.5063
 8248SOL     OW25524   4.283   1.788   7.467  0.2499 -0.2233  0.2277
 8248SOL    HW125525   4.328   1.715   7.510  0.3353 -0.0722  0.3949
 8248SOL    HW225526   4.215   1.746   7.414  0.2580 -0.4204  0.3725
 8249SOL     OW25527   8.198   6.662   5.604 -0.0821  0.0872 -0.2362
 8249SOL    HW125528   8.225   6.650   5.695 -1.1498  0.4136  0.1336
 8249SOL    HW225529   8.107   6.691   5.610 -0.4087 -0.6479 -1.4364
 8250SOL     OW25530   1.244   0.194   3.433  0.0488 -0.2224  0.3260
 8250SOL    HW125531   1.149   0.202   3.448 -0.0236  3.3862 -1.0487
 8250SOL    HW225532   1.252   0.122   3.371 -1.9100 -0.0622 -0.1892
 8251SOL     OW25533   2.680   8.219   2.453  0.6161 -0.0341 -0.0630
 8251SOL    HW125534   2.629   8.272   2.392  0.1582  1.0843  1.2395
 8251SOL    HW225535   2.767   8.214   2.414 -0.0480 -0.5977 -1.5210
 8252SOL     OW25536   1.596   7.709   0.173  0.0150  0.0726 -0.0711
 8252SOL    HW125537   1.638   7.771   0.114  2.3694 -0.9018  0.4828
 8252SOL    HW225538   1.580   7.631   0.119  1.5102 -0.5535  0.3326
 8253SOL     OW25539   8.191   5.310   1.592  0.2085 -0.1222  0.2224
 8253SOL    HW125540   8.168   5.238   1.650  0.1623  1.0719  1.7584
 8253SOL    HW225541   8.189   5.272   1.504 -0.1158 -1.8930  0.9515
 8254SOL     OW25542   6.393   5.598   2.941 -0.2445  0.2141 -0.5905
 8254SOL    HW125543   6.400   5.530   2.875 -0.6677  0.7497 -1.1994
 8254SOL    HW225544   6.461   5.662   2.919 -0.2470  0.2933 -0.3803
 8255SOL     OW25545   1.048   1.272   2.617  0.1659  0.4162 -0.3783
 8255SOL    HW125546   1.097   1.353   2.629 -1.2395  1.0176  1.9913
 8255SOL    HW225547   1.006   1.257   2.702 -1.5940 -1.4579 -1.4930
 8256SOL     OW25548   3.883   8.196   5.133  0.1973 -0.4387  0.0351
 8256SOL    HW125549   3.852   8.106   5.118 -2.1067  0.4596 -1.0859
 8256SOL    HW225550   3.899   8.231   5.045  0.5531  0.4419  0.4345
 8257SOL     OW25551   1.479   4.333   4.963  0.4370  0.4505  0.6827
 8257SOL    HW125552   1.456   4.289   5.045  0.3462  0.6206  0.7497
 8257SOL    HW225553   1.430   4.415   4.966  1.9913  1.4084  1.4170
 8258SOL     OW25554   4.554   8.293   6.058 -0.4103  0.0279 -0.5508
 8258SOL    HW125555   4.464   8.261   6.063  0.3969 -2.4149 -0.2271
 8258SOL    HW225556   4.591   8.251   5.980  0.9320 -0.5437  0.3336
 8259SOL     OW25557   3.855   0.544   7.311 -0.2027 -0.1586  0.3250
 8259SOL    HW125558   3.923   0.519   7.373 -1.3202 -1.0848  1.2115
 8259SOL    HW225559   3.815   0.623   7.349 -1.2260 -1.0195  1.0694
 8260SOL     OW25560   2.961   6.939   0.287  0.2419  0.7837  0.1634
 8260SOL    HW125561   3.014   6.918   0.211 -1.2621 -0.8447 -0.5093
 8260SOL    HW225562   3.013   6.910   0.362  0.1131 -1.3607 -0.5145
 8261SOL     OW25563   5.523   4.101   2.310  0.0449 -0.5271  0.3233
 8261SOL    HW125564   5.580   4.173   2.337  0.9812  0.4757 -3.6427
 8261SOL    HW225565   5.437   4.142   2.301 -0.1010 -0.6797  0.9783
 8262SOL     OW25566   5.414   3.000   1.991  0.1683 -0.8551 -0.4557
 8262SOL    HW125567   5.464   2.937   2.044 -1.2847 -2.3163 -0.7505
 8262SOL    HW225568   5.372   3.057   2.056  2.2372  0.5062 -0.2007
 8263SOL     OW25569   4.184   2.859   2.793  0.2658  0.5275  0.0516
 8263SOL    HW125570   4.254   2.878   2.855  0.7568 -0.6011 -0.1274
 8263SOL    HW225571   4.215   2.895   2.710  0.4676  0.3729  0.0585
 8264SOL     OW25572   5.574   2.239   4.287 -0.0735  0.2231 -0.1200
 8264SOL    HW125573   5.488   2.247   4.246 -0.2871  1.5670  0.5516
 8264SOL    HW225574   5.631   2.205   4.217 -1.0040 -0.1010 -0.7332
 8265SOL     OW25575   6.275   5.631   4.003  0.1382  0.6039  0.5906
 8265SOL    HW125576   6.278   5.554   3.946  0.5771  0.7402  0.4262
 8265SOL    HW225577   6.334   5.694   3.962  2.4835 -0.1933  2.5050
 8266SOL     OW25578   7.237   3.346   0.833 -0.2823 -0.0410 -0.1168
 8266SOL    HW125579   7.262   3.265   0.877 -2.6195  0.0078  1.4630
 8266SOL    HW225580   7.250   3.415   0.898  0.7982  0.7792 -1.1390
 8267SOL     OW25581   8.112   7.225   3.569 -0.0611 -0.3987  0.4582
 8267SOL    HW125582   8.035   7.181   3.606  0.6405 -1.1299  1.0897
 8267SOL    HW225583   8.181   7.159   3.573  0.2777 -0.2026 -1.3712
 8268SOL     OW25584   7.480   7.232   0.814  0.0423 -0.6992 -0.0422
 8268SOL    HW125585   7.488   7.186   0.731  0.3142  0.8121 -0.9064
 8268SOL    HW225586   7.538   7.308   0.805 -0.1849 -0.3108  1.4028
 8269SOL     OW25587   2.358   4.319   0.612 -0.5383  0.0251  0.5276
 8269SOL    HW125588   2.404   4.359   0.686 -0.2049 -1.1097  0.9446
 8269SOL    HW225589   2.268   4.311   0.641 -0.0135 -2.4551  1.7328
 8270SOL     OW25590   1.397   5.854   7.137 -0.2934 -0.2109 -0.4836
 8270SOL    HW125591   1.415   5.948   7.125  0.1780  0.0164  1.7213
 8270SOL    HW225592   1.481   5.812   7.125  0.4501  0.1371  2.6482
 8271SOL     OW25593   5.293   6.032   7.378 -0.1991 -0.1053  0.0392
 8271SOL    HW125594   5.277   5.958   7.436  2.3145 -0.3572  0.5075
 8271SOL    HW225595   5.259   6.003   7.293  0.3642 -1.6442  0.3097
 8272SOL     OW25596   2.704   0.421   2.228 -0.2696  0.2305 -0.3679
 8272SOL    HW125597   2.616   0.436   2.193 -0.5726 -0.8245 -0.0831
 8272SOL    HW225598   2.716   0.493   2.291 -1.5640 -0.4699  0.7411
 8273SOL     OW25599   5.741   0.859   7.860  0.1137  0.0492  0.1711
 8273SOL    HW125600   5.797   0.871   7.936 -1.1385 -0.5768  1.2179
 8273SOL    HW225601   5.660   0.905   7.882  0.5271  1.8395 -1.7414
 8274SOL     OW25602   6.355   2.415   2.865  0.4861  0.5245  0.8384
 8274SOL    HW125603   6.364   2.502   2.904 -1.9796  1.0813  0.3497
 8274SOL    HW225604   6.272   2.418   2.818  1.1865 -1.5519 -0.7080
 8275SOL     OW25605   8.025   0.755   2.628  0.1839  0.3044  0.7490
 8275SOL    HW125606   7.996   0.723   2.714 -1.1754 -2.9483 -0.7283
 8275SOL    HW225607   7.956   0.726   2.568  1.4831  1.7407 -1.5537
 8276SOL     OW25608   5.321   5.444   0.419  0.3439  0.5451 -0.1865
 8276SOL    HW125609   5.287   5.503   0.487 -0.5151  0.8472 -0.8528
 8276SOL    HW225610   5.249   5.383   0.402  0.7181  0.1870 -0.4978
 8277SOL     OW25611   3.023   1.137   1.823  0.2589  0.1180 -0.0150
 8277SOL    HW125612   3.065   1.129   1.909 -0.7107  0.1231  0.4762
 8277SOL    HW225613   3.053   1.221   1.789  0.5930  0.1506  0.3475
 8278SOL     OW25614   3.212   4.267   6.473 -0.4293 -0.0627 -0.0239
 8278SOL    HW125615   3.194   4.240   6.563 -2.6493  0.0967 -0.3665
 8278SOL    HW225616   3.135   4.317   6.447  0.8545  1.2604 -1.5121
 8279SOL     OW25617   8.061   8.311   4.862 -0.1591 -0.2352 -0.1265
 8279SOL    HW125618   8.027   8.333   4.949  0.6495 -2.9920  1.0036
 8279SOL    HW225619   8.005   8.359   4.801  0.3953  3.2688  1.8917
 8280SOL     OW25620   0.737   4.382   0.669 -0.3967  0.0171 -0.0164
 8280SOL    HW125621   0.673   4.450   0.649  0.3443  0.9599  0.7534
 8280SOL    HW225622   0.759   4.396   0.761  1.6503  0.3483 -0.5145
 8281SOL     OW25623   8.291   6.043   2.138  0.3712  0.2244  0.2654
 8281SOL    HW125624   8.235   5.994   2.197 -0.9615  0.6323 -0.6274
 8281SOL    HW225625   8.231   6.084   2.075  1.7509 -1.0546 -2.0381
 8282SOL     OW25626   2.512   2.684   2.181  0.0367 -0.5338  0.2462
 8282SOL    HW125627   2.542   2.607   2.229 -0.1533 -0.8349 -0.1133
 8282SOL    HW225628   2.447   2.725   2.238  0.3206 -0.4957  0.5470
 8283SOL     OW25629   6.769   7.114   4.282  0.4724  0.2452  0.0634
 8283SOL    HW125630   6.750   7.173   4.355 -2.4809 -2.4286  1.6727
 8283SOL    HW225631   6.845   7.064   4.310  0.4758  0.4998  0.5152
 8284SOL     OW25632   1.267   5.021   5.538 -0.7575 -0.1448 -0.2038
 8284SOL    HW125633   1.198   5.056   5.595 -0.0555  1.0075 -0.0266
 8284SOL    HW225634   1.259   5.072   5.458 -1.2998 -1.2981 -0.9056
 8285SOL     OW25635   8.234   1.119   2.107  0.0560  0.0909  0.3359
 8285SOL    HW125636   8.161   1.093   2.164 -0.0572 -0.6753 -0.1373
 8285SOL    HW225637   8.300   1.051   2.121  0.7829  0.8795  0.9053
 8286SOL     OW25638   7.877   4.835   4.454 -0.2847  0.2584  0.1992
 8286SOL    HW125639   7.956   4.887   4.434  1.1148 -0.6582  2.8782
 8286SOL    HW225640   7.836   4.881   4.527 -1.4621 -0.0839 -0.2220
 8287SOL     OW25641   5.341   0.718   4.649  0.0983 -0.2676  0.0907
 8287SOL    HW125642   5.342   0.633   4.695 -0.3938 -1.4592 -1.9949
 8287SOL    HW225643   5.273   0.768   4.694 -0.7151 -1.5700  0.3875
 8288SOL     OW25644   6.406   0.759   4.184  0.1920 -0.0268  0.3347
 8288SOL    HW125645   6.364   0.780   4.268  0.2925 -0.2443  0.4378
 8288SOL    HW225646   6.346   0.795   4.118 -0.5048 -0.9361  0.4603
 8289SOL     OW25647   6.761   2.968   5.524  0.4489 -0.6001 -0.0769
 8289SOL    HW125648   6.668   2.950   5.538  0.3522  0.4275  0.7777
 8289SOL    HW225649   6.806   2.901   5.575  0.1753 -0.9927 -0.3479
 8290SOL     OW25650   0.413   5.072   4.192  1.3703 -0.4511 -0.1160
 8290SOL    HW125651   0.345   5.101   4.253  2.3232 -1.6658  1.6072
 8290SOL    HW225652   0.402   5.128   4.115 -0.9484  0.0084  0.4883
 8291SOL     OW25653   1.474   4.423   0.859  0.1410 -0.1164  0.0417
 8291SOL    HW125654   1.408   4.391   0.920  0.2915 -1.1805 -0.3324
 8291SOL    HW225655   1.497   4.347   0.805 -1.3069  1.1726 -2.5942
 8292SOL     OW25656   4.936   0.987   5.344  0.2674  0.4837 -0.4443
 8292SOL    HW125657   4.868   0.923   5.367  0.1205  0.0715 -1.8849
 8292SOL    HW225658   5.001   0.980   5.413 -1.1598  0.9159  1.0128
 8293SOL     OW25659   0.819   1.614   5.178  0.1164 -0.1625 -0.1361
 8293SOL    HW125660   0.815   1.702   5.139 -1.6454 -0.2073 -0.1011
 8293SOL    HW225661   0.728   1.586   5.186  0.5693 -1.4024  1.2362
 8294SOL     OW25662   6.128   1.098   7.049 -0.5630  0.4995 -0.3720
 8294SOL    HW125663   6.184   1.022   7.034 -0.0463  0.7425  0.2618
 8294SOL    HW225664   6.188   1.172   7.049 -1.1800  1.0303 -1.9175
 8295SOL     OW25665   2.789   6.749   4.733 -0.1844  0.0092 -0.0550
 8295SOL    HW125666   2.729   6.709   4.670  0.1386  0.1343 -0.4494
 8295SOL    HW225667   2.825   6.825   4.686 -1.8162  1.6013  1.1436
 8296SOL     OW25668   5.968   0.704   1.305  0.3440 -0.5935  0.2510
 8296SOL    HW125669   6.024   0.761   1.252  0.4176 -0.9058 -0.0098
 8296SOL    HW225670   6.020   0.625   1.319 -0.2894 -1.1632 -0.5672
 8297SOL     OW25671   6.368   0.320   4.544 -0.4398  0.1133 -0.0604
 8297SOL    HW125672   6.446   0.270   4.569  0.7183  2.0436  0.4338
 8297SOL    HW225673   6.403   0.399   4.503 -2.2298 -0.5490 -3.1881
 8298SOL     OW25674   1.248   6.278   1.441  0.0332  0.4878 -0.7014
 8298SOL    HW125675   1.179   6.231   1.394  0.4633  0.3096 -1.1679
 8298SOL    HW225676   1.243   6.368   1.406 -0.8874  0.8501  0.2987
 8299SOL     OW25677   2.300   5.616   6.881  0.5385 -0.0415 -0.1104
 8299SOL    HW125678   2.227   5.660   6.836  0.2651 -1.4797 -1.1436
 8299SOL    HW225679   2.370   5.682   6.883 -0.9572  1.6323  1.5386
 8300SOL     OW25680   8.135   2.376   6.933  0.0683  0.0806  0.0634
 8300SOL    HW125681   8.099   2.295   6.896 -2.5294  0.4827  1.4779
 8300SOL    HW225682   8.214   2.392   6.882 -1.3357 -1.3225 -2.8094
 8301SOL     OW25683   3.341   2.533   3.057 -0.1497 -0.3206 -0.7337
 8301SOL    HW125684   3.349   2.447   3.017  0.2534 -1.6837  2.0542
 8301SOL    HW225685   3.252   2.561   3.036 -0.2657 -1.3435 -1.7438
 8302SOL     OW25686   2.704   2.682   3.363  0.3786 -0.0962 -0.4486
 8302SOL    HW125687   2.710   2.773   3.336  1.0570 -0.3425 -1.1310
 8302SOL    HW225688   2.633   2.646   3.310  0.5411 -0.1296 -0.6438
 8303SOL     OW25689   6.325   2.491   6.125  0.0669  0.3076 -0.5536
 8303SOL    HW125690   6.391   2.559   6.136  0.2910  0.3163 -1.8787
 8303SOL    HW225691   6.245   2.530   6.160  0.1935  1.2598 -1.3092
 8304SOL     OW25692   4.962   2.647   6.342 -0.2423 -0.9415  0.4978
 8304SOL    HW125693   5.023   2.577   6.319 -0.7570 -1.0993 -0.4487
 8304SOL    HW225694   5.010   2.727   6.324 -0.3882 -1.0641 -0.5382
 8305SOL     OW25695   3.640   1.811   5.795 -0.6349 -0.2089 -0.1797
 8305SOL    HW125696   3.712   1.764   5.839 -0.0619  0.7701 -0.0409
 8305SOL    HW225697   3.585   1.842   5.867 -1.1540 -0.8632 -0.2837
 8306SOL     OW25698   1.395   4.577   6.163 -0.1184 -0.4240 -0.1996
 8306SOL    HW125699   1.367   4.556   6.074 -1.1452  1.3676 -0.3437
 8306SOL    HW225700   1.420   4.670   6.159 -1.1522 -0.0185  1.5926
 8307SOL     OW25701   2.964   1.559   1.673 -0.1272 -0.1351  0.2476
 8307SOL    HW125702   2.941   1.566   1.580  0.7958  0.1901  0.0300
 8307SOL    HW225703   2.884   1.582   1.720  0.2048  2.8562 -0.4634
 8308SOL     OW25704   4.701   4.107   7.400 -0.1946  0.4855  0.0234
 8308SOL    HW125705   4.762   4.148   7.461  0.0964  0.2563 -0.1107
 8308SOL    HW225706   4.616   4.146   7.421  0.2482  1.9344 -0.8085
 8309SOL     OW25707   0.475   6.272   0.503  0.2412 -0.2532  0.2286
 8309SOL    HW125708   0.471   6.284   0.409  0.8805  1.0524  0.3585
 8309SOL    HW225709   0.450   6.356   0.540  2.7471  0.1518  1.1897
 8310SOL     OW25710   7.307   3.321   7.559 -0.5498  0.1066  0.0861
 8310SOL    HW125711   7.397   3.352   7.564 -0.3125 -0.7619  2.2575
 8310SOL    HW225712   7.283   3.332   7.467  1.3498  1.4641 -0.3055
 8311SOL     OW25713   6.747   1.373   1.060 -0.7667  0.7246  0.2759
 8311SOL    HW125714   6.676   1.309   1.070 -1.3046  1.4814  1.5095
 8311SOL    HW225715   6.765   1.402   1.150  1.4532  0.1963  0.0555
 8312SOL     OW25716   7.742   0.861   6.578  0.1463  0.2974 -0.1507
 8312SOL    HW125717   7.662   0.897   6.540  0.7903  0.9090 -0.9661
 8312SOL    HW225718   7.772   0.928   6.639  0.2430  0.2563 -0.1522
 8313SOL     OW25719   1.026   8.183   7.181 -0.0342 -0.5573 -0.1453
 8313SOL    HW125720   1.066   8.265   7.212  0.6510 -0.2364 -1.7788
 8313SOL    HW225721   0.973   8.153   7.255  1.0319  0.4794  1.0913
 8314SOL     OW25722   4.551   7.398   1.904 -0.2150 -0.2778 -0.3613
 8314SOL    HW125723   4.594   7.395   1.819 -2.5664  2.9016 -1.8729
 8314SOL    HW225724   4.458   7.395   1.885 -0.8523  1.1938  2.0010
 8315SOL     OW25725   5.960   3.452   0.563 -0.0297 -0.8744 -0.3000
 8315SOL    HW125726   6.020   3.525   0.579 -1.6913  0.8272 -1.3336
 8315SOL    HW225727   5.980   3.389   0.631  1.6212  0.4612  0.5357
 8316SOL     OW25728   7.151   3.247   2.390 -0.4435  0.5000  0.0339
 8316SOL    HW125729   7.179   3.205   2.472 -0.5938  1.1619  0.4302
 8316SOL    HW225730   7.107   3.327   2.418 -1.1390  0.3687 -0.6658
 8317SOL     OW25731   1.129   4.718   6.903 -0.1218 -0.1644 -0.1861
 8317SOL    HW125732   1.134   4.660   6.827 -0.1504 -1.0110  0.4489
 8317SOL    HW225733   1.047   4.766   6.891 -0.6655 -1.0649 -0.1536
 8318SOL     OW25734   7.169   8.145   7.267 -0.0525  0.2154  0.5711
 8318SOL    HW125735   7.109   8.080   7.229 -0.9963 -0.1468  2.5702
 8318SOL    HW225736   7.139   8.229   7.230  0.1991 -0.2803 -0.8271
 8319SOL     OW25737   5.367   2.453   4.155 -0.0838  0.0693  0.2378
 8319SOL    HW125738   5.371   2.469   4.249 -1.4397  0.2017  0.2843
 8319SOL    HW225739   5.290   2.398   4.143  0.2879 -0.2479 -0.7597
 8320SOL     OW25740   4.807   1.707   3.719  0.3409 -0.2272  0.0552
 8320SOL    HW125741   4.867   1.704   3.644 -2.4399 -3.1606 -2.3390
 8320SOL    HW225742   4.741   1.771   3.694  0.9359  1.0000  1.4705
 8321SOL     OW25743   7.916   7.696   2.618  0.0241 -0.2683  0.2295
 8321SOL    HW125744   7.905   7.616   2.670  0.6425  0.7497  1.9975
 8321SOL    HW225745   7.828   7.733   2.614  0.4043  1.2619  3.3623
 8322SOL     OW25746   3.655   2.877   1.003  0.0689 -0.3120  0.1441
 8322SOL    HW125747   3.691   2.840   1.084  0.7758  0.3523  0.1445
 8322SOL    HW225748   3.661   2.972   1.016 -2.3711 -0.1467  0.4414
 8323SOL     OW25749   0.514   4.036   8.096 -0.5563  0.1867 -0.2941
 8323SOL    HW125750   0.431   4.083   8.096 -1.2647 -0.9923  1.3960
 8323SOL    HW225751   0.513   3.985   8.015 -1.7103 -0.2076 -0.0403
 8324SOL     OW25752   6.312   2.688   6.669 -0.2171 -0.1242  0.4341
 8324SOL    HW125753   6.220   2.707   6.690  0.7648  3.0879  2.5018
 8324SOL    HW225754   6.338   2.623   6.734 -0.7826 -0.4382  0.3598
 8325SOL     OW25755   1.091   4.332   1.386  0.0095  0.4673  0.6852
 8325SOL    HW125756   1.034   4.381   1.445 -0.7520  0.9572 -0.4089
 8325SOL    HW225757   1.131   4.264   1.441 -1.0847  0.5630  1.6382
 8326SOL     OW25758   1.406   1.253   8.061  0.2659  0.7684  0.2693
 8326SOL    HW125759   1.453   1.173   8.085  0.1087  0.5456 -0.1562
 8326SOL    HW225760   1.351   1.227   7.987  0.5924  1.3905 -0.1945
 8327SOL     OW25761   1.599   4.784   4.887  0.2149  0.2071 -0.1213
 8327SOL    HW125762   1.516   4.771   4.934  0.8180 -0.5143  0.8001
 8327SOL    HW225763   1.647   4.702   4.902  0.9799  0.5143 -0.8687
 8328SOL     OW25764   2.362   5.221   1.502  0.7298  0.3674  0.4305
 8328SOL    HW125765   2.396   5.195   1.588  0.7575 -0.8369  0.0801
 8328SOL    HW225766   2.438   5.259   1.458  0.9121  0.2820  0.6650
 8329SOL     OW25767   1.595   5.503   5.614 -0.2483  0.2942 -0.2094
 8329SOL    HW125768   1.650   5.430   5.641  1.4358  1.3828 -0.4938
 8329SOL    HW225769   1.526   5.464   5.560  0.0455 -1.1663  0.4449
 8330SOL     OW25770   0.663   7.336   6.323  0.2804 -0.8695  0.1576
 8330SOL    HW125771   0.704   7.402   6.267  1.3940 -2.7094 -1.3126
 8330SOL    HW225772   0.573   7.329   6.290  0.3362 -0.5070 -0.0728
 8331SOL     OW25773   7.712   6.023   0.459  0.3418  0.1794  0.1822
 8331SOL    HW125774   7.626   5.992   0.432  0.9488 -1.0678 -0.4025
 8331SOL    HW225775   7.729   6.099   0.403  0.0136 -0.1286 -0.3411
 8332SOL     OW25776   2.057   6.632   0.676 -0.2941 -0.1585  0.2139
 8332SOL    HW125777   1.974   6.621   0.723 -0.0845 -0.4360  0.5299
 8332SOL    HW225778   2.099   6.547   0.683 -0.4989 -0.3770 -0.9699
 8333SOL     OW25779   5.720   2.565   6.113  0.6504  0.1371  0.3616
 8333SOL    HW125780   5.807   2.603   6.102  0.4294  0.4625 -0.3805
 8333SOL    HW225781   5.661   2.631   6.077  0.1936 -0.6095 -0.2852
 8334SOL     OW25782   2.448   3.137   6.296 -0.3162 -0.5928  0.0266
 8334SOL    HW125783   2.417   3.226   6.281 -3.1012 -1.2671  1.2567
 8334SOL    HW225784   2.507   3.145   6.371  1.2317  0.4390 -1.2016
 8335SOL     OW25785   2.835   3.266   7.124 -0.2372  0.5978  0.0647
 8335SOL    HW125786   2.906   3.208   7.097  1.7515  1.8634  2.2510
 8335SOL    HW225787   2.858   3.351   7.086 -1.0607  0.8211  0.0582
 8336SOL     OW25788   7.781   6.725   1.437 -0.0083 -0.2761 -0.0528
 8336SOL    HW125789   7.788   6.770   1.353  1.0977 -0.6437 -0.1780
 8336SOL    HW225790   7.756   6.636   1.414  0.1570 -0.3399  0.0129
 8337SOL     OW25791   6.690   8.183   2.278 -0.1012 -0.3423  0.1200
 8337SOL    HW125792   6.606   8.222   2.257  0.0958 -0.4837 -0.9973
 8337SOL    HW225793   6.704   8.117   2.210  1.4313  0.4828 -0.4239
 8338SOL     OW25794   0.320   2.447   3.035 -0.3759 -0.4457  0.1062
 8338SOL    HW125795   0.241   2.454   2.982  0.0352  1.4435 -0.3179
 8338SOL    HW225796   0.376   2.386   2.987 -1.4781 -1.7016  0.3447
 8339SOL     OW25797   7.679   2.517   6.350 -0.0145  0.0011  0.3328
 8339SOL    HW125798   7.739   2.520   6.275  0.4501 -3.2109  0.4244
 8339SOL    HW225799   7.604   2.468   6.319 -1.7343  2.1193  0.8788
 8340SOL     OW25800   5.579   2.555   0.871 -0.1736  0.0698 -0.0095
 8340SOL    HW125801   5.489   2.542   0.902 -0.7771 -1.4440 -2.1802
 8340SOL    HW225802   5.633   2.503   0.930 -1.0794 -1.2918 -0.3366
 8341SOL     OW25803   1.619   3.545   3.700 -0.1783  0.2206 -0.7427
 8341SOL    HW125804   1.571   3.471   3.738 -0.4369  0.4837 -0.5549
 8341SOL    HW225805   1.677   3.574   3.770 -0.0592  0.1809 -0.8247
 8342SOL     OW25806   4.443   0.991   3.383  0.2469 -0.0032  0.2936
 8342SOL    HW125807   4.450   0.898   3.406 -2.4649 -0.2113  0.5805
 8342SOL    HW225808   4.366   1.022   3.430  1.8853  2.8166  1.3450
 8343SOL     OW25809   2.684   0.597   1.658 -0.0125  0.2440 -0.6387
 8343SOL    HW125810   2.689   0.618   1.564 -3.8684 -0.9228 -1.2857
 8343SOL    HW225811   2.761   0.542   1.674  0.6981  0.3695 -3.1406
 8344SOL     OW25812   3.502   0.074   0.222 -0.3978 -0.1106 -0.3360
 8344SOL    HW125813   3.519   0.165   0.247 -1.6761  0.4376 -1.3709
 8344SOL    HW225814   3.449   0.040   0.293 -0.5641  0.1910 -0.3114
 8345SOL     OW25815   4.518   1.284   2.766  0.1755 -0.6010 -0.5958
 8345SOL    HW125816   4.429   1.304   2.797  0.7410 -0.3978  0.9780
 8345SOL    HW225817   4.547   1.363   2.722  0.4551  0.2317  1.0213
 8346SOL     OW25818   7.492   0.288   2.622  0.2345  0.0887 -0.5049
 8346SOL    HW125819   7.468   0.229   2.551  0.9151 -3.2073  1.7873
 8346SOL    HW225820   7.586   0.301   2.612  0.5203 -1.2145  0.3082
 8347SOL     OW25821   0.077   7.308   7.847 -0.6470 -0.3240 -0.3249
 8347SOL    HW125822   0.134   7.247   7.799 -0.2976  0.3684 -0.8263
 8347SOL    HW225823   0.053   7.262   7.927 -1.9527 -1.8721 -1.5410
 8348SOL     OW25824   4.664   2.122   7.737 -0.2110 -0.6668 -0.6066
 8348SOL    HW125825   4.685   2.062   7.665  0.7927 -0.8410 -0.1859
 8348SOL    HW225826   4.736   2.185   7.737 -0.8583  0.0862 -0.5481
 8349SOL     OW25827   1.361   7.856   1.091 -0.0529 -0.0106 -0.3358
 8349SOL    HW125828   1.290   7.895   1.040 -0.2137 -2.1240 -1.8513
 8349SOL    HW225829   1.429   7.923   1.094 -0.5858  0.6598 -2.2181
 8350SOL     OW25830   3.623   1.627   8.311 -0.1136 -0.2082  0.2925
 8350SOL    HW125831   3.528   1.625   8.325  0.1456  0.5592  2.4867
 8350SOL    HW225832   3.654   1.542   8.342  0.0474  0.0119  0.7400
 8351SOL     OW25833   2.206   5.033   5.053  0.1758 -0.2621 -0.3745
 8351SOL    HW125834   2.150   5.110   5.051  0.0948 -0.2025  2.1086
 8351SOL    HW225835   2.295   5.067   5.068  0.1677 -0.6172  0.5346
 8352SOL     OW25836   4.197   5.363   1.031 -0.3291 -0.3064 -0.1608
 8352SOL    HW125837   4.181   5.441   1.085  0.8822 -0.4167  0.3787
 8352SOL    HW225838   4.256   5.394   0.962  0.6488 -0.8755  0.4105
 8353SOL     OW25839   7.044   6.918   0.147  0.2118 -0.0785  0.1237
 8353SOL    HW125840   6.986   6.904   0.072 -0.7920  0.7797  0.6964
 8353SOL    HW225841   7.064   6.829   0.178 -0.3699 -0.4152 -0.4184
 8354SOL     OW25842   4.526   3.513   6.653  0.4503 -0.2080  0.4864
 8354SOL    HW125843   4.462   3.535   6.586  0.6296  0.0242  0.3904
 8354SOL    HW225844   4.611   3.523   6.609  0.5320 -1.4144  0.3318
 8355SOL     OW25845   6.529   3.440   2.232 -0.5330  0.6660  0.3642
 8355SOL    HW125846   6.585   3.515   2.249  3.5320 -1.7297 -1.0488
 8355SOL    HW225847   6.537   3.386   2.311 -2.0245  0.8608  0.6777
 8356SOL     OW25848   1.276   0.131   0.043 -0.4964  0.1350 -0.4554
 8356SOL    HW125849   1.184   0.142   0.019 -1.0913 -3.8372 -0.6922
 8356SOL    HW225850   1.323   0.191  -0.014 -2.8305  1.2247 -1.3743
 8357SOL     OW25851   7.288   0.094   3.493  0.2303 -0.2078 -0.0747
 8357SOL    HW125852   7.286   0.111   3.399  2.1788 -0.5625 -0.2121
 8357SOL    HW225853   7.381   0.091   3.516 -0.1460  2.5032  2.3896
 8358SOL     OW25854   5.330   5.970   5.242 -0.2819  0.1396  0.3104
 8358SOL    HW125855   5.273   5.936   5.173  0.4782 -0.4465 -0.0340
 8358SOL    HW225856   5.324   6.065   5.233  2.5871  0.1825 -2.9380
 8359SOL     OW25857   6.725   4.326   4.568 -0.0560 -0.4843 -0.7177
 8359SOL    HW125858   6.690   4.381   4.497 -1.3677 -0.4513 -0.0706
 8359SOL    HW225859   6.820   4.327   4.554 -0.0446  1.7351 -0.9047
 8360SOL     OW25860   0.525   4.260   2.979  0.4604 -0.4747 -0.2454
 8360SOL    HW125861   0.432   4.239   2.976  0.1277  0.9718 -0.9499
 8360SOL    HW225862   0.530   4.352   2.952  1.9001  0.0808  1.6907
 8361SOL     OW25863   0.238   1.079   7.279 -0.1027  0.3640  0.2583
 8361SOL    HW125864   0.292   1.111   7.206  0.5175  1.9848  1.3959
 8361SOL    HW225865   0.210   1.157   7.325 -3.5958 -0.3996 -0.3158
 8362SOL     OW25866   1.559   6.413   4.206  0.5383  0.1126 -0.0808
 8362SOL    HW125867   1.534   6.345   4.143  0.4142 -0.7678  0.9034
 8362SOL    HW225868   1.645   6.443   4.176 -0.5396  1.4377 -2.0729
 8363SOL     OW25869   3.331   2.137   4.057 -0.1045  0.1998  0.3852
 8363SOL    HW125870   3.277   2.182   4.122  0.6100 -1.5241  2.2931
 8363SOL    HW225871   3.329   2.194   3.980 -0.5153  2.6657  2.0903
 8364SOL     OW25872   0.359   0.268   2.071 -0.6905  0.0778 -0.4521
 8364SOL    HW125873   0.309   0.234   1.996  0.9389 -0.5171 -1.3243
 8364SOL    HW225874   0.433   0.208   2.079  0.6266  1.6943 -0.0665
 8365SOL     OW25875   0.561   5.521   4.609  1.0509  0.3797  0.3014
 8365SOL    HW125876   0.554   5.466   4.687  0.9212  1.6117  1.1889
 8365SOL    HW225877   0.627   5.586   4.631  0.1800  1.4604 -0.1556
 8366SOL     OW25878   3.894   8.248   4.861 -0.1361 -0.2492 -0.0080
 8366SOL    HW125879   3.887   8.186   4.789  0.2611 -0.6319  0.2730
 8366SOL    HW225880   3.983   8.282   4.855  0.3291 -1.1965  1.0098
 8367SOL     OW25881   3.234   1.543   1.925 -0.0549 -0.6783 -0.5112
 8367SOL    HW125882   3.329   1.533   1.919  0.1708  0.7289  0.3723
 8367SOL    HW225883   3.214   1.523   2.017 -0.7141 -1.5696 -0.8321
 8368SOL     OW25884   2.518   2.153   7.803 -0.3763 -0.1137 -0.1933
 8368SOL    HW125885   2.502   2.138   7.896  1.0704  0.3759  0.1589
 8368SOL    HW225886   2.603   2.197   7.800  0.1634 -1.1897 -1.8282
 8369SOL     OW25887   1.259   8.061   4.792  0.4652 -0.2215  0.4526
 8369SOL    HW125888   1.303   8.050   4.877 -1.2439  0.1679  1.4344
 8369SOL    HW225889   1.270   8.154   4.771 -0.3457  0.0092  0.9916
 8370SOL     OW25890   7.317   5.275   3.479 -0.0753  0.4911  0.4698
 8370SOL    HW125891   7.338   5.277   3.572 -0.5683  1.3827  0.5700
 8370SOL    HW225892   7.357   5.194   3.447  2.5640  1.5423  0.8642
 8371SOL     OW25893   5.362   2.517   8.313  0.4538  0.1662  0.2401
 8371SOL    HW125894   5.406   2.448   8.264  0.2689 -0.0203  0.3386
 8371SOL    HW225895   5.429   2.553   8.370 -0.0109 -1.5134  1.9327
 8372SOL     OW25896   4.289   6.857   4.903 -0.1775 -0.0222  0.9130
 8372SOL    HW125897   4.280   6.909   4.824 -0.3065  0.3264  1.1569
 8372SOL    HW225898   4.336   6.778   4.875 -0.4291 -0.0065  0.4460
 8373SOL     OW25899   7.453   5.110   0.156  0.6030 -0.4598 -0.1245
 8373SOL    HW125900   7.364   5.138   0.137  0.9282  2.0385  1.5417
 8373SOL    HW225901   7.446   5.061   0.238  0.8916  1.2690  0.9918
 8374SOL     OW25902   4.314   1.278   2.414  0.5154 -0.5603  0.2112
 8374SOL    HW125903   4.220   1.275   2.398  0.1181  2.6591  1.2126
 8374SOL    HW225904   4.338   1.187   2.436 -3.0096 -1.0072  3.1712
 8375SOL     OW25905   7.578   0.850   5.589  0.0154  0.0869 -0.2393
 8375SOL    HW125906   7.667   0.878   5.612 -0.6236 -0.4443  3.3870
 8375SOL    HW225907   7.578   0.755   5.603 -1.6073  0.3486  1.9821
 8376SOL     OW25908   2.247   0.743   3.610  0.0853 -0.3608 -0.2016
 8376SOL    HW125909   2.341   0.730   3.624  0.5872  2.7547  0.0984
 8376SOL    HW225910   2.230   0.833   3.641 -2.7850 -0.4114 -1.2795
 8377SOL     OW25911   4.119   6.666   1.807 -0.0635  0.0745 -0.5270
 8377SOL    HW125912   4.082   6.587   1.846  0.7892  0.0112  0.1835
 8377SOL    HW225913   4.208   6.670   1.841  0.5565  0.2909 -2.0810
 8378SOL     OW25914   6.743   1.065   4.432 -0.1700 -0.2277 -0.7010
 8378SOL    HW125915   6.718   1.136   4.491 -0.0168 -1.2060  0.5814
 8378SOL    HW225916   6.664   1.013   4.421 -0.0578 -0.3546 -0.9292
 8379SOL     OW25917   6.543   1.837   2.027 -0.3281  0.1037  0.0994
 8379SOL    HW125918   6.459   1.831   2.073 -1.7987  3.6606 -1.7778
 8379SOL    HW225919   6.530   1.789   1.946 -0.2312 -0.0799  0.1917
 8380SOL     OW25920   5.625   5.911   5.456  0.1470  0.5454  0.4687
 8380SOL    HW125921   5.715   5.921   5.428  0.0093  2.6145  0.6696
 8380SOL    HW225922   5.592   5.836   5.405  1.5279  0.6887 -0.6713
 8381SOL     OW25923   6.468   4.959   5.256  0.1201  0.2665 -0.2681
 8381SOL    HW125924   6.458   4.917   5.342  2.1743  0.2113 -0.0004
 8381SOL    HW225925   6.474   5.052   5.275  0.4016  0.2685 -0.3578
 8382SOL     OW25926   6.138   6.542   5.457 -0.5869  0.2968  0.1653
 8382SOL    HW125927   6.120   6.454   5.425  0.8447  0.1708 -0.3706
 8382SOL    HW225928   6.205   6.576   5.397  0.3325  1.0056  1.5561
 8383SOL     OW25929   6.299   5.220   0.339  0.4997 -0.0308 -0.3569
 8383SOL    HW125930   6.289   5.260   0.425  1.3849  1.2640 -0.8277
 8383SOL    HW225931   6.385   5.179   0.342  1.0147  0.9574 -0.9553
 8384SOL     OW25932   7.795   1.496   4.898 -0.0875  0.3123  0.1105
 8384SOL    HW125933   7.866   1.523   4.957 -1.2870  0.7912  1.3958
 8384SOL    HW225934   7.800   1.401   4.896  1.1917  0.3735 -0.6129
 8385SOL     OW25935   2.690   6.976   0.244 -0.6012  0.6636  0.3497
 8385SOL    HW125936   2.786   6.972   0.246 -0.6327 -3.0421  1.4011
 8385SOL    HW225937   2.663   6.931   0.324 -3.2257 -0.1611 -0.9062
 8386SOL     OW25938   5.649   0.107   6.453  0.1190  0.3187  0.2006
 8386SOL    HW125939   5.559   0.129   6.429 -0.3752  0.8346  2.2760
 8386SOL    HW225940   5.688   0.192   6.476  0.2905 -0.1569  1.8058
 8387SOL     OW25941   6.465   6.910   5.295  0.3573  0.0942 -0.2125
 8387SOL    HW125942   6.534   6.910   5.361  1.1977  0.1444 -1.0723
 8387SOL    HW225943   6.511   6.925   5.213 -0.7969  1.0945 -0.6888
 8388SOL     OW25944   0.929   8.163   7.608  0.0921 -0.2641  0.2253
 8388SOL    HW125945   0.894   8.076   7.588  0.0782 -0.3945  0.7754
 8388SOL    HW225946   0.912   8.215   7.530 -1.6256 -0.2405  0.5617
 8389SOL     OW25947   6.725   1.072   0.661 -0.5565 -0.1462  0.0569
 8389SOL    HW125948   6.771   1.153   0.640  1.0987 -0.8264  0.8756
 8389SOL    HW225949   6.771   1.004   0.612 -1.2198 -0.7485  0.2372
 8390SOL     OW25950   8.254   0.139   4.674 -0.4366 -0.1877  0.1934
 8390SOL    HW125951   8.269   0.230   4.699  0.9803 -0.9277  2.3542
 8390SOL    HW225952   8.243   0.093   4.757  0.4526 -2.2267 -0.7386
 8391SOL     OW25953   1.959   8.155   2.869 -0.7053 -0.0669  0.0476
 8391SOL    HW125954   2.026   8.222   2.879 -0.7084 -0.2709  1.7454
 8391SOL    HW225955   1.978   8.092   2.938 -1.5414 -1.1055 -0.6302
 8392SOL     OW25956   1.159   1.604   7.659  0.2315 -0.5429 -0.7125
 8392SOL    HW125957   1.161   1.532   7.722  2.0595 -0.6802 -0.8627
 8392SOL    HW225958   1.134   1.563   7.576  0.2397 -0.8171 -0.5797
 8393SOL     OW25959   5.685   0.979   0.384  0.3667  0.0259 -0.0398
 8393SOL    HW125960   5.683   1.075   0.380  3.1911  0.1338 -1.3369
 8393SOL    HW225961   5.718   0.952   0.299  0.2656 -2.0916  0.5344
 8394SOL     OW25962   8.290   3.841   1.528 -0.7318 -0.0414  0.0480
 8394SOL    HW125963   8.297   3.836   1.624 -2.1462 -0.4968  0.1496
 8394SOL    HW225964   8.235   3.766   1.504  0.2468 -0.3926 -1.2109
 8395SOL     OW25965   3.385   4.252   4.961 -0.3676  0.4476 -0.4664
 8395SOL    HW125966   3.406   4.182   4.898 -0.8154 -0.1948  0.0917
 8395SOL    HW225967   3.470   4.280   4.994 -0.2260 -0.5950  0.1091
 8396SOL     OW25968   0.914   2.188   1.803 -0.0271  0.0270  0.1841
 8396SOL    HW125969   0.921   2.278   1.773 -0.3692  0.1496  0.4716
 8396SOL    HW225970   0.928   2.135   1.725  0.4145  0.3252  0.0590
 8397SOL     OW25971   1.444   6.374   2.270 -0.0428  0.1254  0.3409
 8397SOL    HW125972   1.464   6.338   2.357  0.0318 -0.2872  0.1554
 8397SOL    HW225973   1.439   6.469   2.284 -1.3440 -0.0246  1.0529
 8398SOL     OW25974   8.097   7.112   2.918 -0.1860  0.1936 -0.3691
 8398SOL    HW125975   8.025   7.134   2.859  0.3932  1.2147 -0.7230
 8398SOL    HW225976   8.139   7.037   2.877 -1.0294 -0.4098 -0.1611
 8399SOL     OW25977   7.150   1.606   5.583 -0.6015 -0.3902  0.1109
 8399SOL    HW125978   7.191   1.691   5.569  2.2960 -1.4205  1.6632
 8399SOL    HW225979   7.073   1.607   5.526 -1.0041  3.4366  0.4761
 8400SOL     OW25980   3.423   0.074   7.938 -0.0060  0.5642 -0.5427
 8400SOL    HW125981   3.496   0.099   7.994 -0.1364 -0.7182  0.2267
 8400SOL    HW225982   3.386  -0.004   7.979 -1.5196  0.9066 -1.1728
 8401SOL     OW25983   2.928   3.766   0.354 -0.1533  0.5076 -0.5738
 8401SOL    HW125984   2.989   3.840   0.351 -0.1323  0.4483 -1.9170
 8401SOL    HW225985   2.980   3.691   0.326  0.4899 -0.5569  2.9724
 8402SOL     OW25986   7.246   7.004   0.699  0.2602 -0.4429 -0.1609
 8402SOL    HW125987   7.322   6.993   0.640  0.3949  0.2185 -0.1123
 8402SOL    HW225988   7.173   6.968   0.649  0.9173 -3.0715  0.5987
 8403SOL     OW25989   4.267   5.804   1.696  0.3363  0.3819  0.3784
 8403SOL    HW125990   4.277   5.839   1.608 -0.4845 -0.3669 -0.0382
 8403SOL    HW225991   4.206   5.864   1.740  0.7905  0.7863  0.4574
 8404SOL     OW25992   0.447   1.439   3.345  0.3934 -0.4430  0.4565
 8404SOL    HW125993   0.383   1.368   3.350 -0.8636  0.5260 -1.0804
 8404SOL    HW225994   0.415   1.505   3.407  0.3416 -0.2865  0.2631
 8405SOL     OW25995   4.622   4.020   8.185 -0.5687  0.2432  0.4685
 8405SOL    HW125996   4.618   4.011   8.089 -1.9616  0.2000  0.5064
 8405SOL    HW225997   4.715   4.022   8.205 -0.2359  1.5191 -1.0140
 8406SOL     OW25998   4.144   1.210   1.433 -0.6366 -0.2530  0.1198
 8406SOL    HW125999   4.187   1.219   1.518 -0.0557  1.0963 -0.2851
 8406SOL    HW226000   4.185   1.276   1.378 -2.0661 -0.0583 -0.7784
 8407SOL     OW26001   2.335   0.787   1.671  0.3373 -0.1509  0.0836
 8407SOL    HW126002   2.364   0.697   1.660  0.9904 -0.0687  0.9664
 8407SOL    HW226003   2.414   0.835   1.698 -0.0314  0.6507 -0.2121
 8408SOL     OW26004   5.096   3.671   2.457 -0.4343  0.0516 -0.1590
 8408SOL    HW126005   5.019   3.619   2.434  2.5119 -4.2023 -1.5368
 8408SOL    HW226006   5.105   3.658   2.551  0.0143 -1.7126 -0.4149
 8409SOL     OW26007   2.279   3.404   5.447 -0.3466  0.0024 -0.1746
 8409SOL    HW126008   2.202   3.347   5.445  0.0862 -0.5893 -1.9669
 8409SOL    HW226009   2.353   3.343   5.459 -0.1383  0.6026  2.0594
 8410SOL     OW26010   3.264   5.876   6.450 -0.0441 -0.0232 -0.3450
 8410SOL    HW126011   3.304   5.801   6.494 -0.0119  0.6934  0.8796
 8410SOL    HW226012   3.196   5.838   6.394 -0.9468 -0.8674  1.2788
 8411SOL     OW26013   4.318   4.563   3.356  0.4390 -0.3275  0.1382
 8411SOL    HW126014   4.366   4.637   3.321  1.6750 -1.1071  0.1265
 8411SOL    HW226015   4.304   4.505   3.281 -1.6874  0.4582 -0.1351
 8412SOL     OW26016   7.579   2.739   7.294  0.6339 -0.1479 -0.3030
 8412SOL    HW126017   7.509   2.684   7.259  1.3223 -0.2454 -1.6003
 8412SOL    HW226018   7.589   2.809   7.230  0.9514  0.5056  0.4495
 8413SOL     OW26019   3.127   4.123   1.250 -0.0733 -0.1499 -0.0214
 8413SOL    HW126020   3.083   4.125   1.164 -1.1642 -3.1951  0.3298
 8413SOL    HW226021   3.216   4.095   1.230  0.9355  2.9424 -0.4207
 8414SOL     OW26022   1.263   2.023   3.722 -0.1734  0.2942 -0.7109
 8414SOL    HW126023   1.286   2.079   3.648  2.5420  0.7236  0.3680
 8414SOL    HW226024   1.193   1.966   3.688  0.2514  1.1735 -3.2566
 8415SOL     OW26025   4.911   5.893   8.152 -0.3647 -0.8402  0.3370
 8415SOL    HW126026   4.840   5.828   8.153  1.2179 -2.7033  2.0644
 8415SOL    HW226027   4.946   5.889   8.064 -2.5811  0.4421 -0.7000
 8416SOL     OW26028   1.461   2.303   0.862  0.3071 -0.0222  0.5621
 8416SOL    HW126029   1.554   2.278   0.860 -0.0734 -1.6092  1.1594
 8416SOL    HW226030   1.462   2.397   0.878  1.8343  0.4590 -1.8272
 8417SOL     OW26031   1.301   3.294   6.828 -0.5642  0.8501  0.5031
 8417SOL    HW126032   1.303   3.352   6.904  0.6330  0.5973  0.6768
 8417SOL    HW226033   1.393   3.282   6.804 -0.9251  2.0275 -1.8115
 8418SOL     OW26034   5.349   8.093   5.041 -0.3848  0.1234 -0.5063
 8418SOL    HW126035   5.443   8.103   5.030  0.0866 -3.3333 -0.8355
 8418SOL    HW226036   5.333   8.108   5.134  0.5529  0.4646 -0.4003
 8419SOL     OW26037   2.992   6.619   4.519  0.3575 -0.4471  0.0783
 8419SOL    HW126038   3.040   6.544   4.554 -1.4409 -2.3194 -1.2015
 8419SOL    HW226039   2.922   6.634   4.583  0.4861 -0.0908  0.1378
 8420SOL     OW26040   7.980   1.105   5.799  0.4517  0.3716  0.2777
 8420SOL    HW126041   7.938   1.053   5.868 -0.0380 -0.9941 -1.0024
 8420SOL    HW226042   8.061   1.057   5.779  0.5638  0.7343 -0.1464
 8421SOL     OW26043   1.462   1.387   1.664 -0.5184  0.5091  0.7236
 8421SOL    HW126044   1.543   1.417   1.624 -0.1090  0.4323  1.4843
 8421SOL    HW226045   1.412   1.467   1.680 -0.5925  0.5570  0.2619
 8422SOL     OW26046   6.700   8.125   3.574  0.5555 -0.0658  0.8314
 8422SOL    HW126047   6.691   8.034   3.601  1.5211 -0.0920  1.0879
 8422SOL    HW226048   6.655   8.175   3.642 -1.5172 -0.4235 -0.1936
 8423SOL     OW26049   7.658   3.905   7.105  0.0141  0.6750 -0.1295
 8423SOL    HW126050   7.572   3.936   7.077 -0.3462 -0.4788 -0.3560
 8423SOL    HW226051   7.703   3.984   7.137 -1.0443  1.3242 -0.1971
 8424SOL     OW26052   2.127   1.219   5.840  0.4215 -0.0595  0.0836
 8424SOL    HW126053   2.095   1.142   5.793  3.5696 -1.4609 -0.0596
 8424SOL    HW226054   2.187   1.183   5.906  3.3852  2.2004 -1.1086
 8425SOL     OW26055   2.781   4.720   6.282 -0.1750  0.1937  0.1384
 8425SOL    HW126056   2.690   4.727   6.252 -0.2892  0.1924  0.4749
 8425SOL    HW226057   2.777   4.658   6.355  0.3101 -0.8183 -0.6873
 8426SOL     OW26058   1.233   0.678   7.211  0.5497  0.1248 -0.0815
 8426SOL    HW126059   1.193   0.761   7.188  1.1482  0.3761 -0.2428
 8426SOL    HW226060   1.164   0.629   7.255  0.8906  1.7313  2.4511
 8427SOL     OW26061   2.120   5.316   1.698 -0.0730 -0.4310 -0.0756
 8427SOL    HW126062   2.074   5.399   1.686 -1.5799 -1.2495 -0.1997
 8427SOL    HW226063   2.180   5.311   1.623  1.0320  1.1247  0.6454
 8428SOL     OW26064   4.249   4.545   2.102 -0.2433 -0.1009  0.1039
 8428SOL    HW126065   4.275   4.633   2.130  1.4378 -0.0101 -1.5072
 8428SOL    HW226066   4.327   4.492   2.114 -0.7093 -0.9644 -0.5583
 8429SOL     OW26067   7.396   0.084   2.488 -0.4258 -0.3584 -0.1370
 8429SOL    HW126068   7.340   0.111   2.415 -2.2792 -0.0895  1.3129
 8429SOL    HW226069   7.352   0.007   2.524  0.6267 -0.6658  0.5325
 8430SOL     OW26070   3.982   6.803   4.241 -0.3065  0.5716 -0.4515
 8430SOL    HW126071   3.920   6.875   4.225  0.2656  1.2133  0.1510
 8430SOL    HW226072   3.930   6.736   4.284 -0.8780  0.5612 -1.1332
 8431SOL     OW26073   2.311   7.636   8.017 -0.4617 -0.3255  0.0113
 8431SOL    HW126074   2.324   7.664   7.926  0.8095  1.4634  0.6932
 8431SOL    HW226075   2.252   7.702   8.054  0.7877  0.2311  1.0589
 8432SOL     OW26076   5.012   6.635   7.835  0.2447 -0.4276 -0.4623
 8432SOL    HW126077   4.968   6.694   7.896  1.8050  1.5086 -1.0796
 8432SOL    HW226078   5.028   6.555   7.885 -0.6604  0.2018  0.8734
 8433SOL     OW26079   0.562   3.021   3.781  0.5115  0.0080 -0.2622
 8433SOL    HW126080   0.477   3.063   3.783  0.4937 -0.0198 -0.4015
 8433SOL    HW226081   0.543   2.928   3.783  0.6126 -0.0221  2.5169
 8434SOL     OW26082   5.682   1.789   2.145 -0.6228 -0.0609 -0.0519
 8434SOL    HW126083   5.593   1.803   2.177 -1.0535  2.0951 -1.9324
 8434SOL    HW226084   5.729   1.754   2.221 -2.8036 -0.3331  1.2813
 8435SOL     OW26085   5.519   1.123   8.192 -0.0072  0.3402 -0.4869
 8435SOL    HW126086   5.445   1.132   8.131 -0.2690  0.0313 -0.2180
 8435SOL    HW226087   5.527   1.209   8.232 -1.1638 -0.0050  0.5487
 8436SOL     OW26088   1.338   5.153   4.540  0.1204 -0.6224  0.3725
 8436SOL    HW126089   1.309   5.210   4.468 -1.4132 -0.4868  1.0570
 8436SOL    HW226090   1.422   5.119   4.511 -0.8354 -1.2542 -1.8914
 8437SOL     OW26091   5.078   4.789   2.080  0.5020  0.1880  0.3977
 8437SOL    HW126092   5.013   4.773   2.149  0.3797 -0.5179  0.1325
 8437SOL    HW226093   5.162   4.791   2.126  0.6304 -2.0992  0.4007
 8438SOL     OW26094   3.830   7.837   6.530  0.0965  0.2092  0.3500
 8438SOL    HW126095   3.763   7.858   6.465 -0.2271 -0.9773  0.2786
 8438SOL    HW226096   3.876   7.920   6.544 -1.1674  0.9705  0.1640
 8439SOL     OW26097   2.054   3.270   4.543  0.0203 -0.2322  0.1439
 8439SOL    HW126098   2.034   3.182   4.575  1.6966 -1.4423 -1.8655
 8439SOL    HW226099   2.146   3.284   4.566 -0.1245  0.8601  0.1102
 8440SOL     OW26100   0.360   6.173   3.199 -0.5416 -0.0563 -0.3167
 8440SOL    HW126101   0.320   6.191   3.285  0.4722  1.0548 -0.0529
 8440SOL    HW226102   0.447   6.141   3.220  0.5214  2.2554 -0.9178
 8441SOL     OW26103   8.161   5.061   0.086 -0.0388  0.4023 -0.6677
 8441SOL    HW126104   8.201   5.127   0.029 -0.9933  0.7580 -0.9410
 8441SOL    HW226105   8.070   5.089   0.095 -0.8253 -1.5898 -1.8743
 8442SOL     OW26106   3.844   4.510   6.972  0.2439 -0.7179  0.3367
 8442SOL    HW126107   3.757   4.539   6.947 -0.6080 -2.0779  1.5577
 8442SOL    HW226108   3.893   4.590   6.990 -0.9480  0.0333  0.2696
 8443SOL     OW26109   6.513   2.171   1.411 -0.0006 -0.2225 -0.6055
 8443SOL    HW126110   6.577   2.163   1.341  0.3641  1.0270 -0.4351
 8443SOL    HW226111   6.528   2.095   1.467 -1.0293 -1.8398 -2.4235
 8444SOL     OW26112   1.471   4.188   4.462  0.7283 -0.1827 -0.8903
 8444SOL    HW126113   1.415   4.197   4.385 -0.1419  1.5742 -0.1165
 8444SOL    HW226114   1.499   4.097   4.461  1.5183 -0.0110 -3.7886
 8445SOL     OW26115   1.839   7.591   5.790  0.6400  0.4556 -0.0401
 8445SOL    HW126116   1.930   7.579   5.815  0.2905  0.4343  1.3156
 8445SOL    HW226117   1.834   7.557   5.701  1.3760 -2.1893  0.8287
 8446SOL     OW26118   0.136   2.203   3.145 -0.3455 -0.1685  0.3989
 8446SOL    HW126119   0.210   2.171   3.093 -1.4485 -0.0587 -1.2942
 8446SOL    HW226120   0.163   2.290   3.172 -0.5594  0.6651 -1.8371
 8447SOL     OW26121   3.074   7.439   7.458 -0.4383  0.2051  0.8190
 8447SOL    HW126122   3.067   7.534   7.452  1.8374  0.3560 -0.5768
 8447SOL    HW226123   3.078   7.421   7.552  0.9271  1.6849  1.0792
 8448SOL     OW26124   8.184   4.921   7.952  0.6002 -0.1370  0.1866
 8448SOL    HW126125   8.122   4.941   8.022  0.5126 -0.4152  0.1872
 8448SOL    HW226126   8.130   4.890   7.880  0.4152  2.3785 -0.8845
 8449SOL     OW26127   5.323   3.323   4.829 -0.3356 -0.1585  0.1148
 8449SOL    HW126128   5.296   3.367   4.909  0.4266 -0.4587  0.5464
 8449SOL    HW226129   5.419   3.320   4.833 -0.3193 -0.9614 -0.3764
 8450SOL     OW26130   4.059   3.777   0.102  0.1069  0.3040 -0.0734
 8450SOL    HW126131   3.988   3.718   0.126  0.0673 -0.6138 -2.2477
 8450SOL    HW226132   4.021   3.833   0.034  1.2616  0.2875 -0.7462
 8451SOL     OW26133   1.209   7.729   3.851  0.1508 -0.0192 -0.7895
 8451SOL    HW126134   1.147   7.761   3.917  2.1365  0.4833  0.9409
 8451SOL    HW226135   1.262   7.664   3.898  0.2805 -1.2285 -2.5148
 8452SOL     OW26136   7.905   6.687   7.727  0.4611  0.1377 -0.1586
 8452SOL    HW126137   7.913   6.616   7.790 -2.6910 -0.9495 -0.8167
 8452SOL    HW226138   7.932   6.648   7.644 -0.9318 -0.2252 -0.4571
 8453SOL     OW26139   0.355   6.620   4.677 -0.1434  0.1934  0.1118
 8453SOL    HW126140   0.390   6.531   4.669 -1.8935 -0.6532  1.2996
 8453SOL    HW226141   0.273   6.609   4.724 -1.3275  2.2464 -1.3174
 8454SOL     OW26142   0.873   0.146   1.094  0.3101 -0.8088  0.7081
 8454SOL    HW126143   0.904   0.115   1.008  2.0755  0.1623  0.9481
 8454SOL    HW226144   0.880   0.241   1.089  0.2718 -0.7331  1.8703
 8455SOL     OW26145   5.080   0.066   3.042  0.5822 -0.1403  0.3124
 8455SOL    HW126146   5.069   0.030   3.130  0.3098 -1.2542 -0.1539
 8455SOL    HW226147   5.174   0.086   3.037  0.9279 -1.6024  0.3234
 8456SOL     OW26148   4.666   3.429   5.521 -0.1286  0.6100  0.2334
 8456SOL    HW126149   4.708   3.438   5.436  1.7447  0.4502  1.1015
 8456SOL    HW226150   4.604   3.357   5.509  0.7216  0.0117 -0.7819
 8457SOL     OW26151   0.431   3.175   4.293 -0.1810  0.1242  0.2408
 8457SOL    HW126152   0.516   3.216   4.277  0.2944 -0.6944  0.6077
 8457SOL    HW226153   0.383   3.188   4.211 -0.1707  1.6607  0.4399
 8458SOL     OW26154   8.277   3.328   0.096 -0.3881  0.1806  0.4296
 8458SOL    HW126155   8.294   3.269   0.023 -1.2845  0.2709  0.1462
 8458SOL    HW226156   8.353   3.317   0.154 -0.1504 -0.6181 -0.0317
 8459SOL     OW26157   0.857   3.844   6.090 -0.1075  0.1987 -0.1673
 8459SOL    HW126158   0.942   3.852   6.132 -0.4614  1.0478  0.4195
 8459SOL    HW226159   0.877   3.829   5.997  0.6731 -0.4411  0.0910
 8460SOL     OW26160   4.291   2.317   8.000  0.3160  0.5708  0.1256
 8460SOL    HW126161   4.333   2.286   8.080 -0.4769  2.0958  1.1816
 8460SOL    HW226162   4.202   2.280   8.003  0.3947  0.3438 -0.2424
 8461SOL     OW26163   5.014   0.798   1.079  0.5361 -0.1899  0.0776
 8461SOL    HW126164   5.076   0.726   1.082 -0.3491 -0.9347  2.2164
 8461SOL    HW226165   4.958   0.778   1.004  1.2035 -0.9152 -0.2401
 8462SOL     OW26166   7.731   8.048   0.771 -0.5998  0.1065 -0.2545
 8462SOL    HW126167   7.813   7.998   0.768 -0.7475 -0.1120 -1.6503
 8462SOL    HW226168   7.758   8.137   0.793 -0.1552 -0.2573  0.7149
 8463SOL     OW26169   2.167   6.231   4.002  0.3052  0.6213  0.0666
 8463SOL    HW126170   2.150   6.316   3.961  1.5309  0.8582  0.0187
 8463SOL    HW226171   2.096   6.175   3.971  0.4784  1.1511 -1.3235
 8464SOL     OW26172   7.976   2.137   3.359 -0.4081  0.4255  0.1713
 8464SOL    HW126173   8.003   2.224   3.329 -2.3877  0.8636 -0.4644
 8464SOL    HW226174   7.888   2.125   3.325 -0.6855 -1.3250  1.3280
 8465SOL     OW26175   6.361   3.273   4.871  0.2293 -0.1925 -0.3285
 8465SOL    HW126176   6.329   3.230   4.950  1.0575 -1.7052 -0.7777
 8465SOL    HW226177   6.299   3.250   4.803  1.4557 -1.9884 -0.8981
 8466SOL     OW26178   2.516   1.233   8.051  0.2642 -0.0027  0.3248
 8466SOL    HW126179   2.541   1.321   8.080 -2.3240  0.0322  2.9013
 8466SOL    HW226180   2.572   1.174   8.101 -0.3787  0.1815  1.3044
 8467SOL     OW26181   2.422   0.943   5.571  0.3923  0.1377 -0.5092
 8467SOL    HW126182   2.485   0.987   5.514  0.3913  1.0949  0.1994
 8467SOL    HW226183   2.348   1.004   5.576  1.6316  1.5961  2.9575
 8468SOL     OW26184   6.964   7.426   8.126  0.4394  0.1958  1.0990
 8468SOL    HW126185   6.958   7.508   8.175 -1.1865  1.0536 -0.4410
 8468SOL    HW226186   6.958   7.452   8.034 -1.6417 -1.7056  0.6126
 8469SOL     OW26187   7.061   3.588   2.715 -0.2064 -0.5010  0.6688
 8469SOL    HW126188   7.030   3.575   2.804  0.5986  1.4640  1.2822
 8469SOL    HW226189   7.065   3.683   2.704  0.5959 -0.6970 -1.1542
 8470SOL     OW26190   6.039   4.093   5.470  0.1970  0.2175  0.3480
 8470SOL    HW126191   5.949   4.085   5.440 -0.3837 -1.5405  2.3320
 8470SOL    HW226192   6.050   4.186   5.489 -1.9388  0.1788  2.0998
 8471SOL     OW26193   0.836   1.493   0.294 -0.4040  0.3566  0.2116
 8471SOL    HW126194   0.867   1.478   0.383 -0.0043  2.0100  0.3866
 8471SOL    HW226195   0.834   1.588   0.285 -0.2589  0.2237 -1.6162
 8472SOL     OW26196   3.460   8.007   0.192 -0.2034 -0.0342 -0.5694
 8472SOL    HW126197   3.483   8.020   0.100  0.5448 -0.5109 -0.4575
 8472SOL    HW226198   3.372   7.970   0.190 -0.7385  1.2050 -1.0369
 8473SOL     OW26199   4.654   2.705   4.070 -0.4428  0.4955 -0.6196
 8473SOL    HW126200   4.718   2.709   3.999 -1.7482 -0.6198 -1.9475
 8473SOL    HW226201   4.620   2.794   4.076 -0.8965  0.4527 -2.0286
 8474SOL     OW26202   7.567   3.549   1.386 -0.0712 -0.0636  0.0971
 8474SOL    HW126203   7.652   3.581   1.354 -0.4611  0.4939 -0.4180
 8474SOL    HW226204   7.506   3.619   1.363 -0.9563 -1.1637 -1.0241
 8475SOL     OW26205   4.557   2.596   3.287  0.8034 -0.5505 -0.5653
 8475SOL    HW126206   4.552   2.512   3.242  0.3885 -0.9608  0.2094
 8475SOL    HW226207   4.482   2.595   3.347  2.2568 -0.7745  1.3591
 8476SOL     OW26208   7.607   6.793   2.903  0.2769  0.5510 -0.0722
 8476SOL    HW126209   7.596   6.777   2.810  1.4786  0.5752 -0.2330
 8476SOL    HW226210   7.612   6.706   2.942  1.2461  0.5210 -0.2339
 8477SOL     OW26211   3.840   5.155   1.442 -0.0205  0.4505 -0.1501
 8477SOL    HW126212   3.863   5.087   1.378 -0.8230  0.6108 -0.6295
 8477SOL    HW226213   3.787   5.110   1.507 -1.6423  0.8241 -1.1428
 8478SOL     OW26214   5.106   1.422   5.842 -0.1312  0.3093 -0.1836
 8478SOL    HW126215   5.082   1.423   5.749 -2.6440  1.0814  0.3725
 8478SOL    HW226216   5.181   1.363   5.848 -0.0112  0.1204 -2.6675
 8479SOL     OW26217   7.560   2.723   0.964  0.5063 -0.5446 -0.5358
 8479SOL    HW126218   7.575   2.791   0.898 -1.1941 -0.7897 -1.2185
 8479SOL    HW226219   7.590   2.642   0.922 -0.6162 -0.7079 -1.0741
 8480SOL     OW26220   0.767   7.993   6.045 -0.0911  0.3419  0.0551
 8480SOL    HW126221   0.841   8.038   6.084 -0.7555 -1.1198  3.3107
 8480SOL    HW226222   0.702   7.987   6.115 -1.6520 -2.0459 -1.4204
 8481SOL     OW26223   2.372   3.190   6.853  0.1170 -0.0654  0.5441
 8481SOL    HW126224   2.325   3.270   6.826  0.1896 -0.5252 -1.0369
 8481SOL    HW226225   2.316   3.118   6.823  0.0961 -0.6440  1.8753
 8482SOL     OW26226   3.256   5.434   6.242  0.6125  0.7032  0.2067
 8482SOL    HW126227   3.288   5.522   6.221  0.0787  0.6553 -0.8911
 8482SOL    HW226228   3.250   5.390   6.157  1.2086 -0.5168  0.7731
 8483SOL     OW26229   6.052   5.185   6.088 -0.1289 -0.1633  0.5762
 8483SOL    HW126230   6.047   5.184   5.992  0.9904  0.5985  0.4927
 8483SOL    HW226231   6.020   5.271   6.113  1.0420  0.2231  0.7803
 8484SOL     OW26232   0.769   1.388   0.775 -0.4840 -0.3875  0.5063
 8484SOL    HW126233   0.793   1.301   0.805 -2.1879 -0.4080  1.9598
 8484SOL    HW226234   0.738   1.433   0.853 -1.2055  0.9749 -0.5106
 8485SOL     OW26235   4.072   8.065   5.632  0.3362 -0.0808  0.0404
 8485SOL    HW126236   3.987   8.067   5.589  1.4065 -3.2424 -2.6773
 8485SOL    HW226237   4.054   8.092   5.722 -2.7783  3.0398 -1.2930
 8486SOL     OW26238   8.004   7.825   2.978 -0.0308 -0.8407 -0.2732
 8486SOL    HW126239   7.920   7.784   2.955 -0.6268 -1.5724  2.7819
 8486SOL    HW226240   7.985   7.918   2.981 -1.7788 -1.1214  3.4238
 8487SOL     OW26241   1.246   6.671   1.564  0.4117  0.1179  0.5871
 8487SOL    HW126242   1.302   6.739   1.600 -0.6065  1.8745 -0.9804
 8487SOL    HW226243   1.160   6.688   1.602 -0.7865  2.2575 -2.6605
 8488SOL     OW26244   3.926   1.913   4.952 -0.5989  0.5748  0.2734
 8488SOL    HW126245   3.985   1.841   4.929 -0.3422  0.6672  0.6339
 8488SOL    HW226246   3.924   1.911   5.048  0.3960  1.8274  0.3447
 8489SOL     OW26247   7.822   2.889   2.564 -0.2518 -0.1767  0.0554
 8489SOL    HW126248   7.917   2.873   2.561 -0.4503 -1.4986  0.3941
 8489SOL    HW226249   7.783   2.806   2.539 -1.3336  0.8578 -1.9146
 8490SOL     OW26250   5.916   4.972   0.559 -0.1789  0.4647  0.0566
 8490SOL    HW126251   5.863   4.941   0.632 -1.0490  2.4832  0.3535
 8490SOL    HW226252   6.005   4.981   0.594 -0.2905  0.0234  0.4445
 8491SOL     OW26253   1.206   0.512   5.798 -0.1537 -0.4627  0.0687
 8491SOL    HW126254   1.124   0.481   5.759  0.0146 -1.6059  0.5769
 8491SOL    HW226255   1.183   0.596   5.838 -1.2346 -1.0170  0.6744
 8492SOL     OW26256   3.224   0.661   2.146  0.0961 -0.1702  0.3633
 8492SOL    HW126257   3.189   0.735   2.197 -1.8868  0.0665 -1.1962
 8492SOL    HW226258   3.146   0.615   2.115  1.1750 -0.4648 -2.1686
 8493SOL     OW26259   3.402   0.097   2.956  0.6449  0.3677 -0.4210
 8493SOL    HW126260   3.435   0.008   2.963  0.0683  0.2261  0.6732
 8493SOL    HW226261   3.349   0.110   3.035 -0.7670  1.0492 -1.4302
 8494SOL     OW26262   2.851   3.070   2.762  0.0868  0.6865 -0.3225
 8494SOL    HW126263   2.900   3.151   2.777 -0.4219  1.5363 -2.7432
 8494SOL    HW226264   2.760   3.094   2.780  0.0670  0.2617  0.1883
 8495SOL     OW26265   3.900   3.380   7.337  0.0907  0.1387  0.3559
 8495SOL    HW126266   3.820   3.404   7.384 -0.8314  0.7477 -1.4350
 8495SOL    HW226267   3.931   3.462   7.299 -0.0913 -0.5746 -1.3917
 8496SOL     OW26268   7.504   0.364   1.344 -0.0184 -0.0313 -0.3791
 8496SOL    HW126269   7.481   0.456   1.333 -0.1605  0.3277  2.2247
 8496SOL    HW226270   7.588   0.365   1.389  0.9555 -1.2535 -2.0388
 8497SOL     OW26271   6.484   7.770   2.436  0.1088  0.0290  0.1352
 8497SOL    HW126272   6.397   7.743   2.466 -0.5489  0.2086 -1.5202
 8497SOL    HW226273   6.485   7.865   2.443 -1.1686  0.3962 -3.0249
 8498SOL     OW26274   1.198   0.205   1.312  0.3752 -0.0641 -0.1069
 8498SOL    HW126275   1.160   0.272   1.369  0.8033  0.0057  0.0984
 8498SOL    HW226276   1.174   0.232   1.224 -0.8568 -0.5201  0.0658
 8499SOL     OW26277   5.581   0.677   5.401  0.1195 -0.0383 -0.8572
 8499SOL    HW126278   5.534   0.759   5.384 -0.0049  0.1204  0.1727
 8499SOL    HW226279   5.513   0.610   5.404  0.0009  0.1062  0.0727
 8500SOL     OW26280   1.706   3.138   8.202 -0.0582 -0.2153  0.3941
 8500SOL    HW126281   1.759   3.117   8.125  0.6186  0.2002  0.7287
 8500SOL    HW226282   1.674   3.054   8.234 -0.7412 -0.3434 -0.6151
 8501SOL     OW26283   4.811   7.127   5.731  0.0314  0.1394  0.0153
 8501SOL    HW126284   4.747   7.145   5.800 -0.5464  0.6864 -0.6491
 8501SOL    HW226285   4.813   7.207   5.679 -0.7270 -0.8251 -1.5551
 8502SOL     OW26286   0.189   0.397   1.252 -0.0785 -0.5826 -0.0143
 8502SOL    HW126287   0.180   0.311   1.211  0.4354 -1.4001  1.4756
 8502SOL    HW226288   0.170   0.460   1.183  2.0677 -1.8302 -1.8386
 8503SOL     OW26289   7.006   6.190   2.935  0.5477 -0.2716 -0.7405
 8503SOL    HW126290   7.088   6.237   2.953 -0.4399  1.1721  0.2027
 8503SOL    HW226291   6.955   6.250   2.881 -0.7663 -0.1830  0.5369
 8504SOL     OW26292   4.590   0.060   4.948 -0.1400  0.2736 -0.0969
 8504SOL    HW126293   4.539   0.094   5.021  0.0573  0.1307  0.1105
 8504SOL    HW226294   4.601   0.134   4.888  0.9290  0.7875  0.7019
 8505SOL     OW26295   7.032   7.165   0.001 -0.4639 -0.4101  0.1791
 8505SOL    HW126296   6.968   7.229  -0.029 -0.8973 -1.0678 -0.3146
 8505SOL    HW226297   6.983   7.107   0.060 -0.5696 -1.4657 -0.9053
 8506SOL     OW26298   0.308   6.322   4.079 -0.3811  0.0516 -0.1210
 8506SOL    HW126299   0.290   6.344   3.987 -1.4719 -1.1955 -0.2442
 8506SOL    HW226300   0.230   6.351   4.126  0.2217  0.7879  0.4502
 8507SOL     OW26301   4.731   0.368   6.206 -0.6465  0.6360  0.3538
 8507SOL    HW126302   4.686   0.443   6.244  0.6549  0.3681  2.5883
 8507SOL    HW226303   4.820   0.399   6.190 -0.6627  0.1639 -0.7997
 8508SOL     OW26304   0.625   0.007   8.297 -0.0515  0.1907 -0.0422
 8508SOL    HW126305   0.558  -0.040   8.246  0.2312 -0.9194  0.5830
 8508SOL    HW226306   0.684   0.042   8.231  0.0836 -0.8855 -0.5252
 8509SOL     OW26307   2.747   1.255   4.613 -0.6343  0.9029  0.0365
 8509SOL    HW126308   2.661   1.296   4.603 -1.1929 -0.4261 -0.9977
 8509SOL    HW226309   2.799   1.292   4.542 -1.4493 -0.8220 -1.5568
 8510SOL     OW26310   0.715   4.763   3.247  0.5201 -0.5550 -0.4360
 8510SOL    HW126311   0.787   4.734   3.192  0.8552 -0.7541  0.1039
 8510SOL    HW226312   0.660   4.685   3.258 -0.5426 -0.0800 -1.9852
 8511SOL     OW26313   1.964   4.884   5.666  0.1337  0.3589 -0.3265
 8511SOL    HW126314   2.039   4.828   5.686  0.6975  0.8313 -1.0460
 8511SOL    HW226315   1.970   4.899   5.571 -1.4912 -0.4687 -0.5890
 8512SOL     OW26316   1.511   5.159   2.356  0.2447  0.0626 -0.1553
 8512SOL    HW126317   1.503   5.211   2.276  2.5509  0.6434 -0.0919
 8512SOL    HW226318   1.458   5.205   2.420 -1.9760 -0.6286 -1.3686
 8513SOL     OW26319   1.427   1.495   3.586 -0.6509 -0.0276  0.6283
 8513SOL    HW126320   1.478   1.429   3.634  0.7574  1.6514  1.5478
 8513SOL    HW226321   1.433   1.467   3.495  0.4484 -0.8584  0.9189
 8514SOL     OW26322   1.458   5.211   1.159  0.3069  0.3827  0.1972
 8514SOL    HW126323   1.470   5.117   1.150  0.0860  0.3187  0.5746
 8514SOL    HW226324   1.540   5.243   1.195  0.2781  0.2950  0.3401
 8515SOL     OW26325   3.041   1.587   3.149  0.2020  0.6477  0.0862
 8515SOL    HW126326   3.135   1.604   3.159  0.6714 -0.4854 -1.9463
 8515SOL    HW226327   3.031   1.494   3.169 -0.0353  0.1600 -2.0928
 8516SOL     OW26328   1.612   2.841   6.140  0.0991 -0.4123  0.3269
 8516SOL    HW126329   1.645   2.840   6.230  1.0149  2.7659  0.1632
 8516SOL    HW226330   1.684   2.880   6.089 -1.7369  1.3532 -1.0821
 8517SOL     OW26331   1.717   3.258   5.429  0.2992  0.3452  0.0224
 8517SOL    HW126332   1.688   3.306   5.507  1.6680  0.4245  0.5035
 8517SOL    HW226333   1.674   3.173   5.437  0.6153  0.2622  1.0091
 8518SOL     OW26334   2.088   1.184   5.379 -0.0337  0.2829 -0.2007
 8518SOL    HW126335   2.060   1.216   5.294  0.9415  1.4391 -0.1093
 8518SOL    HW226336   2.010   1.187   5.433 -0.5008  0.1849 -0.8632
 8519SOL     OW26337   1.654   1.928   6.062  0.2856  0.5758  0.5807
 8519SOL    HW126338   1.672   1.941   5.969  1.1559 -0.2898  0.6144
 8519SOL    HW226339   1.620   2.013   6.092  1.7773  1.4638 -0.1166
 8520SOL     OW26340   4.739   3.277   5.977  0.1057 -0.0993 -0.0023
 8520SOL    HW126341   4.736   3.361   5.932  0.2992  0.6067  1.2807
 8520SOL    HW226342   4.756   3.214   5.907 -0.2069  0.8916 -1.0049
 8521SOL     OW26343   1.704   6.744   4.676  0.2767  0.5451 -0.1471
 8521SOL    HW126344   1.733   6.757   4.586 -1.1866  1.8506 -0.4734
 8521SOL    HW226345   1.616   6.706   4.668  0.6677 -0.6360  0.7707
 8522SOL     OW26346   7.826   6.446   3.635  0.1408  0.1464 -0.2960
 8522SOL    HW126347   7.908   6.437   3.684 -0.0653 -1.3379 -0.1840
 8522SOL    HW226348   7.853   6.447   3.543  0.3897  1.1511 -0.2182
 8523SOL     OW26349   7.733   6.094   5.115  0.1111  0.0488  0.1743
 8523SOL    HW126350   7.686   6.017   5.083 -0.9693  0.4858  0.6353
 8523SOL    HW226351   7.669   6.165   5.107  1.4290  1.1428 -1.2689
 8524SOL     OW26352   3.932   4.396   2.691 -0.0344  0.6070  0.5144
 8524SOL    HW126353   3.909   4.363   2.605  0.1234 -1.1729  1.1189
 8524SOL    HW226354   4.027   4.405   2.690 -0.0514  0.7707  0.4359
 8525SOL     OW26355   0.558   6.126   8.141  0.1969 -0.6498 -0.1149
 8525SOL    HW126356   0.521   6.203   8.185 -0.4406 -1.0241  0.0146
 8525SOL    HW226357   0.553   6.057   8.207 -0.1641 -1.0494 -0.5605
 8526SOL     OW26358   6.500   1.760   7.814 -0.3165 -0.0909 -0.7174
 8526SOL    HW126359   6.442   1.718   7.878 -2.0641  1.3081 -1.3247
 8526SOL    HW226360   6.507   1.850   7.844  1.7671 -0.2642 -0.5599
 8527SOL     OW26361   6.040   3.054   1.563  0.5250  0.0941  0.7447
 8527SOL    HW126362   6.047   2.961   1.542 -0.3784 -0.2360  1.7683
 8527SOL    HW226363   6.039   3.098   1.479 -0.0343 -0.9053  0.2130
 8528SOL     OW26364   6.978   1.669   2.466  0.0319 -0.1025 -0.7793
 8528SOL    HW126365   6.951   1.577   2.473 -1.9770  0.5943  2.2875
 8528SOL    HW226366   7.015   1.690   2.551  0.7110  1.9143 -1.5126
 8529SOL     OW26367   3.182   7.861   7.060  0.7196 -0.0983  0.2924
 8529SOL    HW126368   3.168   7.776   7.019 -0.6603 -0.1613  0.8641
 8529SOL    HW226369   3.146   7.924   6.999  0.9055  0.0059  0.2888
 8530SOL     OW26370   7.547   0.254   6.166  0.4131 -0.5357  0.3556
 8530SOL    HW126371   7.457   0.243   6.196  0.5353 -0.7929  0.6363
 8530SOL    HW226372   7.561   0.183   6.104  0.4589 -0.5634  0.3975
 8531SOL     OW26373   4.252   3.709   7.215  0.0637  0.0839  0.0288
 8531SOL    HW126374   4.191   3.708   7.141  0.1782  0.0557 -0.0661
 8531SOL    HW226375   4.336   3.686   7.177 -0.1897 -1.7013  0.4407
 8532SOL     OW26376   6.068   5.227   0.122 -0.1141 -0.0099  0.2716
 8532SOL    HW126377   6.013   5.233   0.200 -0.5495 -0.6041  0.0178
 8532SOL    HW226378   6.149   5.271   0.147 -0.5738  0.5734  0.7634
 8533SOL     OW26379   5.391   4.494   0.498  0.3383 -0.1355  0.1446
 8533SOL    HW126380   5.480   4.476   0.530  0.4373  1.3893  0.7956
 8533SOL    HW226381   5.381   4.435   0.423  1.9804 -0.2000 -0.0679
 8534SOL     OW26382   4.792   3.072   2.358 -0.2026  0.3937  0.6667
 8534SOL    HW126383   4.879   3.052   2.392  0.5415  0.7764 -0.9546
 8534SOL    HW226384   4.788   3.168   2.355 -0.5970  0.3767  0.5261
 8535SOL     OW26385   7.113   6.580   2.862 -0.4007  0.3298 -0.5959
 8535SOL    HW126386   7.209   6.571   2.862 -0.2955  1.3837 -0.5010
 8535SOL    HW226387   7.091   6.598   2.954 -0.5992  0.9501 -0.7614
 8536SOL     OW26388   1.702   4.415   1.178 -0.0516  0.5870 -0.3873
 8536SOL    HW126389   1.750   4.347   1.224  3.7127  1.7743 -2.1498
 8536SOL    HW226390   1.665   4.372   1.101  1.3898  0.2399 -0.9193
 8537SOL     OW26391   0.263   0.148   6.391  0.5710 -0.3497  0.1133
 8537SOL    HW126392   0.242   0.173   6.481 -1.6349 -0.4971 -0.3031
 8537SOL    HW226393   0.307   0.063   6.400 -0.5417 -0.8628  1.0268
 8538SOL     OW26394   3.079   4.413   1.277  0.4884 -0.5744 -0.1507
 8538SOL    HW126395   3.122   4.331   1.252  0.7046 -0.6489  0.4651
 8538SOL    HW226396   3.085   4.467   1.198 -0.7722 -1.5912 -0.9926
 8539SOL     OW26397   8.293   5.329   2.121  0.4773 -0.5243 -0.4902
 8539SOL    HW126398   8.372   5.305   2.072 -0.0248  0.0062 -1.5811
 8539SOL    HW226399   8.221   5.310   2.062 -0.3438 -2.2845  0.9944
 8540SOL     OW26400   1.534   6.874   0.096  0.3602 -0.4956 -0.2244
 8540SOL    HW126401   1.618   6.867   0.142  1.6526  0.0630 -2.3336
 8540SOL    HW226402   1.546   6.948   0.037 -2.0697  0.3226  0.1981
 8541SOL     OW26403   4.786   4.506   0.218  0.1648  0.2221 -0.0095
 8541SOL    HW126404   4.853   4.566   0.185  0.4088 -0.1304 -0.1603
 8541SOL    HW226405   4.706   4.531   0.170 -0.2998  1.8954  1.5276
 8542SOL     OW26406   4.579   7.693   6.067  0.4195 -1.0222 -0.2004
 8542SOL    HW126407   4.520   7.659   6.001  0.8623 -0.4135 -0.9255
 8542SOL    HW226408   4.566   7.636   6.143 -1.7798 -0.3331 -0.0047
 8543SOL     OW26409   5.893   1.208   7.481  0.0057  0.5356  0.6425
 8543SOL    HW126410   5.808   1.249   7.496  0.1261  0.3729  1.9057
 8543SOL    HW226411   5.881   1.117   7.508  0.4584  0.4032  0.4073
 8544SOL     OW26412   1.401   4.372   7.171  0.4979  0.0205  0.3284
 8544SOL    HW126413   1.330   4.435   7.183 -0.1714 -0.5543 -0.6148
 8544SOL    HW226414   1.395   4.314   7.247  0.0382  0.0446  0.3095
 8545SOL     OW26415   2.029   4.558   8.077  0.8561 -0.0902  0.6510
 8545SOL    HW126416   1.968   4.631   8.085  1.0352  0.1034  0.2501
 8545SOL    HW226417   2.098   4.590   8.018  0.0596 -1.1577 -0.9167
 8546SOL     OW26418   2.635   1.037   6.383 -0.0840 -0.0752  0.3422
 8546SOL    HW126419   2.682   1.055   6.302  0.3693 -1.5605  0.2424
 8546SOL    HW226420   2.704   1.031   6.449 -0.1595 -1.7113  0.2972
 8547SOL     OW26421   5.257   5.808   6.400 -0.3598 -0.0819  0.0860
 8547SOL    HW126422   5.220   5.725   6.372 -0.1052  0.1178 -0.8733
 8547SOL    HW226423   5.323   5.784   6.466 -0.3252 -0.6345 -0.1473
 8548SOL     OW26424   4.165   7.068   5.617  0.3567 -0.0647  0.0349
 8548SOL    HW126425   4.257   7.060   5.645  0.1790 -0.9780  0.4179
 8548SOL    HW226426   4.157   7.005   5.545  0.5787  1.6214 -1.5200
 8549SOL     OW26427   5.176   6.720   2.854  0.7366 -0.1839 -0.6441
 8549SOL    HW126428   5.214   6.761   2.933  1.6750  0.1546 -1.2532
 8549SOL    HW226429   5.212   6.771   2.782 -0.1725 -0.4540 -1.3024
 8550SOL     OW26430   8.297   5.819   1.167 -0.4145 -0.7764 -0.2712
 8550SOL    HW126431   8.371   5.763   1.193  0.1161 -1.3710 -2.7576
 8550SOL    HW226432   8.331   5.870   1.094 -1.4561  1.5744  0.7858
 8551SOL     OW26433   2.649   1.900   3.450 -0.2143  0.1737 -0.2753
 8551SOL    HW126434   2.621   1.899   3.358  0.9636 -1.5693 -0.6723
 8551SOL    HW226435   2.576   1.859   3.497 -1.5320  2.5266 -0.1399
 8552SOL     OW26436   0.771   5.278   1.820 -0.1454 -0.3171  0.0826
 8552SOL    HW126437   0.807   5.231   1.895 -1.7966  0.6597  1.5471
 8552SOL    HW226438   0.831   5.351   1.806 -0.4160  0.1399  1.2013
 8553SOL     OW26439   8.040   0.937   4.617 -0.3232  0.3108 -0.1332
 8553SOL    HW126440   7.981   0.969   4.686 -1.6770 -2.8012  0.3389
 8553SOL    HW226441   8.123   0.923   4.662  0.0374  2.0654 -0.1531
 8554SOL     OW26442   4.252   3.556   6.460 -0.1983  0.1518 -0.3320
 8554SOL    HW126443   4.191   3.489   6.428 -0.8612  1.4795 -2.0332
 8554SOL    HW226444   4.257   3.620   6.388  0.6483  1.7687  1.0956
 8555SOL     OW26445   0.433   5.154   8.219 -0.0913  0.4906 -0.2016
 8555SOL    HW126446   0.481   5.221   8.169  0.2261  0.4447  0.0372
 8555SOL    HW226447   0.416   5.195   8.304 -0.0175  0.3169 -0.1026
 8556SOL     OW26448   1.750   0.386   6.739 -0.0390  0.4006 -0.2902
 8556SOL    HW126449   1.795   0.377   6.655 -1.2975  1.8531 -1.1701
 8556SOL    HW226450   1.688   0.457   6.725  0.2251  1.1742  2.1171
 8557SOL     OW26451   4.805   1.935   8.186 -0.4608  0.0908 -0.1170
 8557SOL    HW126452   4.843   2.001   8.128 -0.1598 -0.8356 -1.0071
 8557SOL    HW226453   4.767   1.985   8.258  1.6460  1.1066  0.3585
 8558SOL     OW26454   0.189   5.723   5.785 -0.2183 -0.3116 -0.2634
 8558SOL    HW126455   0.266   5.700   5.838 -0.5761 -0.6508  0.1135
 8558SOL    HW226456   0.187   5.819   5.787 -0.2726 -0.3207  0.4105
 8559SOL     OW26457   6.837   7.711   1.696  0.0130 -0.3883  0.3368
 8559SOL    HW126458   6.761   7.734   1.644  0.7869 -2.3118 -1.8175
 8559SOL    HW226459   6.911   7.745   1.646  0.7032 -0.3628  1.3359
 8560SOL     OW26460   1.877   0.976   6.707  0.1578 -0.5322 -0.3386
 8560SOL    HW126461   1.827   1.023   6.640 -0.4276  2.3914  1.9105
 8560SOL    HW226462   1.810   0.938   6.764  0.6024 -1.3739 -0.3704
 8561SOL     OW26463   7.728   6.919   7.374 -0.2155  0.4174 -0.1623
 8561SOL    HW126464   7.710   7.005   7.412  1.3360  0.5673  0.3208
 8561SOL    HW226465   7.714   6.931   7.280 -2.8683  0.3821  0.1642
 8562SOL     OW26466   1.251   5.173   7.627  0.2341 -0.2204 -0.6191
 8562SOL    HW126467   1.167   5.167   7.672  0.1714 -1.9166 -0.8953
 8562SOL    HW226468   1.258   5.092   7.577  1.8979  0.0243 -0.8548
 8563SOL     OW26469   3.659   3.959   8.040  0.2755  0.1906  0.2663
 8563SOL    HW126470   3.733   3.916   8.085 -0.2225  0.6077  1.5098
 8563SOL    HW226471   3.583   3.937   8.093 -0.2046  1.4198  0.1142
 8564SOL     OW26472   2.602   2.139   6.274 -0.0461 -0.6635 -0.3000
 8564SOL    HW126473   2.617   2.154   6.367  0.1991  1.2187 -0.6063
 8564SOL    HW226474   2.685   2.163   6.232 -0.5708 -0.2158 -1.1083
 8565SOL     OW26475   1.127   2.788   3.460 -0.2268  0.6052 -0.1189
 8565SOL    HW126476   1.099   2.698   3.445 -0.2851  0.7305 -0.8069
 8565SOL    HW226477   1.205   2.781   3.515 -0.0341  0.1199 -0.4487
 8566SOL     OW26478   4.506   2.445   0.158 -0.6229  0.4228 -0.6280
 8566SOL    HW126479   4.590   2.487   0.140  0.1900 -0.5342  0.7492
 8566SOL    HW226480   4.529   2.363   0.201 -2.2723  0.4485  0.3933
 8567SOL     OW26481   2.233   0.216   2.259  0.5721  0.6812 -0.1246
 8567SOL    HW126482   2.311   0.194   2.209  0.3511 -0.8747  0.1610
 8567SOL    HW226483   2.256   0.197   2.350  0.0578  0.8005  0.0376
 8568SOL     OW26484   7.676   0.399   3.532 -0.1436  0.1228  0.1520
 8568SOL    HW126485   7.642   0.383   3.620 -0.5083  1.3766  0.2581
 8568SOL    HW226486   7.677   0.313   3.491  0.6778 -0.5929  1.6009
 8569SOL     OW26487   6.458   5.860   6.447  0.3458  0.2452 -0.1902
 8569SOL    HW126488   6.495   5.925   6.507  0.4606 -0.2420  0.2777
 8569SOL    HW226489   6.518   5.859   6.373 -0.2603  1.4780 -0.7327
 8570SOL     OW26490   5.555   1.794   1.237  0.2901 -0.1979  0.4026
 8570SOL    HW126491   5.586   1.883   1.251 -0.8912  0.0789  1.4994
 8570SOL    HW226492   5.522   1.793   1.147  1.7380  0.0082 -0.1476
 8571SOL     OW26493   7.753   3.404   1.949 -0.6616 -0.0763  0.1817
 8571SOL    HW126494   7.842   3.382   1.975 -0.2144 -0.0379 -1.2370
 8571SOL    HW226495   7.698   3.366   2.018  0.4409  0.0394  1.1623
 8572SOL     OW26496   3.096   5.694   2.862  0.5117 -0.3937 -0.4401
 8572SOL    HW126497   3.103   5.659   2.951  0.9337  2.9599  1.0190
 8572SOL    HW226498   3.059   5.782   2.874  0.5993  0.1968 -3.6050
 8573SOL     OW26499   0.470   4.655   6.751 -0.1159 -0.8062 -0.5425
 8573SOL    HW126500   0.408   4.723   6.723  2.2169  1.0436 -1.6567
 8573SOL    HW226501   0.491   4.678   6.841  1.0013  0.3257 -1.0531
 8574SOL     OW26502   0.451   6.600   8.277 -0.3029 -0.0915 -1.0301
 8574SOL    HW126503   0.528   6.595   8.220  0.3439 -2.9460 -0.1034
 8574SOL    HW226504   0.409   6.514   8.268 -0.6717 -0.3431  2.0342
 8575SOL     OW26505   0.198   3.659   4.050  0.3825  0.2662  0.1986
 8575SOL    HW126506   0.168   3.679   4.139 -1.1404  0.4907 -0.3376
 8575SOL    HW226507   0.174   3.567   4.037 -0.6192  0.6083 -0.4398
 8576SOL     OW26508   4.919   3.137   8.012  0.3059  0.0243 -0.0690
 8576SOL    HW126509   4.960   3.214   7.973 -1.3786  0.8300 -0.3598
 8576SOL    HW226510   4.947   3.139   8.103  1.2647  0.2648 -0.3503
 8577SOL     OW26511   0.324   1.384   7.916 -0.4025 -0.2009  0.2637
 8577SOL    HW126512   0.229   1.374   7.909 -0.3247 -2.6644  1.3683
 8577SOL    HW226513   0.358   1.354   7.831 -0.5999  0.5401 -0.0792
 8578SOL     OW26514   0.854   3.311   0.537 -0.2703 -0.2650  0.1921
 8578SOL    HW126515   0.852   3.333   0.630  1.2227 -0.6696  0.3392
 8578SOL    HW226516   0.865   3.395   0.493 -1.7807  0.0227  0.3040
 8579SOL     OW26517   7.878   4.285   4.686 -0.3052 -0.0238 -0.0864
 8579SOL    HW126518   7.851   4.361   4.634 -1.1545 -0.3552 -0.1498
 8579SOL    HW226519   7.974   4.286   4.681 -0.3196  0.7776 -0.4596
 8580SOL     OW26520   1.088   2.291   6.082  0.5778  0.4067 -0.9307
 8580SOL    HW126521   1.124   2.327   6.163  2.1774  0.2953 -1.5568
 8580SOL    HW226522   1.136   2.209   6.070 -0.3304 -0.0571 -1.5098
 8581SOL     OW26523   3.847   0.163   5.658  0.0573  0.1430  0.0428
 8581SOL    HW126524   3.866   0.171   5.752 -0.3328 -1.2540  0.2740
 8581SOL    HW226525   3.751   0.159   5.654  0.0483  0.7000 -0.4793
 8582SOL     OW26526   3.947   6.450   5.997 -0.3490  0.2474  0.2308
 8582SOL    HW126527   3.961   6.410   5.912  1.8771  1.6970 -0.1487
 8582SOL    HW226528   3.949   6.376   6.059  0.3352 -0.5681 -0.7424
 8583SOL     OW26529   1.871   6.520   2.571  0.0149  0.2668  0.0975
 8583SOL    HW126530   1.919   6.439   2.555  0.3819  0.5968 -0.4969
 8583SOL    HW226531   1.795   6.493   2.623 -0.1687 -0.5400 -0.5764
 8584SOL     OW26532   1.690   4.084   0.457 -0.1507  0.3214 -0.3730
 8584SOL    HW126533   1.647   4.043   0.533  0.0542 -0.5922 -0.7312
 8584SOL    HW226534   1.765   4.130   0.494 -0.3022  0.2540  0.0265
 8585SOL     OW26535   7.435   4.086   1.470  0.8768 -0.5728  0.2637
 8585SOL    HW126536   7.511   4.124   1.516 -0.5997  2.0489  0.7983
 8585SOL    HW226537   7.367   4.081   1.538  0.8044 -4.0386  0.1068
 8586SOL     OW26538   0.648   5.483   2.082 -0.0606 -0.5126  0.6341
 8586SOL    HW126539   0.722   5.535   2.111 -1.2758  0.4457  2.1706
 8586SOL    HW226540   0.615   5.442   2.162 -0.0475 -2.4975 -0.3093
 8587SOL     OW26541   2.639   5.720   8.180 -0.1490  0.2693  0.0788
 8587SOL    HW126542   2.725   5.688   8.152 -0.0100  1.1478 -0.5425
 8587SOL    HW226543   2.650   5.741   8.272  0.3278  0.4579 -0.0201
 8588SOL     OW26544   3.626   8.089   2.198 -0.0497  0.7155  0.1465
 8588SOL    HW126545   3.546   8.057   2.157 -0.7659  2.1859  0.3256
 8588SOL    HW226546   3.603   8.101   2.290  1.0043 -0.7875  0.6488
 8589SOL     OW26547   0.801   6.840   4.389 -0.1177  0.1902 -0.5030
 8589SOL    HW126548   0.762   6.904   4.449 -1.3130 -0.7644 -0.2166
 8589SOL    HW226549   0.866   6.794   4.442 -0.0692  0.3926 -0.3833
 8590SOL     OW26550   1.304   5.892   5.330  0.8604  0.1061 -0.1798
 8590SOL    HW126551   1.354   5.971   5.349 -0.0336  0.5162  0.5717
 8590SOL    HW226552   1.294   5.892   5.235 -0.4206  1.7504 -0.0956
 8591SOL     OW26553   3.694   1.053   0.729 -0.2159 -0.3189 -0.2135
 8591SOL    HW126554   3.701   1.132   0.675 -0.2243 -0.6141 -0.6536
 8591SOL    HW226555   3.632   0.997   0.681  0.0499 -0.7320 -0.0768
 8592SOL     OW26556   2.474   7.137   0.517  0.3893  0.4345  0.5461
 8592SOL    HW126557   2.443   7.061   0.469  2.6422 -1.1396  1.4461
 8592SOL    HW226558   2.525   7.101   0.590  1.4539  2.7962  1.0640
 8593SOL     OW26559   8.152   7.221   5.395 -0.2100  0.5046  0.0892
 8593SOL    HW126560   8.132   7.296   5.339  1.1989  0.5916 -0.3426
 8593SOL    HW226561   8.241   7.195   5.369  0.4474  0.4784  2.2086
 8594SOL     OW26562   0.690   3.147   1.328 -0.3952 -0.7298 -0.5276
 8594SOL    HW126563   0.646   3.179   1.407 -0.2730  0.4446 -0.9209
 8594SOL    HW226564   0.623   3.096   1.282 -0.6006 -1.0292  0.0888
 8595SOL     OW26565   5.528   1.758   3.430  0.5354 -0.1322  0.1296
 8595SOL    HW126566   5.537   1.746   3.335  2.2508  1.3578  0.0572
 8595SOL    HW226567   5.608   1.719   3.466 -2.0879 -5.1163  1.5514
 8596SOL     OW26568   0.216   5.781   2.825  0.6859 -0.1284  0.3262
 8596SOL    HW126569   0.206   5.686   2.824 -0.2269 -0.0349  0.0665
 8596SOL    HW226570   0.214   5.804   2.918 -0.1835 -0.2601  0.3484
 8597SOL     OW26571   7.143   4.761   4.613 -0.1578  0.3536 -0.4785
 8597SOL    HW126572   7.148   4.771   4.708 -0.9115  3.4529 -0.6436
 8597SOL    HW226573   7.213   4.818   4.580 -0.5972  0.1586 -1.7844
 8598SOL     OW26574   6.340   7.688   3.075  0.4163 -0.0953  0.0605
 8598SOL    HW126575   6.321   7.656   3.164  2.5695  1.6449  1.2736
 8598SOL    HW226576   6.369   7.610   3.028  1.3576 -0.7467  1.6007
 8599SOL     OW26577   6.853   8.231   6.434 -0.4126 -0.2289 -0.1065
 8599SOL    HW126578   6.867   8.149   6.386 -0.0643 -0.4494  0.3725
 8599SOL    HW226579   6.792   8.280   6.379  2.9580  1.2790 -2.9045
 8600SOL     OW26580   4.860   0.232   3.047  0.7421  0.1019 -0.1752
 8600SOL    HW126581   4.788   0.197   3.100 -0.1967  1.1200 -0.7407
 8600SOL    HW226582   4.928   0.164   3.052 -0.3079 -0.9640  0.2421
 8601SOL     OW26583   1.454   2.980   1.534 -0.4098 -0.4288  0.5459
 8601SOL    HW126584   1.388   2.913   1.520 -0.8361 -0.1143  0.9965
 8601SOL    HW226585   1.404   3.059   1.558  0.0677  0.1018 -0.1575
 8602SOL     OW26586   7.425   2.113   4.499  0.0048 -0.2118  0.0253
 8602SOL    HW126587   7.466   2.186   4.451  0.6731 -0.5762  0.0295
 8602SOL    HW226588   7.412   2.147   4.587 -2.0736  0.7855 -0.5975
 8603SOL     OW26589   2.825   6.112   6.667  0.2257  0.0552 -0.1787
 8603SOL    HW126590   2.909   6.069   6.683 -0.6504 -1.1241  1.5309
 8603SOL    HW226591   2.798   6.080   6.581  1.0850 -0.2428 -0.3536
 8604SOL     OW26592   0.152   5.804   3.074  0.2506 -0.8304  0.1331
 8604SOL    HW126593   0.112   5.743   3.136 -0.8840  0.7220  1.0092
 8604SOL    HW226594   0.101   5.884   3.084  2.5359  0.7157  0.0258
 8605SOL     OW26595   6.468   0.165   3.077  0.2545  0.3341 -1.3580
 8605SOL    HW126596   6.535   0.112   3.032 -0.3389  0.6498 -2.6701
 8605SOL    HW226597   6.406   0.101   3.111  1.9108 -0.0700  1.1613
 8606SOL     OW26598   0.292   4.484   2.626  0.0314 -0.5583 -0.2548
 8606SOL    HW126599   0.208   4.449   2.654 -0.6232  0.9674 -0.2471
 8606SOL    HW226600   0.336   4.510   2.707  0.3414 -0.9670 -0.2882
 8607SOL     OW26601   8.018   3.619   0.817  0.0417  0.1083 -0.0164
 8607SOL    HW126602   8.019   3.536   0.864  2.2478  0.6923  1.0661
 8607SOL    HW226603   7.952   3.672   0.862  0.3656 -0.2063  0.8375
 8608SOL     OW26604   1.750   7.883   3.117 -0.1252 -0.1246 -0.3058
 8608SOL    HW126605   1.713   7.925   3.040 -0.1094 -0.6817 -0.6230
 8608SOL    HW226606   1.678   7.879   3.180  0.4033  2.3614  0.5944
 8609SOL     OW26607   3.380   6.500   6.382 -0.5350  0.0882  0.1820
 8609SOL    HW126608   3.412   6.564   6.446 -0.0733  0.3008 -0.2570
 8609SOL    HW226609   3.459   6.461   6.346 -0.7838 -2.3921  2.0613
 8610SOL     OW26610   6.938   2.777   5.345 -0.2411  0.1956 -0.1920
 8610SOL    HW126611   6.866   2.714   5.344  0.5393 -0.8458 -3.0959
 8610SOL    HW226612   6.899   2.857   5.379 -1.8119 -1.2491  1.6695
 8611SOL     OW26613   7.017   3.916   2.744  0.5730  0.5052 -0.1063
 8611SOL    HW126614   7.032   3.942   2.653  0.0262  0.2142 -0.2869
 8611SOL    HW226615   6.988   3.996   2.788 -2.0382  0.0834 -0.8768
 8612SOL     OW26616   7.757   3.036   2.931 -0.1637 -0.3409  0.2361
 8612SOL    HW126617   7.819   3.016   2.861 -0.9194 -0.4160 -0.4162
 8612SOL    HW226618   7.683   2.977   2.915 -1.1882  0.9838 -0.0408
 8613SOL     OW26619   6.044   7.849   3.616  0.3872 -0.1467 -0.0927
 8613SOL    HW126620   6.112   7.880   3.676 -1.2767 -2.1218  3.0854
 8613SOL    HW226621   5.974   7.914   3.624 -0.0870 -0.7308  0.6803
 8614SOL     OW26622   3.456   4.861   2.850 -0.4982 -0.2685  0.2364
 8614SOL    HW126623   3.538   4.907   2.866 -0.6874  0.4730 -0.8172
 8614SOL    HW226624   3.416   4.908   2.776 -0.4726 -2.4162 -1.2337
 8615SOL     OW26625   8.228   3.483   5.367  0.1380  0.3580  0.7482
 8615SOL    HW126626   8.226   3.545   5.440 -0.1682 -2.0302  2.9005
 8615SOL    HW226627   8.151   3.428   5.381  0.4591 -0.6045 -1.0180
 8616SOL     OW26628   3.461   7.182   0.579 -0.8769  0.5622 -0.1662
 8616SOL    HW126629   3.377   7.167   0.623 -1.6632  0.1206 -1.7589
 8616SOL    HW226630   3.520   7.119   0.619 -2.1173 -1.3153 -1.1776
 8617SOL     OW26631   5.127   5.728   3.646 -0.1729  0.0145  0.0429
 8617SOL    HW126632   5.202   5.714   3.588  0.0030  2.9107 -0.5901
 8617SOL    HW226633   5.052   5.698   3.595  0.2117  0.3319 -0.7211
 8618SOL     OW26634   5.521   6.716   7.654  0.2620 -0.0062 -0.2145
 8618SOL    HW126635   5.541   6.806   7.628  2.3250 -0.7067 -1.2657
 8618SOL    HW226636   5.426   6.716   7.671  0.4014  2.6266  1.0615
 8619SOL     OW26637   7.545   2.961   3.318 -0.1649  0.4528 -0.2146
 8619SOL    HW126638   7.633   2.998   3.323 -0.7212  1.7095  0.7853
 8619SOL    HW226639   7.550   2.879   3.367 -0.1056  1.7207  2.0394
 8620SOL     OW26640   3.015   4.432   2.037  0.3181 -0.2162  0.4393
 8620SOL    HW126641   3.081   4.394   1.978 -1.1666 -0.8043 -0.9329
 8620SOL    HW226642   3.065   4.472   2.107  2.1304 -0.6113 -0.5727
 8621SOL     OW26643   5.647   2.229   2.747 -0.1476 -0.3588 -0.5701
 8621SOL    HW126644   5.677   2.300   2.803  0.7833 -0.6984 -0.6247
 8621SOL    HW226645   5.646   2.152   2.803 -3.4563  0.0554  0.1669
 8622SOL     OW26646   7.109   5.484   2.057 -0.1986  0.4489 -0.0438
 8622SOL    HW126647   7.165   5.445   2.124 -0.1148 -0.9743 -0.9030
 8622SOL    HW226648   7.164   5.550   2.016  0.8371 -0.8328 -0.7846
 8623SOL     OW26649   0.190   7.187   7.266 -0.3931  0.1547  0.2137
 8623SOL    HW126650   0.157   7.201   7.355 -1.1982  1.3942 -0.2500
 8623SOL    HW226651   0.112   7.171   7.214 -0.0302  0.5440 -0.4615
 8624SOL     OW26652   8.236   0.354   4.881  0.1216  0.5033  0.2324
 8624SOL    HW126653   8.152   0.383   4.919  0.0157  2.6830 -1.4497
 8624SOL    HW226654   8.300   0.371   4.951 -0.5994  0.4643  0.9223
 8625SOL     OW26655   7.709   3.978   8.049  0.3680  0.3313 -0.2887
 8625SOL    HW126656   7.686   4.057   8.100 -0.2152  0.5029 -0.8074
 8625SOL    HW226657   7.745   3.918   8.114 -0.8368  0.3565  0.4326
 8626SOL     OW26658   1.245   2.107   1.706 -0.3142  0.1398 -1.0000
 8626SOL    HW126659   1.181   2.037   1.695 -0.1216  0.0561 -1.6797
 8626SOL    HW226660   1.296   2.081   1.783 -1.4354  0.4912 -0.1143
 8627SOL     OW26661   2.099   3.286   6.615  0.3668 -0.3967  0.0200
 8627SOL    HW126662   2.112   3.194   6.636  3.6778 -0.3301 -1.0578
 8627SOL    HW226663   2.152   3.333   6.680  0.5051  0.5668 -0.7480
 8628SOL     OW26664   5.182   4.985   3.547 -0.3896  1.1836 -0.4363
 8628SOL    HW126665   5.207   4.987   3.640 -1.0271  1.4189 -0.2647
 8628SOL    HW226666   5.107   4.926   3.544  2.1341 -2.2813 -1.4561
 8629SOL     OW26667   4.586   3.924   4.461 -0.3133  0.0155  0.4290
 8629SOL    HW126668   4.674   3.887   4.456 -0.0900  0.5196  0.5760
 8629SOL    HW226669   4.600   4.018   4.470 -0.8035 -0.0450  2.4298
 8630SOL     OW26670   8.175   3.162   3.473  0.1658 -0.2376 -0.3736
 8630SOL    HW126671   8.200   3.188   3.384  1.7211 -0.6710 -0.0934
 8630SOL    HW226672   8.203   3.071   3.479 -0.9963 -0.5656  0.1858
 8631SOL     OW26673   1.849   2.603   0.177 -0.6147  0.3202  0.0805
 8631SOL    HW126674   1.855   2.659   0.254 -0.1329 -1.6905  1.5771
 8631SOL    HW226675   1.789   2.533   0.203  1.3087 -1.6518 -0.5175
 8632SOL     OW26676   1.362   7.862   5.764 -0.4169 -0.4930  0.0191
 8632SOL    HW126677   1.282   7.906   5.735  0.9930  1.3516 -1.3153
 8632SOL    HW226678   1.417   7.859   5.686  0.7202 -2.0562  0.8268
 8633SOL     OW26679   4.250   6.954   3.628  1.0145  0.1354  0.3734
 8633SOL    HW126680   4.236   6.872   3.580 -1.0477 -0.5325  1.9455
 8633SOL    HW226681   4.234   6.930   3.719 -1.3160  2.5879  0.7205
 8634SOL     OW26682   6.130   8.272   4.333  0.0242  0.2175 -0.8109
 8634SOL    HW126683   6.201   8.208   4.336  0.8643  1.1718  0.4336
 8634SOL    HW226684   6.094   8.273   4.422 -0.5517  0.8435 -1.0396
 8635SOL     OW26685   5.111   0.471   2.711  0.7765  0.1616 -0.5750
 8635SOL    HW126686   5.194   0.444   2.751  0.0668  0.2546  1.0221
 8635SOL    HW226687   5.095   0.558   2.746 -0.1615  0.0085 -0.6162
 8636SOL     OW26688   3.683   7.419   5.682 -0.5784 -0.3163  0.1611
 8636SOL    HW126689   3.673   7.341   5.738 -2.3538  0.6121  1.2200
 8636SOL    HW226690   3.696   7.491   5.744  0.8303  0.3083 -0.7994
 8637SOL     OW26691   5.030   7.735   0.847 -0.0880 -0.8739 -0.1261
 8637SOL    HW126692   5.103   7.673   0.842  1.2084  0.6240 -0.2343
 8637SOL    HW226693   5.045   7.784   0.928 -0.4593  0.0770 -0.6144
 8638SOL     OW26694   7.593   1.498   4.116  0.2381  0.4157  0.6538
 8638SOL    HW126695   7.572   1.417   4.070 -0.4177  0.6277  0.5656
 8638SOL    HW226696   7.683   1.519   4.089  1.2306 -1.3890  2.3322
 8639SOL     OW26697   2.331   6.265   2.183 -0.3132 -0.0519  0.3013
 8639SOL    HW126698   2.283   6.191   2.221 -0.7577  0.3749  0.5785
 8639SOL    HW226699   2.267   6.335   2.177 -0.2292 -0.0656 -1.1718
 8640SOL     OW26700   0.767   5.079   7.547 -0.0669  0.5013  0.7121
 8640SOL    HW126701   0.730   4.991   7.545  0.6634  0.1865  0.4527
 8640SOL    HW226702   0.731   5.119   7.626 -2.6728  0.9966 -0.6062
 8641SOL     OW26703   4.170   7.281   0.066 -0.1072  0.2884 -0.5732
 8641SOL    HW126704   4.079   7.279   0.098  0.5269 -1.6981  1.3599
 8641SOL    HW226705   4.191   7.374   0.059 -1.6689  0.7939  0.8699
 8642SOL     OW26706   4.533   5.062   2.293 -0.2284  0.2299  0.5731
 8642SOL    HW126707   4.523   5.112   2.212 -0.5041  0.4249  0.7237
 8642SOL    HW226708   4.612   5.096   2.333 -1.9990  2.7777  2.2113
 8643SOL     OW26709   5.668   0.594   7.726 -0.1274  0.0528 -0.2989
 8643SOL    HW126710   5.714   0.597   7.810 -1.3524 -2.4691  0.5558
 8643SOL    HW226711   5.624   0.678   7.719 -0.3379  0.1651  1.8147
 8644SOL     OW26712   3.826   7.468   2.254  0.0792  0.4177 -0.5580
 8644SOL    HW126713   3.788   7.399   2.308  1.6776  0.1260  0.2436
 8644SOL    HW226714   3.823   7.546   2.309 -0.6578  0.7323 -1.0313
 8645SOL     OW26715   5.197   8.107   5.721  0.3805  0.5662  0.3950
 8645SOL    HW126716   5.273   8.080   5.668  0.5876  1.4722  0.2030
 8645SOL    HW226717   5.234   8.165   5.787 -0.0333  0.3017  0.8634
 8646SOL     OW26718   6.336   7.073   2.484 -0.1872  0.3018 -0.0214
 8646SOL    HW126719   6.363   6.981   2.490  2.7678  1.1533  1.7224
 8646SOL    HW226720   6.281   7.087   2.561  1.3138  0.5058  1.0533
 8647SOL     OW26721   7.937   5.771   4.910  0.2227  0.3243  0.3163
 8647SOL    HW126722   8.014   5.727   4.876  0.6623  0.4342  1.1473
 8647SOL    HW226723   7.866   5.743   4.852  0.9355  0.4956 -0.6660
 8648SOL     OW26724   1.748   3.382   0.015 -0.2660  0.5104  0.2774
 8648SOL    HW126725   1.717   3.293  -0.002  0.4400  0.3477 -0.1903
 8648SOL    HW226726   1.792   3.377   0.100 -0.2144  0.4146  0.2446
 8649SOL     OW26727   6.652   1.742   4.452 -0.5638  0.4252 -0.0421
 8649SOL    HW126728   6.680   1.651   4.459 -2.4325 -0.1803  0.2020
 8649SOL    HW226729   6.638   1.770   4.543  1.6324  1.5627  0.0155
 8650SOL     OW26730   1.235   1.469   2.616  0.0311 -0.2415 -0.1014
 8650SOL    HW126731   1.323   1.434   2.607 -0.2706 -0.5350 -2.8579
 8650SOL    HW226732   1.240   1.556   2.576 -0.6267  0.3293  1.0187
 8651SOL     OW26733   4.682   0.612   1.131 -0.4817 -0.4714 -0.5820
 8651SOL    HW126734   4.595   0.586   1.162  0.6320 -2.2497  1.2771
 8651SOL    HW226735   4.675   0.707   1.116 -2.3808 -0.3478  0.7728
 8652SOL     OW26736   2.125   4.147   3.500 -0.0019 -0.2108  0.5990
 8652SOL    HW126737   2.030   4.151   3.499 -0.0247 -0.6578 -0.4268
 8652SOL    HW226738   2.149   4.167   3.590 -1.0779 -0.4063  0.9440
 8653SOL     OW26739   3.426   1.520   2.176  0.0207 -0.1874  0.0121
 8653SOL    HW126740   3.356   1.582   2.153  1.4941  0.6239 -2.6515
 8653SOL    HW226741   3.429   1.523   2.272 -0.5282  3.2812  0.0614
 8654SOL     OW26742   5.039   7.229   5.929 -0.0270  0.1997 -0.1273
 8654SOL    HW126743   4.981   7.208   5.856 -1.2994  0.4276  0.7887
 8654SOL    HW226744   5.124   7.195   5.903 -0.0379  1.7682 -2.4427
 8655SOL     OW26745   1.759   7.844   6.696  0.5009 -0.7381  0.0068
 8655SOL    HW126746   1.780   7.757   6.731  0.6151 -1.3832 -1.5712
 8655SOL    HW226747   1.732   7.827   6.605  0.1948  0.8495 -0.2228
 8656SOL     OW26748   0.876   3.880   1.806 -0.6210 -0.0128 -0.3068
 8656SOL    HW126749   0.878   3.789   1.777  0.7509  0.3236 -1.4005
 8656SOL    HW226750   0.799   3.886   1.862  0.1945 -2.2509  1.1960
 8657SOL     OW26751   4.076   5.701   6.453  0.2164  0.2465 -0.3762
 8657SOL    HW126752   4.145   5.768   6.456  0.0345  0.4158 -0.0020
 8657SOL    HW226753   3.995   5.751   6.452  0.0987  0.0665 -1.4375
 8658SOL     OW26754   0.089   7.241   2.999 -0.1397 -0.4603 -0.3666
 8658SOL    HW126755   0.154   7.193   2.947 -0.4910  0.2624 -1.5061
 8658SOL    HW226756   0.062   7.179   3.066 -0.7496 -1.9734 -1.9307
 8659SOL     OW26757   7.972   0.519   3.061 -0.1722 -0.0046 -0.7641
 8659SOL    HW126758   7.890   0.532   3.108  0.6261  0.4520  0.5713
 8659SOL    HW226759   7.951   0.457   2.992 -1.8355  0.8024 -1.0330
 8660SOL     OW26760   1.854   4.050   6.388 -0.6398  0.0424 -0.3463
 8660SOL    HW126761   1.801   4.120   6.426 -0.6413  0.2767 -0.7767
 8660SOL    HW226762   1.864   3.987   6.459  1.8874  1.8266  1.0326
 8661SOL     OW26763   4.112   4.170   7.627  0.4561 -0.3281 -0.1945
 8661SOL    HW126764   4.124   4.221   7.707 -1.2535 -0.4173  0.1613
 8661SOL    HW226765   4.126   4.079   7.655  0.0055 -0.3466 -0.0191
 8662SOL     OW26766   1.194   3.584   4.532  0.9021  0.2208 -0.3588
 8662SOL    HW126767   1.231   3.537   4.458  0.2191 -1.3366  0.2361
 8662SOL    HW226768   1.268   3.596   4.592  0.8046 -1.5825  0.1897
 8663SOL     OW26769   2.253   4.855   7.195 -0.3843 -0.3480  0.1799
 8663SOL    HW126770   2.158   4.862   7.204 -0.3283  1.7838 -0.3263
 8663SOL    HW226771   2.275   4.919   7.127  1.3593 -1.2013 -0.1069
 8664SOL     OW26772   5.463   7.787   7.149 -0.4966  0.3389  0.1071
 8664SOL    HW126773   5.457   7.691   7.150  0.3389  0.2442  2.4854
 8664SOL    HW226774   5.405   7.816   7.219  0.9408  1.3821  0.9414
 8665SOL     OW26775   5.322   4.938   5.351  0.4106  0.8642 -0.1601
 8665SOL    HW126776   5.412   4.916   5.376  1.0552  0.1219 -2.8024
 8665SOL    HW226777   5.268   4.881   5.405  1.6495 -0.2296 -0.0154
 8666SOL     OW26778   6.982   1.628   6.163 -0.3279  0.3388  0.2174
 8666SOL    HW126779   7.006   1.705   6.214 -0.6262  1.0182 -0.6477
 8666SOL    HW226780   7.057   1.614   6.105  0.6983 -1.3649  1.8598
 8667SOL     OW26781   4.421   2.360   1.079 -0.0942 -0.3281 -0.5627
 8667SOL    HW126782   4.469   2.399   1.006 -0.7070 -0.9200 -1.2962
 8667SOL    HW226783   4.463   2.397   1.157  2.0388 -1.3749 -1.1425
 8668SOL     OW26784   7.432   5.247   6.747 -0.5051 -0.7306 -0.0223
 8668SOL    HW126785   7.455   5.169   6.697  0.8573 -1.2744  1.3592
 8668SOL    HW226786   7.349   5.276   6.709  0.3549 -1.1861 -2.4195
 8669SOL     OW26787   4.661   1.362   3.113  0.0944  0.0912  0.5718
 8669SOL    HW126788   4.751   1.366   3.146 -0.6157 -0.0488  2.7231
 8669SOL    HW226789   4.655   1.433   3.050  1.3596  0.9721  1.3993
 8670SOL     OW26790   7.431   0.639   3.804 -0.0863 -0.2425 -0.0033
 8670SOL    HW126791   7.525   0.652   3.789  0.2278  0.0909  1.9361
 8670SOL    HW226792   7.389   0.679   3.728  1.3545 -1.8520 -1.7240
 8671SOL     OW26793   5.295   7.876   8.089 -0.4667  0.0223 -0.4696
 8671SOL    HW126794   5.369   7.827   8.052 -0.4481  0.0695 -0.4949
 8671SOL    HW226795   5.229   7.875   8.020 -0.4663  0.0324 -0.4703
 8672SOL     OW26796   6.814   3.533   6.780 -0.2440 -0.7246 -0.4579
 8672SOL    HW126797   6.757   3.605   6.754 -0.3721 -0.9406 -0.7809
 8672SOL    HW226798   6.796   3.463   6.716 -1.5474 -1.7624  0.9727
 8673SOL     OW26799   1.358   3.829   7.041  0.1217  0.4926  0.7790
 8673SOL    HW126800   1.415   3.906   7.036  0.7178  0.0528  0.7627
 8673SOL    HW226801   1.353   3.808   7.134 -0.5988  0.9548  0.8557
 8674SOL     OW26802   3.120   0.988   8.283  0.1967  0.0707  0.5797
 8674SOL    HW126803   3.091   0.911   8.234 -0.1691 -0.5866  1.8009
 8674SOL    HW226804   3.040   1.021   8.324  0.4413  0.8212  0.4573
 8675SOL     OW26805   3.316   1.959   0.469  0.3650  0.0437 -0.2157
 8675SOL    HW126806   3.244   2.020   0.454  0.3701  0.4479  1.3064
 8675SOL    HW226807   3.282   1.874   0.441 -0.6244  0.2641  0.2999
 8676SOL     OW26808   5.310   8.146   6.443  1.1047  0.7589 -0.3230
 8676SOL    HW126809   5.346   8.115   6.525 -1.2040 -0.1338  0.4226
 8676SOL    HW226810   5.299   8.241   6.456  0.3264  0.5554  0.5902
 8677SOL     OW26811   2.607   6.545   1.466  0.0962 -0.2142 -0.0361
 8677SOL    HW126812   2.634   6.529   1.375  2.4780 -0.4057  0.6408
 8677SOL    HW226813   2.512   6.540   1.463  0.0849 -0.1139 -2.5384
 8678SOL     OW26814   3.631   2.841   4.497 -0.6754 -0.6065  0.2878
 8678SOL    HW126815   3.690   2.899   4.545 -0.3204 -0.6635 -0.0720
 8678SOL    HW226816   3.671   2.755   4.506  0.5487 -0.3165 -1.8509
 8679SOL     OW26817   3.777   4.702   8.014 -0.1311 -0.0573 -0.0784
 8679SOL    HW126818   3.826   4.655   7.947 -0.9327 -2.7483  1.0940
 8679SOL    HW226819   3.830   4.779   8.033  1.3375 -0.5127 -2.0105
 8680SOL     OW26820   2.836   7.963   3.708  0.1771  0.2812 -0.0981
 8680SOL    HW126821   2.814   7.919   3.626 -0.9494  0.0219  0.3094
 8680SOL    HW226822   2.902   8.028   3.685 -0.8628  0.9161 -1.4067
 8681SOL     OW26823   5.661   7.503   0.141 -0.2083  0.1187 -0.3862
 8681SOL    HW126824   5.681   7.596   0.134  0.2552  0.0107 -0.4979
 8681SOL    HW226825   5.740   7.459   0.111 -0.3543 -0.3141 -0.1366
 8682SOL     OW26826   8.212   2.331   4.012  1.0832 -0.7820  0.3054
 8682SOL    HW126827   8.254   2.247   3.997  0.4642 -0.9294 -0.6522
 8682SOL    HW226828   8.213   2.341   4.107 -0.3638 -2.6787  0.5909
 8683SOL     OW26829   0.206   3.891   0.446  0.0868  0.0474 -0.4310
 8683SOL    HW126830   0.235   3.959   0.385  0.4270 -1.9128 -2.5742
 8683SOL    HW226831   0.211   3.810   0.395 -0.6873 -1.5428  1.9045
 8684SOL     OW26832   6.907   4.133   8.033 -0.2189  0.2841  0.0162
 8684SOL    HW126833   6.966   4.134   7.958  1.9025 -0.1371  1.5757
 8684SOL    HW226834   6.867   4.220   8.034 -0.5171  0.1921 -1.7335
 8685SOL     OW26835   2.174   5.654   0.901  0.0142 -0.1783  0.5573
 8685SOL    HW126836   2.150   5.562   0.913 -1.6644  0.2384  0.6526
 8685SOL    HW226837   2.233   5.673   0.974  1.6149 -1.5408 -0.2953
 8686SOL     OW26838   8.168   7.171   5.751  0.0696 -0.3542 -0.3552
 8686SOL    HW126839   8.082   7.140   5.722  0.1233  0.3597 -1.2922
 8686SOL    HW226840   8.231   7.119   5.702  0.1616  0.1978 -0.8343
 8687SOL     OW26841   5.151   1.843   2.069 -0.4705 -0.0376  0.6414
 8687SOL    HW126842   5.095   1.863   2.143  0.2905  2.6532  0.5915
 8687SOL    HW226843   5.101   1.870   1.992 -0.8849 -1.9540  0.1795
 8688SOL     OW26844   1.116   2.609   0.679  0.0943 -0.2855  0.3646
 8688SOL    HW126845   1.155   2.523   0.693  1.4071  0.2312  0.0416
 8688SOL    HW226846   1.023   2.592   0.672  0.3893 -1.7748 -0.4152
 8689SOL     OW26847   1.328   0.491   5.123 -0.0622  0.0920  0.3158
 8689SOL    HW126848   1.280   0.487   5.040  0.7380 -1.4282 -0.1224
 8689SOL    HW226849   1.287   0.424   5.177  1.9193 -1.7513 -0.3215
 8690SOL     OW26850   2.834   5.407   3.454  0.8163  0.4391 -0.1120
 8690SOL    HW126851   2.793   5.455   3.526  0.0134 -0.8940  0.3573
 8690SOL    HW226852   2.790   5.439   3.375  1.8219  2.0387 -0.0771
 8691SOL     OW26853   7.603   1.145   4.301 -0.1382  0.3943  0.0095
 8691SOL    HW126854   7.563   1.087   4.366  0.5169  2.1849  2.1373
 8691SOL    HW226855   7.530   1.192   4.262 -0.4565  0.1789  0.3433
 8692SOL     OW26856   3.013   2.277   7.221  0.3032  0.2966  0.6966
 8692SOL    HW126857   2.984   2.218   7.290 -1.2950  0.3501  0.1187
 8692SOL    HW226858   2.986   2.235   7.140 -1.1895  1.9238  0.2863
 8693SOL     OW26859   6.589   1.507   4.212  0.0205  0.4566 -0.1370
 8693SOL    HW126860   6.552   1.595   4.199 -0.7302  0.1520 -0.1093
 8693SOL    HW226861   6.649   1.517   4.286 -1.4158  0.5917  1.0768
 8694SOL     OW26862   1.104   0.589   7.761  0.4203 -0.2577 -0.1433
 8694SOL    HW126863   1.051   0.536   7.702  2.6531 -1.8519 -0.8189
 8694SOL    HW226864   1.093   0.679   7.729  0.0358 -0.8469 -1.7614
 8695SOL     OW26865   1.350   0.305   4.103  0.2221  0.0976  0.6485
 8695SOL    HW126866   1.296   0.234   4.067 -0.1064  0.0623  1.2009
 8695SOL    HW226867   1.301   0.385   4.084  0.1212  0.0911  0.8694
 8696SOL     OW26868   0.745   3.726   4.366  0.1356  0.5648  0.4984
 8696SOL    HW126869   0.685   3.800   4.370 -1.7651 -0.6815 -2.0374
 8696SOL    HW226870   0.690   3.651   4.342  2.3453 -1.1654  0.4328
 8697SOL     OW26871   1.046   4.096   7.784 -0.6564  0.4970 -0.1404
 8697SOL    HW126872   0.971   4.138   7.742 -0.4675  0.5445 -0.4290
 8697SOL    HW226873   1.030   4.109   7.878 -1.7356 -0.7185 -0.1253
 8698SOL     OW26874   7.564   5.410   4.744 -0.3830 -0.2363 -0.3987
 8698SOL    HW126875   7.657   5.432   4.737  0.0674 -1.8632  0.0894
 8698SOL    HW226876   7.547   5.405   4.838  0.1202 -3.9547 -0.3635
 8699SOL     OW26877   6.088   3.105   8.245  0.0528  0.2040 -0.1056
 8699SOL    HW126878   6.016   3.075   8.189 -0.0020  0.0095  0.0670
 8699SOL    HW226879   6.092   3.200   8.229  0.2795  0.0988 -0.7157
 8700SOL     OW26880   7.865   4.415   0.451  0.1062 -0.9450 -0.2469
 8700SOL    HW126881   7.949   4.377   0.477  0.5789  0.9300  1.1713
 8700SOL    HW226882   7.800   4.349   0.476  1.1065 -2.3149 -1.1344
 8701SOL     OW26883   3.381   2.751   1.630  0.2855 -0.1212 -0.3744
 8701SOL    HW126884   3.415   2.668   1.596 -1.0328 -0.6712 -0.4195
 8701SOL    HW226885   3.457   2.796   1.665  1.3261 -0.5559 -1.9706
 8702SOL     OW26886   4.157   6.709   3.519  0.3934  0.3760 -0.1053
 8702SOL    HW126887   4.187   6.622   3.545 -1.7257 -0.6721 -0.9582
 8702SOL    HW226888   4.076   6.693   3.471  0.6662  2.7319 -1.4915
 8703SOL     OW26889   2.184   1.297   8.074 -0.0023 -0.2805 -0.0353
 8703SOL    HW126890   2.189   1.352   8.152 -2.0632  0.7036 -0.5481
 8703SOL    HW226891   2.188   1.359   8.000  0.0326 -1.0281 -0.6753
 8704SOL     OW26892   0.248   6.400   6.124  0.0696  0.0035  0.1091
 8704SOL    HW126893   0.253   6.456   6.046  1.5980 -1.5637 -1.0001
 8704SOL    HW226894   0.251   6.461   6.197 -0.3342  1.4765 -1.0352
 8705SOL     OW26895   0.705   4.747   2.048 -0.3155 -0.1881 -0.2958
 8705SOL    HW126896   0.797   4.749   2.019 -0.2677  2.4960 -0.2480
 8705SOL    HW226897   0.656   4.782   1.974 -1.0143  0.4270  0.4369
 8706SOL     OW26898   1.484   6.986   1.029  0.1870  0.1958  0.1137
 8706SOL    HW126899   1.458   6.944   0.947 -0.7106  1.7454 -0.4369
 8706SOL    HW226900   1.560   6.936   1.058 -0.4581 -1.3956 -0.8095
 8707SOL     OW26901   5.640   7.565   6.036  0.5616  0.5840  0.5378
 8707SOL    HW126902   5.551   7.585   6.065  0.0205 -0.9972  0.0668
 8707SOL    HW226903   5.696   7.620   6.091 -0.7270  2.7230 -0.1407
 8708SOL     OW26904   3.341   2.941   4.483  0.1552  0.0126  0.4796
 8708SOL    HW126905   3.419   2.900   4.520 -0.8400 -1.6055  0.8648
 8708SOL    HW226906   3.375   2.999   4.414  1.8226  0.9452  2.0145
 8709SOL     OW26907   2.279   7.018   5.870 -0.1333  0.7843 -0.5460
 8709SOL    HW126908   2.269   6.959   5.945 -0.0133 -0.2552 -1.3126
 8709SOL    HW226909   2.244   6.968   5.796  1.1973  1.1453 -1.4634
 8710SOL     OW26910   1.158   0.621   4.353 -0.4974  0.9273  0.0470
 8710SOL    HW126911   1.209   0.555   4.400  0.1884 -0.2272 -2.1411
 8710SOL    HW226912   1.210   0.701   4.361  0.4263  0.3636 -0.0658
 8711SOL     OW26913   1.642   5.463   8.182  0.8137  0.3809  0.1495
 8711SOL    HW126914   1.608   5.420   8.104  1.9484  0.1405 -0.2400
 8711SOL    HW226915   1.677   5.392   8.235  2.3794  0.7381 -0.3348
 8712SOL     OW26916   1.597   4.669   4.225  0.0765  0.0010  0.2409
 8712SOL    HW126917   1.528   4.673   4.290 -1.0487 -2.3507 -0.6707
 8712SOL    HW226918   1.555   4.630   4.148  2.3019 -1.2179 -0.4586
 8713SOL     OW26919   8.272   2.278   4.280  0.2550 -0.2681 -0.6287
 8713SOL    HW126920   8.343   2.227   4.319  0.4690  0.2363 -0.3386
 8713SOL    HW226921   8.206   2.214   4.256  0.1266 -0.5925  0.5485
 8714SOL     OW26922   1.867   0.434   4.855 -0.4509  0.4538  0.6596
 8714SOL    HW126923   1.823   0.417   4.938 -0.9586 -1.3780  0.0610
 8714SOL    HW226924   1.795   0.442   4.792 -0.4146  5.7709  0.8365
 8715SOL     OW26925   1.265   4.842   0.100  0.3409 -0.2282  0.2257
 8715SOL    HW126926   1.211   4.796   0.035  0.9460 -2.8595  1.4510
 8715SOL    HW226927   1.204   4.902   0.143 -1.5709 -2.6416  1.1216
 8716SOL     OW26928   6.446   7.831   7.531 -0.1761  0.3671  0.3595
 8716SOL    HW126929   6.437   7.857   7.623 -0.5047 -0.5416  0.5877
 8716SOL    HW226930   6.540   7.817   7.520  0.2927  3.1820 -0.2184
 8717SOL     OW26931   7.477   4.511   6.177 -0.4320 -0.4419 -0.0271
 8717SOL    HW126932   7.519   4.457   6.111 -0.0248  0.1334 -0.2405
 8717SOL    HW226933   7.400   4.548   6.133  0.6581  1.1560 -0.6756
 8718SOL     OW26934   5.732   7.104   0.181  0.0362  0.3617  0.2294
 8718SOL    HW126935   5.770   7.146   0.104 -0.3464 -2.1209 -1.4396
 8718SOL    HW226936   5.788   7.131   0.253  0.0646  3.2567 -0.7555
 8719SOL     OW26937   6.020   6.889   6.053  0.0964 -0.0726 -0.0391
 8719SOL    HW126938   6.080   6.890   5.979  1.8115 -2.2985  1.1694
 8719SOL    HW226939   6.038   6.971   6.100  1.3814 -0.1441 -0.3534
 8720SOL     OW26940   6.484   2.409   7.469 -0.3370 -0.2723 -0.1554
 8720SOL    HW126941   6.545   2.423   7.541  0.0706  1.5565 -0.7904
 8720SOL    HW226942   6.397   2.417   7.508 -0.1505 -0.9088  0.4001
 8721SOL     OW26943   7.939   1.232   6.103  0.2162 -0.1478  0.9025
 8721SOL    HW126944   7.904   1.264   6.020 -1.4121  0.2346  1.7047
 8721SOL    HW226945   7.991   1.305   6.137 -0.0861  0.1354  0.7645
 8722SOL     OW26946   6.881   3.818   0.883 -0.0508  0.3201  0.5018
 8722SOL    HW126947   6.840   3.819   0.969 -0.7300 -1.1742  0.2264
 8722SOL    HW226948   6.808   3.822   0.821 -0.1232 -3.8719 -0.0213
 8723SOL     OW26949   3.566   8.286   3.738 -0.0054  0.4275  0.1821
 8723SOL    HW126950   3.505   8.336   3.683 -0.0698 -0.2668 -0.3901
 8723SOL    HW226951   3.615   8.232   3.676  1.6933  1.4695  0.5419
 8724SOL     OW26952   3.448   7.741   2.774 -0.1608  0.3814 -0.3307
 8724SOL    HW126953   3.464   7.723   2.681 -1.8261 -0.9951 -0.3952
 8724SOL    HW226954   3.394   7.820   2.774 -0.5575  0.1138 -0.5714
 8725SOL     OW26955   5.085   2.186   3.304 -0.5288 -0.1855  0.3099
 8725SOL    HW126956   5.128   2.129   3.241 -1.2437  0.1227 -0.4861
 8725SOL    HW226957   4.992   2.163   3.298 -1.1189  2.2418 -1.3620
 8726SOL     OW26958   3.990   6.609   8.091  0.5213 -0.1317  0.6954
 8726SOL    HW126959   4.051   6.544   8.125 -1.1991 -1.4315  1.4380
 8726SOL    HW226960   3.908   6.592   8.137  0.0131  2.6516  0.9962
 8727SOL     OW26961   3.917   6.946   4.526 -0.2070 -0.3503  0.0990
 8727SOL    HW126962   3.847   6.942   4.462  0.5479  0.1071 -0.7683
 8727SOL    HW226963   3.899   7.025   4.577 -0.1686 -0.0786 -0.3051
 8728SOL     OW26964   5.454   4.097   8.160  0.5420  0.2123  0.3204
 8728SOL    HW126965   5.506   4.049   8.225  0.0843 -0.5087  0.1639
 8728SOL    HW226966   5.496   4.183   8.155  0.4508  0.3764  1.7471
 8729SOL     OW26967   5.753   7.765   4.679  0.2002 -0.2026  0.0263
 8729SOL    HW126968   5.845   7.744   4.662  0.3783  0.2013  0.4678
 8729SOL    HW226969   5.724   7.696   4.739  0.3361 -0.0861  0.2261
 8730SOL     OW26970   2.326   7.931   1.697  0.0636  0.2590  0.5076
 8730SOL    HW126971   2.320   8.026   1.710  1.1448  0.2009  1.5606
 8730SOL    HW226972   2.350   7.896   1.783  0.1602 -0.9252  0.0159
 8731SOL     OW26973   2.289   2.937   1.937  0.5039 -0.6175 -0.1359
 8731SOL    HW126974   2.348   3.011   1.947 -0.3117  0.3518 -1.9917
 8731SOL    HW226975   2.346   2.860   1.941  1.7846  0.2488 -1.1247
 8732SOL     OW26976   4.189   3.376   2.145 -0.3724  0.0563  0.1240
 8732SOL    HW126977   4.235   3.293   2.129  1.8292  0.9751  1.1738
 8732SOL    HW226978   4.207   3.395   2.237 -2.1084  0.9804  0.2956
 8733SOL     OW26979   4.789   2.996   4.018 -0.1282 -0.5724 -0.4950
 8733SOL    HW126980   4.776   3.010   3.924  0.8422  1.7539 -0.3405
 8733SOL    HW226981   4.701   3.001   4.056 -0.6744 -2.6619 -1.3424
 8734SOL     OW26982   0.094   5.816   8.276  0.0910 -0.0937 -0.1862
 8734SOL    HW126983   0.145   5.767   8.211  0.3742 -0.6350  0.4301
 8734SOL    HW226984   0.097   5.906   8.245  0.0555 -0.3682 -1.0336
 8735SOL     OW26985   2.451   7.654   3.877 -0.2335 -0.3343  0.3941
 8735SOL    HW126986   2.526   7.614   3.833  1.5236  2.7983  0.2540
 8735SOL    HW226987   2.390   7.674   3.806  1.0818  1.6130 -0.2599
 8736SOL     OW26988   3.465   5.664   5.169 -0.7440 -0.7831  0.1407
 8736SOL    HW126989   3.486   5.586   5.117 -0.7958 -0.9690  0.3914
 8736SOL    HW226990   3.375   5.648   5.200 -0.4052 -1.0903  1.0054
 8737SOL     OW26991   2.865   0.567   5.905  0.0334 -0.0410  0.1663
 8737SOL    HW126992   2.791   0.626   5.924 -0.9018 -0.9145 -0.6282
 8737SOL    HW226993   2.943   0.621   5.921 -0.7811  1.3179 -0.2133
 8738SOL     OW26994   3.923   3.213   2.120 -0.3906 -0.8509  0.0226
 8738SOL    HW126995   3.937   3.124   2.153  0.1424 -0.7309  0.1405
 8738SOL    HW226996   3.938   3.206   2.025 -1.7060 -1.1522 -0.1768
 8739SOL     OW26997   4.753   4.653   4.578  0.2366  0.1615  0.5702
 8739SOL    HW126998   4.730   4.591   4.648  0.4563  0.9930  1.4099
 8739SOL    HW226999   4.710   4.734   4.604  0.4713  0.5268 -0.1787
 8740SOL     OW27000   2.864   2.618   4.984 -0.0848 -0.0248 -0.6920
 8740SOL    HW127001   2.897   2.532   4.960  0.1984  0.2034 -1.1260
 8740SOL    HW227002   2.918   2.644   5.060 -0.1334 -0.2049 -0.5968
 8741SOL     OW27003   3.269   7.024   7.733 -0.0681 -0.1847  0.3841
 8741SOL    HW127004   3.358   6.993   7.751 -0.2571 -0.4819  0.8211
 8741SOL    HW227005   3.281   7.097   7.673  0.4306 -0.6475 -0.0841
 8742SOL     OW27006   5.518   2.005   2.620 -0.4414 -0.4598 -0.6046
 8742SOL    HW127007   5.607   1.991   2.653 -0.3289 -0.9986 -1.1095
 8742SOL    HW227008   5.471   2.047   2.692  0.1976 -0.2570 -0.3040
 8743SOL     OW27009   3.975   4.706   0.339  0.1009 -0.7907  0.0145
 8743SOL    HW127010   4.016   4.779   0.291 -2.7165  0.3769 -0.7859
 8743SOL    HW227011   4.026   4.629   0.312  1.3712  0.4528 -1.3778
 8744SOL     OW27012   1.985   6.233   7.036  0.8694 -0.4076  0.3004
 8744SOL    HW127013   1.941   6.272   6.960  0.4804 -0.8699  0.2872
 8744SOL    HW227014   2.051   6.298   7.060  1.3735 -0.5028 -0.7741
 8745SOL     OW27015   5.045   2.173   7.554 -0.5675 -0.2195  0.1187
 8745SOL    HW127016   5.104   2.211   7.488 -0.2591  0.9632  1.0426
 8745SOL    HW227017   4.963   2.157   7.506 -0.8769  2.0796 -0.2644
 8746SOL     OW27018   4.109   6.065   5.794 -0.2769 -0.0704 -0.6926
 8746SOL    HW127019   4.142   5.992   5.743  1.5915  0.1028  0.1716
 8746SOL    HW227020   4.091   6.028   5.881 -2.2923 -0.1099 -1.0618
 8747SOL     OW27021   3.813   3.570   6.268 -0.0903  0.2339 -0.1394
 8747SOL    HW127022   3.859   3.517   6.203  2.6131  2.9897 -0.7236
 8747SOL    HW227023   3.739   3.607   6.221  0.2147 -0.0133 -0.8245
 8748SOL     OW27024   7.244   6.634   5.348 -0.1280 -0.1288 -0.2563
 8748SOL    HW127025   7.171   6.680   5.390  0.5355 -0.5170  1.4003
 8748SOL    HW227026   7.273   6.694   5.279 -0.2114  1.3289  0.9136
 8749SOL     OW27027   0.154   0.411   6.890  0.4081 -0.9372 -0.5348
 8749SOL    HW127028   0.212   0.474   6.847 -0.5564  1.8580  1.8801
 8749SOL    HW227029   0.066   0.444   6.871 -0.1822 -2.2186 -0.1044
 8750SOL     OW27030   7.700   4.342   5.147  0.1694 -0.4610  0.6734
 8750SOL    HW127031   7.718   4.430   5.114 -0.1444 -0.5936  0.1226
 8750SOL    HW227032   7.737   4.284   5.080  2.6057 -0.8083  2.1994
 8751SOL     OW27033   5.728   4.829   6.271 -0.3228  0.3118 -0.4225
 8751SOL    HW127034   5.698   4.825   6.362  1.5422  0.9730  0.2668
 8751SOL    HW227035   5.759   4.740   6.253 -1.0306  0.0821 -0.5662
 8752SOL     OW27036   2.540   7.594   5.580 -0.3451 -0.0492 -0.4783
 8752SOL    HW127037   2.500   7.676   5.549  0.2101  1.7166  2.9495
 8752SOL    HW227038   2.466   7.542   5.611 -0.4844  1.1117  1.3159
 8753SOL     OW27039   2.613   2.804   4.370  0.4403 -0.5921  0.0774
 8753SOL    HW127040   2.696   2.812   4.418  0.1828  0.2688  0.3985
 8753SOL    HW227041   2.546   2.800   4.437  0.0845  0.5205 -0.1857
 8754SOL     OW27042   3.887   6.729   2.769  0.0251 -0.5206 -0.6262
 8754SOL    HW127043   3.842   6.648   2.747 -1.0433 -0.3218  0.7105
 8754SOL    HW227044   3.894   6.776   2.686 -1.5165 -0.9331 -1.0219
 8755SOL     OW27045   1.725   2.845   7.798  0.0656  0.7036 -0.3333
 8755SOL    HW127046   1.812   2.877   7.821  0.6180  0.3316 -1.7835
 8755SOL    HW227047   1.725   2.753   7.824  0.4219  0.4780 -1.1167
 8756SOL     OW27048   4.595   2.566   0.959 -0.8732 -0.2494  0.1264
 8756SOL    HW127049   4.667   2.582   1.021  0.8374 -3.0974 -0.9502
 8756SOL    HW227050   4.612   2.627   0.887  0.0870 -0.3780  0.2214
 8757SOL     OW27051   1.736   1.445   6.523 -0.3945  0.1676 -0.2308
 8757SOL    HW127052   1.724   1.350   6.513  0.2153 -0.2015  2.0439
 8757SOL    HW227053   1.660   1.473   6.574 -0.7429  0.9848 -1.1713
 8758SOL     OW27054   7.427   4.737   6.641 -0.2138 -0.4678 -0.2261
 8758SOL    HW127055   7.454   4.731   6.733  1.1225  0.2520 -0.5477
 8758SOL    HW227056   7.444   4.650   6.605  0.3119 -0.4364 -0.0588
 8759SOL     OW27057   4.369   2.948   0.251 -0.2991  0.1374 -0.0041
 8759SOL    HW127058   4.423   2.873   0.224 -0.7433 -0.6448  1.1930
 8759SOL    HW227059   4.383   3.013   0.183  0.7037 -0.7487 -0.6837
 8760SOL     OW27060   3.971   0.430   4.624  0.5348  0.1670  0.2803
 8760SOL    HW127061   3.965   0.526   4.624  1.2202  0.2262 -1.0464
 8760SOL    HW227062   4.052   0.411   4.670  1.1992  0.3036 -0.8113
 8761SOL     OW27063   3.249   2.008   1.119  0.3373 -0.0202  0.1321
 8761SOL    HW127064   3.322   1.982   1.063 -0.1774 -1.1047 -0.0567
 8761SOL    HW227065   3.239   1.935   1.180  0.6676  0.9935  1.4353
 8762SOL     OW27066   7.457   2.486   2.434 -0.0843 -0.4303  0.3168
 8762SOL    HW127067   7.464   2.424   2.361  2.2430  0.1824 -0.0740
 8762SOL    HW227068   7.380   2.538   2.413 -0.7363 -1.6904 -0.5544
 8763SOL     OW27069   1.193   7.850   2.177  0.1828  0.7713 -0.2329
 8763SOL    HW127070   1.170   7.822   2.088  0.0663  1.3835 -0.4000
 8763SOL    HW227071   1.121   7.817   2.231 -1.0178  2.4354 -0.7167
 8764SOL     OW27072   7.753   4.722   4.251 -0.0517 -0.1718 -0.2689
 8764SOL    HW127073   7.812   4.683   4.187  0.6113  0.1211  0.1482
 8764SOL    HW227074   7.811   4.752   4.322 -0.8078 -0.9000  0.6833
 8765SOL     OW27075   0.841   6.783   3.256 -0.5128  0.3209 -0.4839
 8765SOL    HW127076   0.865   6.712   3.316  3.2468  1.6274 -0.1588
 8765SOL    HW227077   0.913   6.846   3.264 -2.8223  3.4216 -1.9927
 8766SOL     OW27078   4.071   5.681   7.812 -0.0240  0.3214  0.3845
 8766SOL    HW127079   4.153   5.712   7.849  0.1505  0.6983 -0.2939
 8766SOL    HW227080   4.097   5.615   7.747 -0.3207 -0.3243  0.9101
 8767SOL     OW27081   4.074   0.173   7.270  0.0910 -0.3050 -0.3370
 8767SOL    HW127082   4.147   0.218   7.312  0.2780  0.9104 -1.8638
 8767SOL    HW227083   4.110   0.136   7.190 -0.9167  0.1587 -1.0300
 8768SOL     OW27084   4.015   6.204   5.299  0.2654  0.7779 -0.8188
 8768SOL    HW127085   3.989   6.149   5.374 -0.0916 -0.6632 -1.9534
 8768SOL    HW227086   4.062   6.144   5.241  2.0670  2.2814 -0.9760
 8769SOL     OW27087   2.992   4.467   8.199  0.4470 -0.0273  0.3475
 8769SOL    HW127088   2.992   4.561   8.184 -0.5026  0.3124  2.1145
 8769SOL    HW227089   3.077   4.449   8.238  0.3014  0.2730  0.8153
 8770SOL     OW27090   0.957   4.479   4.846 -0.2061  0.5249 -0.4857
 8770SOL    HW127091   0.878   4.505   4.893 -1.4148 -0.2142 -1.9988
 8770SOL    HW227092   0.967   4.545   4.777 -0.1403  0.0329 -0.9565
 8771SOL     OW27093   7.628   5.550   4.385 -0.0113  0.7381 -0.4099
 8771SOL    HW127094   7.611   5.615   4.316  0.3801  2.0523  0.6816
 8771SOL    HW227095   7.722   5.552   4.397 -0.1498  1.1599  0.7287
 8772SOL     OW27096   7.583   2.544   4.695 -0.5263  0.0795  0.1136
 8772SOL    HW127097   7.615   2.454   4.701 -0.3228 -0.3850 -4.1863
 8772SOL    HW227098   7.655   2.597   4.728  0.1596 -1.2759  0.9033
 8773SOL     OW27099   5.964   1.978   1.455 -0.0102 -0.1677  0.0832
 8773SOL    HW127100   5.917   2.061   1.441 -0.2348 -0.1429  0.9464
 8773SOL    HW227101   5.899   1.920   1.494  0.3987 -0.4535  0.3471
 8774SOL     OW27102   5.477   7.116   1.477  0.2341 -1.0672  0.3014
 8774SOL    HW127103   5.519   7.189   1.522  1.0804 -0.3525 -1.5641
 8774SOL    HW227104   5.389   7.147   1.457 -0.0156 -1.2470  1.0947
 8775SOL     OW27105   0.839   3.911   6.761  0.1902 -0.5212  0.4505
 8775SOL    HW127106   0.827   3.817   6.745  0.5564 -0.7811  1.5886
 8775SOL    HW227107   0.888   3.942   6.686 -0.6121 -1.0782 -0.3215
 8776SOL     OW27108   8.300   6.537   4.946 -0.1477 -0.2750 -0.1285
 8776SOL    HW127109   8.366   6.514   5.012  0.5684 -4.2141 -1.9201
 8776SOL    HW227110   8.216   6.519   4.989  0.2560 -1.5788  0.1732
 8777SOL     OW27111   1.852   2.984   6.025 -0.3111 -0.7478  0.4707
 8777SOL    HW127112   1.937   3.008   6.062  0.2900 -1.1574 -0.6093
 8777SOL    HW227113   1.809   3.067   6.007  0.9277 -0.4397 -1.3629
 8778SOL     OW27114   8.242   0.703   5.526 -0.0316 -0.4659 -0.5539
 8778SOL    HW127115   8.299   0.780   5.517 -0.4114 -0.2010 -0.7056
 8778SOL    HW227116   8.204   0.712   5.613 -2.3735  1.1203 -1.6495
 8779SOL     OW27117   4.709   4.681   1.197  0.2563  0.1772  0.3467
 8779SOL    HW127118   4.670   4.751   1.251  1.8755  1.4536 -0.0603
 8779SOL    HW227119   4.682   4.600   1.240 -3.1371  0.9069 -0.1247
 8780SOL     OW27120   7.516   5.892   0.321 -0.4435 -0.5869 -0.2124
 8780SOL    HW127121   7.544   5.918   0.233  1.0364 -0.2385  0.3254
 8780SOL    HW227122   7.424   5.918   0.325 -0.2423  0.4267 -1.2756
 8781SOL     OW27123   0.039   0.392   0.822 -0.2203  0.0938 -0.0854
 8781SOL    HW127124  -0.039   0.434   0.785  0.0072 -1.6508 -2.7988
 8781SOL    HW227125   0.106   0.460   0.820 -0.5896  0.4611 -1.7960
 8782SOL     OW27126   5.354   6.844   1.336  0.6959 -0.1348  0.1019
 8782SOL    HW127127   5.304   6.905   1.280 -0.3686  1.4003  2.5677
 8782SOL    HW227128   5.439   6.837   1.293  0.1265  1.4194 -1.4071
 8783SOL     OW27129   4.047   2.865   0.270 -0.0564 -0.6478  0.0127
 8783SOL    HW127130   4.106   2.892   0.200 -0.0389 -2.1244 -0.5717
 8783SOL    HW227131   3.962   2.900   0.244  0.0275 -0.8413 -0.5374
 8784SOL     OW27132   2.119   3.811   4.816  0.5851  0.0493  0.5643
 8784SOL    HW127133   2.149   3.817   4.907  0.2484  0.1314  0.6733
 8784SOL    HW227134   2.163   3.884   4.772 -0.2228  0.7960  0.9516
 8785SOL     OW27135   7.498   3.457   0.784 -0.0030 -0.4750  0.1790
 8785SOL    HW127136   7.418   3.412   0.757 -0.5627  1.0134 -0.7754
 8785SOL    HW227137   7.474   3.505   0.862  0.0275 -0.2197  0.0320
 8786SOL     OW27138   3.820   1.071   7.373 -0.5621 -0.5334 -0.4832
 8786SOL    HW127139   3.878   1.099   7.445  0.1878  0.4556 -1.4399
 8786SOL    HW227140   3.879   1.036   7.307 -1.2826 -1.7284 -0.5051
 8787SOL     OW27141   2.306   1.099   4.912  0.1351  0.5443 -0.6114
 8787SOL    HW127142   2.231   1.041   4.927 -0.5650  1.6617  0.2997
 8787SOL    HW227143   2.377   1.060   4.962 -0.0501 -0.0662 -0.8128
 8788SOL     OW27144   6.438   2.579   3.217 -0.1581 -0.3045 -0.1292
 8788SOL    HW127145   6.503   2.510   3.212  0.2494  0.1063 -0.7248
 8788SOL    HW227146   6.435   2.615   3.128  0.6738  1.3605  0.4699
 8789SOL     OW27147   7.048   1.312   5.136  0.1193 -0.2084  0.4263
 8789SOL    HW127148   7.087   1.399   5.126 -0.3806 -0.0091  0.1128
 8789SOL    HW227149   7.063   1.289   5.227  1.6847 -0.5036  0.1085
 8790SOL     OW27150   5.465   5.061   3.010  0.3943 -0.0697 -0.2872
 8790SOL    HW127151   5.378   5.102   3.012  1.1391  1.6559 -1.0912
 8790SOL    HW227152   5.492   5.066   2.918  1.2761 -0.7736 -0.0863
 8791SOL     OW27153   1.746   5.377   4.328 -0.0173 -0.4204 -0.0534
 8791SOL    HW127154   1.757   5.371   4.423  2.8010 -2.8568 -0.3872
 8791SOL    HW227155   1.697   5.458   4.315  0.2060  0.4494  3.4248
 8792SOL     OW27156   1.605   1.861   2.980 -0.3451 -0.1859 -0.1329
 8792SOL    HW127157   1.582   1.819   3.063 -0.9370  0.4558  0.0348
 8792SOL    HW227158   1.604   1.789   2.916 -0.8412 -0.5190  0.2384
 8793SOL     OW27159   1.180   7.344   0.747  0.0059 -0.2770 -0.2182
 8793SOL    HW127160   1.135   7.333   0.663 -0.2485  0.1082 -0.1359
 8793SOL    HW227161   1.164   7.262   0.794  0.8474 -0.8237 -0.8673
 8794SOL     OW27162   8.173   6.228   2.883  0.0342 -0.1919  0.2014
 8794SOL    HW127163   8.263   6.258   2.873  1.8365 -5.1044 -0.9306
 8794SOL    HW227164   8.146   6.203   2.795 -1.7966 -0.4601  0.7998
 8795SOL     OW27165   5.566   8.257   5.497 -0.1436  0.1778 -0.1363
 8795SOL    HW127166   5.648   8.274   5.450 -0.0933  1.2286  0.3078
 8795SOL    HW227167   5.590   8.263   5.590 -0.0485 -2.7359  0.1165
 8796SOL     OW27168   1.661   3.088   4.141 -0.2877 -0.3218  0.5989
 8796SOL    HW127169   1.647   3.079   4.235  1.0277 -1.1739  0.7502
 8796SOL    HW227170   1.724   3.018   4.120  0.3477  0.5945 -0.6875
 8797SOL     OW27171   6.275   0.545   5.006 -0.4794  0.2049  0.2854
 8797SOL    HW127172   6.189   0.585   5.014 -1.6123 -2.0813  0.4738
 8797SOL    HW227173   6.289   0.537   4.911 -1.7944 -1.8664  0.1951
 8798SOL     OW27174   1.690   7.102   2.037 -0.0045  0.1494 -0.3975
 8798SOL    HW127175   1.650   7.071   2.118 -0.2247  1.1979 -0.0895
 8798SOL    HW227176   1.722   7.022   1.994  0.2689 -0.4021  0.7882
 8799SOL     OW27177   0.579   1.698   6.948 -0.2095 -0.4702 -0.2095
 8799SOL    HW127178   0.653   1.643   6.922 -0.4487 -1.0151  0.2333
 8799SOL    HW227179   0.589   1.778   6.897 -0.8802 -1.6458 -2.3474
 8800SOL     OW27180   3.734   3.975   1.665 -0.3546 -0.5859 -0.0129
 8800SOL    HW127181   3.824   3.958   1.637 -0.6895 -0.5341 -1.1515
 8800SOL    HW227182   3.680   3.942   1.593 -1.1612  1.4776 -0.4102
 8801SOL     OW27183   2.085   1.534   4.427 -0.1510 -0.0486 -0.1804
 8801SOL    HW127184   2.146   1.527   4.500  0.5476 -2.8635 -0.8838
 8801SOL    HW227185   2.003   1.498   4.460 -0.1966 -0.1363 -0.3829
 8802SOL     OW27186   5.523   4.218   3.494 -0.5775 -0.0465  0.0560
 8802SOL    HW127187   5.459   4.249   3.558 -0.9791  0.1069 -0.4118
 8802SOL    HW227188   5.607   4.220   3.541 -0.8480  0.1707  0.5377
 8803SOL     OW27189   4.343   1.118   7.972  0.5610  1.2538  0.1313
 8803SOL    HW127190   4.406   1.052   7.942 -1.9668 -1.1612 -0.2621
 8803SOL    HW227191   4.314   1.161   7.891 -1.2392 -0.5208 -0.2317
 8804SOL     OW27192   5.644   3.056   1.258  0.1085 -0.5785 -0.0859
 8804SOL    HW127193   5.596   3.019   1.185 -1.8713 -1.5114  1.5856
 8804SOL    HW227194   5.610   3.145   1.266  1.0689 -0.1165 -0.8726
 8805SOL     OW27195   4.925   0.539   5.575  0.4854  0.4942  0.4678
 8805SOL    HW127196   4.987   0.496   5.517  0.5666  0.0592  0.8667
 8805SOL    HW227197   4.895   0.469   5.634 -1.2651  0.4172 -0.4395
 8806SOL     OW27198   1.131   3.946   4.690 -0.0205 -0.5101 -0.5718
 8806SOL    HW127199   1.072   3.871   4.690 -1.7299  0.7954 -0.1611
 8806SOL    HW227200   1.127   3.980   4.600 -0.9229  0.3536 -0.2119
 8807SOL     OW27201   5.244   1.712   5.442 -0.1266 -0.5175 -0.0455
 8807SOL    HW127202   5.205   1.631   5.410 -2.3942 -0.2113  1.7386
 8807SOL    HW227203   5.210   1.779   5.382 -1.5449 -0.4073  0.8292
 8808SOL     OW27204   4.702   1.539   3.928  0.3083 -0.5540  0.3079
 8808SOL    HW127205   4.773   1.548   3.992  1.2022 -0.6439 -0.6372
 8808SOL    HW227206   4.732   1.590   3.853 -1.2527  0.5145  0.3764
 8809SOL     OW27207   2.614   7.681   7.887  0.2101  0.0694  0.2522
 8809SOL    HW127208   2.524   7.687   7.857  0.5940  1.4316 -0.7564
 8809SOL    HW227209   2.635   7.770   7.917  0.1593 -0.9714  3.8188
 8810SOL     OW27210   4.408   4.744   4.842  0.1849  0.1299 -0.1164
 8810SOL    HW127211   4.399   4.823   4.895  1.3014  0.3893 -0.2925
 8810SOL    HW227212   4.392   4.672   4.904  0.8572  0.4523  0.4411
 8811SOL     OW27213   2.281   3.128   5.231  0.3522  0.4000 -0.1121
 8811SOL    HW127214   2.221   3.194   5.197  0.0184 -0.1641 -0.6284
 8811SOL    HW227215   2.225   3.066   5.277  0.4922 -0.3143 -0.8893
 8812SOL     OW27216   7.694   2.232   2.029 -0.2124 -0.1035  0.5587
 8812SOL    HW127217   7.669   2.275   1.947  1.9946 -1.0373 -0.6689
 8812SOL    HW227218   7.671   2.296   2.097  0.9345  2.1480 -1.0280
 8813SOL     OW27219   3.467   2.605   3.822  0.6250 -0.2734 -0.4254
 8813SOL    HW127220   3.439   2.527   3.870 -0.0357 -0.6362 -1.3800
 8813SOL    HW227221   3.460   2.676   3.886 -1.7415 -0.4798 -0.3787
 8814SOL     OW27222   2.465   2.660   3.962 -0.0001 -0.3741  0.2302
 8814SOL    HW127223   2.558   2.668   3.942 -0.2208  0.3146 -0.6016
 8814SOL    HW227224   2.442   2.744   4.001 -0.5393 -0.0619 -0.7399
 8815SOL     OW27225   3.560   4.910   4.885 -0.2740  0.0701  0.5059
 8815SOL    HW127226   3.633   4.970   4.872  1.3156 -1.8953 -0.1954
 8815SOL    HW227227   3.496   4.960   4.935  0.8300  2.3942 -0.2850
 8816SOL     OW27228   3.393   2.664   0.100  0.0209 -0.5133  0.1799
 8816SOL    HW127229   3.485   2.651   0.119 -0.5134 -1.0281  2.7085
 8816SOL    HW227230   3.351   2.674   0.185 -2.7221 -3.2949 -0.6456
 8817SOL     OW27231   3.530   6.911   2.149 -0.7180  0.0315 -0.6338
 8817SOL    HW127232   3.468   6.865   2.093  0.9957  0.2633 -2.8325
 8817SOL    HW227233   3.533   6.859   2.230 -2.7953 -0.6598 -0.9499
 8818SOL     OW27234   6.427   2.943   4.995 -0.0663 -0.1058 -0.5005
 8818SOL    HW127235   6.503   2.914   5.044  0.5779 -2.6844 -2.7433
 8818SOL    HW227236   6.360   2.959   5.061  1.3873 -1.1950  1.3324
 8819SOL     OW27237   1.824   7.235   5.938  0.1934 -0.5786  0.5481
 8819SOL    HW127238   1.856   7.182   6.011  0.3621 -1.1765  0.0529
 8819SOL    HW227239   1.894   7.297   5.920 -0.6517  0.9695  2.1999
 8820SOL     OW27240   3.601   0.273   4.447 -0.6117  0.1271 -0.4348
 8820SOL    HW127241   3.697   0.277   4.445 -0.5900 -0.2087 -0.1724
 8820SOL    HW227242   3.579   0.284   4.540 -0.7576 -1.2124 -0.2951
 8821SOL     OW27243   0.769   2.449   7.275 -0.1998 -0.2621  0.2252
 8821SOL    HW127244   0.770   2.503   7.354  1.4073 -0.3746  0.3101
 8821SOL    HW227245   0.833   2.491   7.217  0.9002 -1.9095  0.1958
 8822SOL     OW27246   6.107   0.909   8.033  0.2159  0.0494  0.4150
 8822SOL    HW127247   6.142   0.863   7.957  0.9085  0.5666  0.4050
 8822SOL    HW227248   6.077   0.993   7.999 -2.1562 -0.7982  0.2167
 8823SOL     OW27249   6.762   2.457   2.683  0.3384 -0.0759  0.0662
 8823SOL    HW127250   6.846   2.482   2.644  0.4569 -0.9239 -0.2473
 8823SOL    HW227251   6.728   2.389   2.624  1.1228 -2.3648  2.0667
 8824SOL     OW27252   2.622   7.261   6.433  0.2203  0.2015  0.2850
 8824SOL    HW127253   2.534   7.297   6.418  1.0987  2.3438 -0.1269
 8824SOL    HW227254   2.642   7.211   6.354  0.4049  2.0257 -0.8835
 8825SOL     OW27255   1.342   6.250   5.305  0.1436  0.1835  0.1095
 8825SOL    HW127256   1.322   6.301   5.226 -0.8071  0.9358  0.8040
 8825SOL    HW227257   1.432   6.221   5.293  0.7234  2.0415 -0.3257
 8826SOL     OW27258   5.876   6.702   1.511  0.1092  0.0926  0.3860
 8826SOL    HW127259   5.884   6.787   1.469  0.5392  0.1958  0.6665
 8826SOL    HW227260   5.841   6.722   1.598  0.0634 -0.0316  0.3955
 8827SOL     OW27261   6.439   3.480   4.188 -0.1883  0.2838 -0.3535
 8827SOL    HW127262   6.404   3.419   4.254 -1.7443  0.2642 -1.1472
 8827SOL    HW227263   6.498   3.537   4.237 -0.1637 -0.6547  0.7677
 8828SOL     OW27264   0.016   0.749   2.824  0.0734 -0.6631 -0.3924
 8828SOL    HW127265  -0.008   0.773   2.913 -0.7823  0.6131 -0.9302
 8828SOL    HW227266  -0.010   0.657   2.816  0.3051 -0.8396  0.7065
 8829SOL     OW27267   4.360   1.727   5.301  0.1178 -0.2745  0.4430
 8829SOL    HW127268   4.388   1.816   5.323 -1.2979  0.2759  0.1679
 8829SOL    HW227269   4.361   1.725   5.205 -2.1502  0.2874  0.3514
 8830SOL     OW27270   3.336   6.475   5.083 -0.0587  0.2289  0.3718
 8830SOL    HW127271   3.378   6.505   5.163  0.4363 -2.8376  1.3980
 8830SOL    HW227272   3.408   6.448   5.026 -0.4849  0.0251 -0.0829
 8831SOL     OW27273   5.008   7.785   8.208  0.9273  0.0322  0.1807
 8831SOL    HW127274   5.040   7.822   8.290 -0.2355  0.8186  0.2942
 8831SOL    HW227275   5.000   7.691   8.226  2.2485 -0.0544  0.4301
 8832SOL     OW27276   6.946   0.762   7.738  0.1030  0.1791  0.0471
 8832SOL    HW127277   6.944   0.751   7.833 -0.7405  0.8168  0.1173
 8832SOL    HW227278   7.004   0.836   7.723 -1.9900  1.9758  0.3075
 8833SOL     OW27279   0.440   6.441   1.810  0.4318  0.0257  0.5008
 8833SOL    HW127280   0.362   6.478   1.852  0.6796  0.6844  0.3984
 8833SOL    HW227281   0.443   6.482   1.723  0.4533 -0.5993  0.2004
 8834SOL     OW27282   1.406   4.100   1.320  0.7767 -0.1886  0.3246
 8834SOL    HW127283   1.428   4.191   1.302  0.8298 -0.3860 -0.6776
 8834SOL    HW227284   1.344   4.103   1.392  1.4098  0.5870  0.8492
 8835SOL     OW27285   8.104   1.658   3.522 -0.0628 -0.1030 -0.3545
 8835SOL    HW127286   8.024   1.628   3.564 -0.3962  0.3919 -0.6098
 8835SOL    HW227287   8.097   1.754   3.523  0.0905 -0.0686 -1.1865
 8836SOL     OW27288   0.046   3.041   1.299  0.0498 -0.0012 -0.3676
 8836SOL    HW127289   0.050   2.968   1.237  0.1657 -0.3690  0.0700
 8836SOL    HW227290  -0.011   3.009   1.369  0.1495  0.3126 -0.1454
 8837SOL     OW27291   1.582   5.696   5.298 -0.2517  0.5170 -0.1726
 8837SOL    HW127292   1.492   5.663   5.302 -0.6350  1.3208 -1.3528
 8837SOL    HW227293   1.627   5.652   5.369 -1.9220  1.1539  1.3627
 8838SOL     OW27294   5.376   2.023   4.544 -0.7613  0.6355  0.1668
 8838SOL    HW127295   5.353   2.015   4.451 -0.4776  0.9855  0.0613
 8838SOL    HW227296   5.329   2.101   4.573  0.5004  1.5478 -0.1310
 8839SOL     OW27297   2.587   3.617   2.701  0.6329 -0.2669  0.3984
 8839SOL    HW127298   2.658   3.653   2.754  0.2771  1.3264 -0.1386
 8839SOL    HW227299   2.616   3.631   2.610  0.3118 -1.0132  0.1788
 8840SOL     OW27300   7.908   5.448   4.044  1.4540  0.5258  0.1598
 8840SOL    HW127301   7.958   5.409   3.972  0.2541 -1.5696  0.3870
 8840SOL    HW227302   7.844   5.504   4.001 -0.2993 -1.9079 -0.6196
 8841SOL     OW27303   0.022   2.079   0.088 -0.0074 -0.1782 -0.3076
 8841SOL    HW127304   0.105   2.049   0.050  0.1805 -1.3792  0.9791
 8841SOL    HW227305   0.034   2.174   0.098  1.2838 -0.3546  0.0179
 8842SOL     OW27306   0.072   5.459   7.474 -0.3832 -0.1126 -0.2730
 8842SOL    HW127307   0.119   5.428   7.397  1.2774  1.0773  0.2124
 8842SOL    HW227308   0.140   5.475   7.539 -1.2874  2.6237  0.1436
 8843SOL     OW27309   8.314   7.504   2.099  0.4306  0.4739 -0.3407
 8843SOL    HW127310   8.264   7.446   2.041  0.9075 -0.3612  0.0711
 8843SOL    HW227311   8.382   7.448   2.136  0.7562  1.2477  0.2486
 8844SOL     OW27312   7.461   6.144   4.770 -0.2603 -0.5048 -0.5745
 8844SOL    HW127313   7.465   6.094   4.689  0.4945 -0.1352 -0.7742
 8844SOL    HW227314   7.542   6.195   4.771 -0.4738 -0.1627  0.1895
 8845SOL     OW27315   4.217   5.913   1.464  0.2287  0.0455 -0.0430
 8845SOL    HW127316   4.275   5.951   1.397  0.8663 -0.5566  0.1491
 8845SOL    HW227317   4.156   5.983   1.485  0.7026  0.6065 -0.4702
 8846SOL     OW27318   6.691   5.144   5.536  0.1652 -0.5732  0.1884
 8846SOL    HW127319   6.634   5.149   5.613  0.6968  1.4240  0.5156
 8846SOL    HW227320   6.667   5.221   5.484  0.2954 -1.5197 -1.3300
 8847SOL     OW27321   2.576   2.186   2.408  0.1049 -0.0653 -0.0577
 8847SOL    HW127322   2.571   2.100   2.450  3.5086  0.2441  1.2789
 8847SOL    HW227323   2.610   2.167   2.320 -0.7104 -0.1830 -0.3558
 8848SOL     OW27324   7.189   8.103   0.271 -0.3787  0.2492  0.1985
 8848SOL    HW127325   7.235   8.152   0.339  0.7506  0.9638 -1.0465
 8848SOL    HW227326   7.156   8.169   0.211  1.2097 -0.4464 -1.5463
 8849SOL     OW27327   7.463   2.955   4.036  0.0594  0.3316  0.1068
 8849SOL    HW127328   7.462   2.969   3.942  0.3394  1.2267  0.2262
 8849SOL    HW227329   7.384   2.998   4.068 -0.0722 -0.0297  0.2802
 8850SOL     OW27330   6.384   3.970   7.754 -0.2218 -0.1358 -0.1950
 8850SOL    HW127331   6.351   3.885   7.726  1.7380 -0.6938 -1.0367
 8850SOL    HW227332   6.475   3.953   7.779 -0.3420  1.3895  1.4289
 8851SOL     OW27333   2.911   3.232   0.436  0.5449  0.2815 -0.3259
 8851SOL    HW127334   2.817   3.235   0.418  0.6707 -2.5893 -1.9214
 8851SOL    HW227335   2.917   3.235   0.531 -1.1262  0.7421 -0.1968
 8852SOL     OW27336   6.253   6.216   4.762  0.4000  0.3714  0.2996
 8852SOL    HW127337   6.333   6.220   4.709 -0.3466 -0.2041 -0.9058
 8852SOL    HW227338   6.250   6.126   4.794 -0.2266  0.1328 -0.4110
 8853SOL     OW27339   4.129   3.087   6.654  0.3609  0.1686  0.1137
 8853SOL    HW127340   4.057   3.107   6.595 -0.6608 -2.4213  0.3289
 8853SOL    HW227341   4.088   3.083   6.741  0.9343 -0.3733  0.3675
 8854SOL     OW27342   3.529   1.711   5.022  0.0769 -0.1616  0.2133
 8854SOL    HW127343   3.539   1.639   4.960  1.0694 -0.0037  0.1747
 8854SOL    HW227344   3.561   1.788   4.976  1.5072 -0.1622  1.1313
 8855SOL     OW27345   1.267   0.685   2.583  0.2983  0.0019 -0.0821
 8855SOL    HW127346   1.285   0.611   2.641 -1.3979  1.5368  2.6024
 8855SOL    HW227347   1.178   0.670   2.552  0.9306 -0.4227 -1.8081
 8856SOL     OW27348   4.429   3.906   7.934  0.9087  0.3679  0.1074
 8856SOL    HW127349   4.353   3.864   7.894 -0.1266  2.5451 -0.3713
 8856SOL    HW227350   4.480   3.938   7.860  1.5501  0.1529  0.4543
 8857SOL     OW27351   4.810   5.974   1.065 -0.2613  0.2196  0.4930
 8857SOL    HW127352   4.775   5.890   1.036  0.1870 -0.6802  2.3749
 8857SOL    HW227353   4.896   5.980   1.023  0.7582 -1.4667  2.1721
 8858SOL     OW27354   3.061   7.163   2.571 -0.6121  0.2148  0.0190
 8858SOL    HW127355   3.070   7.124   2.485  2.8532 -0.4527  0.5245
 8858SOL    HW227356   3.121   7.238   2.570  2.8129 -2.1164  2.8815
 8859SOL     OW27357   8.222   4.492   0.750 -0.0794 -0.3283 -0.0161
 8859SOL    HW127358   8.317   4.505   0.752 -0.2583  1.0436  0.5193
 8859SOL    HW227359   8.197   4.487   0.843 -0.5784 -0.2547 -0.1452
 8860SOL     OW27360   2.446   7.398   4.901 -0.5190 -0.2564  0.0728
 8860SOL    HW127361   2.365   7.379   4.949  0.4753 -1.7305  1.2489
 8860SOL    HW227362   2.516   7.361   4.955  0.7163 -1.7562 -2.3544
 8861SOL     OW27363   4.447   0.834   1.892  0.2281  0.2003 -0.5765
 8861SOL    HW127364   4.502   0.882   1.955  0.8334 -0.0553 -0.9056
 8861SOL    HW227365   4.363   0.881   1.894  0.0696 -0.0927  0.7764
 8862SOL     OW27366   6.070   4.921   5.543  0.1075 -0.2531 -0.1888
 8862SOL    HW127367   6.093   4.895   5.454 -2.3174 -0.8737 -0.7262
 8862SOL    HW227368   6.015   4.999   5.532 -0.2994 -0.3917  0.7434
 8863SOL     OW27369   6.212   5.798   2.973 -0.2684 -0.1833 -0.0736
 8863SOL    HW127370   6.170   5.792   3.059 -1.7033 -0.3857 -0.7569
 8863SOL    HW227371   6.269   5.722   2.969 -1.9613 -1.5113 -0.1874
 8864SOL     OW27372   0.858   5.507   0.496  0.1285  0.6082 -0.2451
 8864SOL    HW127373   0.893   5.511   0.585 -0.7259 -0.7016  0.1618
 8864SOL    HW227374   0.770   5.473   0.505 -0.7590  2.4148 -1.4201
 8865SOL     OW27375   2.949   6.425   6.127 -0.3454 -0.4768 -0.3838
 8865SOL    HW127376   2.905   6.479   6.193  1.6444  0.0541  0.6136
 8865SOL    HW227377   3.042   6.436   6.147  0.2329 -1.8015 -2.1553
 8866SOL     OW27378   1.519   0.065   5.728  0.0999 -0.1077 -0.4065
 8866SOL    HW127379   1.547  -0.010   5.675 -0.6679 -1.5826  1.2169
 8866SOL    HW227380   1.482   0.126   5.664 -2.3107 -2.5132 -1.4946
 8867SOL     OW27381   4.473   3.798   4.230  0.6370 -0.3303 -0.2290
 8867SOL    HW127382   4.457   3.705   4.247  1.7894 -0.1900  2.0520
 8867SOL    HW227383   4.481   3.837   4.317  0.2569  1.9234 -1.1278
 8868SOL     OW27384   0.292   7.832   0.063  0.0994 -0.0839 -0.1480
 8868SOL    HW127385   0.304   7.801  -0.027  3.7682  0.2479  0.0851
 8868SOL    HW227386   0.318   7.758   0.118 -0.5736  0.2384  0.6262
 8869SOL     OW27387   1.376   4.456   2.657  0.0918  0.2333 -0.4182
 8869SOL    HW127388   1.307   4.406   2.614  0.3582 -0.5177  0.0087
 8869SOL    HW227389   1.450   4.451   2.597  0.5568 -1.0577  0.2167
 8870SOL     OW27390   0.603   3.916   1.183 -0.4230  0.0871  0.3168
 8870SOL    HW127391   0.634   3.994   1.138 -0.3301 -0.8856 -1.3789
 8870SOL    HW227392   0.529   3.946   1.235 -0.1048  1.3778  0.0637
 8871SOL     OW27393   1.882   1.079   1.918 -0.0019 -0.3080 -0.4386
 8871SOL    HW127394   1.929   1.148   1.967  1.5530 -0.8223 -1.1317
 8871SOL    HW227395   1.871   1.009   1.982 -0.4036  0.0516 -0.1000
 8872SOL     OW27396   0.308   3.595   3.562 -0.4532  0.2130 -0.8316
 8872SOL    HW127397   0.386   3.572   3.613 -0.5023 -0.4636 -1.0483
 8872SOL    HW227398   0.238   3.544   3.603 -0.4886 -0.3492 -1.5729
 8873SOL     OW27399   5.990   2.331   5.627 -0.2150  0.2001  0.0229
 8873SOL    HW127400   5.929   2.324   5.701 -0.1572 -1.5854 -0.0784
 8873SOL    HW227401   6.066   2.377   5.663 -0.4197 -0.1555  0.9290
 8874SOL     OW27402   1.110   1.991   4.239  0.1903 -1.0983 -0.1155
 8874SOL    HW127403   1.087   1.900   4.260  0.9962 -1.3011 -0.1005
 8874SOL    HW227404   1.198   1.986   4.202  0.8830 -0.1669  1.3292
 8875SOL     OW27405   7.270   4.941   7.011 -0.1992  0.2162  0.7899
 8875SOL    HW127406   7.195   4.981   7.054 -0.9889 -1.3512  0.9504
 8875SOL    HW227407   7.254   4.951   6.918 -0.3057  0.4144  0.8305
 8876SOL     OW27408   4.210   3.539   4.484 -0.3660 -0.2280  0.0622
 8876SOL    HW127409   4.166   3.621   4.506  0.4509  0.5514 -1.1227
 8876SOL    HW227410   4.169   3.474   4.541  0.6113  1.4014  2.8101
 8877SOL     OW27411   6.712   6.688   3.966 -0.0791  0.1045  0.3255
 8877SOL    HW127412   6.622   6.688   3.934  0.2516 -0.4274 -0.6635
 8877SOL    HW227413   6.760   6.637   3.900  0.8197 -0.1816  1.1891
 8878SOL     OW27414   8.102   1.732   6.184  0.3788 -0.4884  0.4624
 8878SOL    HW127415   8.060   1.802   6.134 -0.8414 -1.0587  0.6436
 8878SOL    HW227416   8.188   1.768   6.208 -0.6088  1.3754  1.4650
 8879SOL     OW27417   4.082   2.099   2.581 -0.2969  0.3741 -0.6099
 8879SOL    HW127418   4.158   2.133   2.628 -0.1477  0.1670 -0.7011
 8879SOL    HW227419   4.100   2.118   2.489  0.4776 -1.2733 -0.8211
 8880SOL     OW27420   1.895   1.977   1.162 -0.0762  0.1637  0.5636
 8880SOL    HW127421   1.881   1.950   1.071  0.5403  1.3365  0.0971
 8880SOL    HW227422   1.990   1.978   1.172 -0.1242  0.6751  1.0111
 8881SOL     OW27423   4.824   5.006   2.868  0.8680  0.1784  0.0796
 8881SOL    HW127424   4.784   5.037   2.949  3.0365  0.7972  0.9826
 8881SOL    HW227425   4.893   4.945   2.896  0.0658 -1.5255 -1.4455
 8882SOL     OW27426   7.345   0.140   5.269 -0.2772 -0.3648 -0.3679
 8882SOL    HW127427   7.282   0.100   5.329  0.5343 -0.0266  0.7457
 8882SOL    HW227428   7.421   0.082   5.271  0.5372  0.6983  0.5155
 8883SOL     OW27429   6.756   2.448   6.738  0.2211  0.5676  0.4741
 8883SOL    HW127430   6.693   2.443   6.665 -0.3323  1.5919  0.8541
 8883SOL    HW227431   6.836   2.481   6.697  0.5346 -0.7309 -0.0113
 8884SOL     OW27432   2.596   5.886   6.046 -0.0766  0.6882 -0.2382
 8884SOL    HW127433   2.624   5.805   6.089 -3.5123 -1.3395 -1.4372
 8884SOL    HW227434   2.605   5.868   5.952 -0.5963  1.8313 -0.5266
 8885SOL     OW27435   4.869   4.947   1.339 -0.6318  0.2991  0.4627
 8885SOL    HW127436   4.904   4.897   1.413  0.1834 -0.1589 -0.2172
 8885SOL    HW227437   4.780   4.912   1.327 -0.8526  0.5249  1.3476
 8886SOL     OW27438   2.419   6.790   1.046  0.4037 -0.1464  0.9707
 8886SOL    HW127439   2.340   6.750   1.085 -0.7400  0.9385 -0.1480
 8886SOL    HW227440   2.487   6.725   1.060 -1.2178 -2.2145 -0.1214
 8887SOL     OW27441   4.435   4.786   3.253 -0.6671  0.0892 -0.1104
 8887SOL    HW127442   4.369   4.764   3.187 -0.1838  0.9793 -0.9153
 8887SOL    HW227443   4.408   4.871   3.286  0.1515  0.5506 -0.5810
 8888SOL     OW27444   1.950   3.236   6.972  0.4923  0.3073  0.4713
 8888SOL    HW127445   1.854   3.235   6.966  0.4349 -1.1120  1.0651
 8888SOL    HW227446   1.968   3.260   7.063  0.7500  1.6018  0.0974
 8889SOL     OW27447   1.442   8.149   2.492 -0.3405  0.4395  0.1668
 8889SOL    HW127448   1.520   8.123   2.442 -1.5056  0.0962 -1.5708
 8889SOL    HW227449   1.411   8.228   2.448 -2.5254 -0.9758 -1.0209
 8890SOL     OW27450   5.996   2.628   5.482  0.2529  0.3739  0.0141
 8890SOL    HW127451   5.992   2.567   5.409  0.2556 -0.9364  1.0742
 8890SOL    HW227452   6.064   2.593   5.539  0.2976  1.4059  0.6201
 8891SOL     OW27453   5.099   8.098   0.655 -0.0096 -0.0131 -0.5906
 8891SOL    HW127454   5.142   8.129   0.734 -1.2223  2.1664 -0.6824
 8891SOL    HW227455   5.019   8.056   0.686 -1.1139  1.9374 -0.6167
 8892SOL     OW27456   6.895   6.860   6.203 -0.2802 -0.3991  0.2144
 8892SOL    HW127457   6.922   6.852   6.112  1.5015 -0.1190  0.6863
 8892SOL    HW227458   6.973   6.890   6.249 -1.2887 -0.0020  1.7562
 8893SOL     OW27459   5.626   8.023   4.269  0.1736  0.3168 -0.0023
 8893SOL    HW127460   5.671   8.013   4.354 -0.0052 -3.8612 -0.1706
 8893SOL    HW227461   5.698   8.026   4.205  0.3294 -1.0716  0.0728
 8894SOL     OW27462   0.265   2.494   2.622  0.0315  0.1914 -0.1284
 8894SOL    HW127463   0.292   2.546   2.547  0.5527 -1.6135 -1.2765
 8894SOL    HW227464   0.298   2.406   2.603 -0.8801 -0.5951  1.6487
 8895SOL     OW27465   4.563   5.871   7.401 -0.5127 -0.7099  0.2321
 8895SOL    HW127466   4.474   5.853   7.371 -2.1395  4.2377  1.1555
 8895SOL    HW227467   4.552   5.914   7.485  2.7004  0.9470 -0.0188
 8896SOL     OW27468   7.380   7.334   5.164  0.1571 -0.6225  0.4941
 8896SOL    HW127469   7.443   7.342   5.236 -0.8306  2.0773  1.1877
 8896SOL    HW227470   7.300   7.303   5.206  0.7939 -3.5980 -0.3095
 8897SOL     OW27471   2.657   4.955   1.638  0.2020 -0.0471 -0.1077
 8897SOL    HW127472   2.583   4.955   1.699  1.8000 -2.2783  2.0970
 8897SOL    HW227473   2.711   5.029   1.666 -0.2605  0.4347 -0.4747
 8898SOL     OW27474   6.256   1.908   4.193 -0.4526 -0.2644 -0.0245
 8898SOL    HW127475   6.214   1.990   4.166 -0.3680 -0.1778  0.1055
 8898SOL    HW227476   6.185   1.845   4.200 -0.9599  0.4868  2.6829
 8899SOL     OW27477   3.091   6.276   1.738 -0.3728 -0.8492  0.0015
 8899SOL    HW127478   3.122   6.218   1.668  0.7040 -1.7329  1.1461
 8899SOL    HW227479   3.039   6.218   1.794 -0.3332 -0.4111  0.4917
 8900SOL     OW27480   3.880   3.167   3.292  0.0324  0.2373  0.1013
 8900SOL    HW127481   3.808   3.143   3.234 -0.3562 -3.6152  1.8656
 8900SOL    HW227482   3.959   3.140   3.246 -0.0329  0.0094  0.1232
 8901SOL     OW27483   1.353   4.631   5.876  0.1144 -0.0234 -0.2256
 8901SOL    HW127484   1.284   4.697   5.872  0.5502  0.4167 -0.7729
 8901SOL    HW227485   1.360   4.598   5.786 -0.9883 -1.7734  0.2909
 8902SOL     OW27486   3.001   1.074   5.305 -0.1606 -0.1930 -0.1161
 8902SOL    HW127487   2.937   1.103   5.239  1.1719 -0.1535 -1.4541
 8902SOL    HW227488   3.083   1.067   5.256  0.6329 -1.2865  1.3173
 8903SOL     OW27489   2.188   6.096   4.835 -0.2856 -0.1559  0.1149
 8903SOL    HW127490   2.149   6.151   4.902 -2.3671  0.5358 -1.5523
 8903SOL    HW227491   2.137   6.015   4.837  1.4122 -1.2676  1.1422
 8904SOL     OW27492   7.174   6.286   0.736  0.3802  0.2460  0.2510
 8904SOL    HW127493   7.228   6.350   0.783  0.2687  0.1478  0.5148
 8904SOL    HW227494   7.107   6.260   0.800 -1.2182  1.8585 -0.6688
 8905SOL     OW27495   2.886   4.102   4.674 -0.1840  0.0896 -0.3201
 8905SOL    HW127496   2.912   4.188   4.642 -1.2496  0.6311  0.2309
 8905SOL    HW227497   2.844   4.060   4.598  1.5684 -0.5266 -1.0109
 8906SOL     OW27498   0.037   1.981   3.655 -0.0267 -0.7998 -0.1154
 8906SOL    HW127499   0.012   1.892   3.628 -0.4092 -0.3788 -1.2267
 8906SOL    HW227500   0.004   2.037   3.584 -0.6460  0.3332  1.0225
 8907SOL     OW27501   6.249   5.360   3.757 -0.0344 -0.0117 -0.1441
 8907SOL    HW127502   6.322   5.363   3.818  0.1387  3.1671 -0.3620
 8907SOL    HW227503   6.182   5.307   3.802  1.8327 -1.8271  0.6297
 8908SOL     OW27504   6.897   6.595   2.159  0.1511  0.3546  0.2631
 8908SOL    HW127505   6.857   6.679   2.138  0.1963  0.3459  0.1408
 8908SOL    HW227506   6.885   6.585   2.253 -0.7504  0.0354  0.1295
 8909SOL     OW27507   6.878   2.669   4.730  0.7371 -0.2892 -0.3637
 8909SOL    HW127508   6.891   2.622   4.648  0.9713  0.0552 -0.5306
 8909SOL    HW227509   6.802   2.725   4.714  1.0176  0.0684 -0.4886
 8910SOL     OW27510   2.235   1.680   1.275 -0.3750  0.2518 -0.0559
 8910SOL    HW127511   2.148   1.665   1.312 -0.6381  1.9087  0.0684
 8910SOL    HW227512   2.225   1.661   1.182 -0.2847 -1.7062  0.2937
 8911SOL     OW27513   0.301   3.873   4.705  0.0194 -0.1146 -0.0906
 8911SOL    HW127514   0.351   3.821   4.768  0.6370 -0.3589 -0.7619
 8911SOL    HW227515   0.211   3.842   4.714 -0.2965  1.1965  2.0149
 8912SOL     OW27516   8.297   2.638   2.503 -0.1668 -0.2401 -0.4480
 8912SOL    HW127517   8.307   2.586   2.423  0.2778 -0.9134  0.0414
 8912SOL    HW227518   8.273   2.575   2.570 -2.9030  0.6323 -0.5017
 8913SOL     OW27519   3.700   3.770   2.967  0.5557  0.3880 -0.4501
 8913SOL    HW127520   3.770   3.710   2.992 -1.3167 -1.5828  0.3569
 8913SOL    HW227521   3.638   3.715   2.918 -0.2398  2.1583 -1.5247
 8914SOL     OW27522   3.005   4.246   0.341 -0.0852  0.1430 -0.3572
 8914SOL    HW127523   2.935   4.263   0.404  1.0309  2.2698  0.4076
 8914SOL    HW227524   2.968   4.270   0.256  0.0867  2.6808  0.2099
 8915SOL     OW27525   6.814   1.018   2.217 -0.0204 -1.0860 -0.9532
 8915SOL    HW127526   6.736   0.970   2.247 -0.9601 -0.4041 -2.1967
 8915SOL    HW227527   6.865   0.954   2.168  0.1536 -1.5123 -0.2250
 8916SOL     OW27528   7.283   3.462   2.577  0.3651  0.4129 -0.5699
 8916SOL    HW127529   7.199   3.483   2.619  2.0874  1.2009  2.7507
 8916SOL    HW227530   7.298   3.535   2.517  0.0801  1.9056  1.1056
 8917SOL     OW27531   0.475   5.268   5.645 -0.9451 -0.0133 -0.2654
 8917SOL    HW127532   0.453   5.255   5.737  2.4428 -0.5942  0.5870
 8917SOL    HW227533   0.513   5.184   5.617 -2.0350  0.0975 -2.2890
 8918SOL     OW27534   2.144   7.208   2.746 -0.3224  0.0306  0.7707
 8918SOL    HW127535   2.166   7.216   2.653  3.3070 -0.3647  1.4444
 8918SOL    HW227536   2.135   7.113   2.761  0.1447  0.0173  0.9933
 8919SOL     OW27537   5.569   6.949   5.580 -0.6237 -0.1325 -0.1594
 8919SOL    HW127538   5.595   6.878   5.522  2.1063 -0.7809  1.6553
 8919SOL    HW227539   5.629   7.021   5.558 -0.4364  0.0625  0.9062
 8920SOL     OW27540   3.656   3.113   3.843 -0.0856  0.0949  0.3146
 8920SOL    HW127541   3.726   3.166   3.807 -0.7183 -0.0335 -1.1655
 8920SOL    HW227542   3.682   3.023   3.825  0.1151 -0.0379  1.2006
 8921SOL     OW27543   5.345   2.004   1.132  0.0807 -0.5061  0.2921
 8921SOL    HW127544   5.430   2.042   1.153  0.1381 -0.9177  0.8125
 8921SOL    HW227545   5.285   2.045   1.195  0.1549 -1.3135  0.9054
 8922SOL     OW27546   2.042   7.127   3.749  0.0731  0.2705 -0.0222
 8922SOL    HW127547   2.096   7.050   3.767  2.4849  1.8291 -0.1571
 8922SOL    HW227548   1.982   7.099   3.679 -0.9265 -2.1854  1.6770
 8923SOL     OW27549   8.162   1.857   0.763 -0.3771  0.2688 -0.0505
 8923SOL    HW127550   8.150   1.921   0.833  1.1027 -0.5023  0.9678
 8923SOL    HW227551   8.091   1.795   0.774 -0.4036  0.3935  0.4971
 8924SOL     OW27552   1.453   3.587   6.911  0.0777  0.0226 -0.5752
 8924SOL    HW127553   1.511   3.566   6.984  0.0453 -0.7392 -0.7646
 8924SOL    HW227554   1.401   3.662   6.942 -2.1683 -2.1817  1.4309
 8925SOL     OW27555   3.319   4.564   1.885 -0.1989  0.6921  0.5377
 8925SOL    HW127556   3.412   4.554   1.864  0.1229  1.1017  1.6492
 8925SOL    HW227557   3.278   4.592   1.804  0.6612  0.5417  0.0438
 8926SOL     OW27558   6.529   2.598   3.542 -0.5401 -0.1184  0.0244
 8926SOL    HW127559   6.476   2.606   3.463 -0.1939 -0.6388 -0.2599
 8926SOL    HW227560   6.581   2.679   3.544 -0.3282 -0.2403 -0.4443
 8927SOL     OW27561   2.192   2.304   3.330  0.4986 -1.0386  0.4755
 8927SOL    HW127562   2.101   2.282   3.351  0.5647 -1.4727  0.3154
 8927SOL    HW227563   2.232   2.325   3.414 -0.2880  1.2243  0.3407
 8928SOL     OW27564   2.635   0.233   0.524  0.3294  0.4265  0.4173
 8928SOL    HW127565   2.653   0.148   0.564 -0.5145 -0.2128 -0.5076
 8928SOL    HW227566   2.615   0.291   0.597 -2.5041 -1.0295  0.9555
 8929SOL     OW27567   0.272   6.406   0.657 -0.2719 -0.0321 -0.0838
 8929SOL    HW127568   0.260   6.496   0.626 -0.7048 -0.1697 -0.3340
 8929SOL    HW227569   0.262   6.412   0.752 -0.7923  0.1149 -0.1425
 8930SOL     OW27570   0.509   3.791   0.107 -0.3714  0.5035 -0.2666
 8930SOL    HW127571   0.559   3.856   0.057 -1.7049  0.4880 -1.6952
 8930SOL    HW227572   0.435   3.840   0.144  0.1323  0.3383  1.0062
 8931SOL     OW27573   4.599   2.169   4.321 -0.4175  0.0841  0.5050
 8931SOL    HW127574   4.538   2.187   4.392 -0.4966  1.0369  0.2238
 8931SOL    HW227575   4.681   2.210   4.349 -0.3849  0.2628  0.1581
 8932SOL     OW27576   7.835   6.704   0.385  0.0700  0.2655 -0.3611
 8932SOL    HW127577   7.855   6.703   0.479 -1.0881  0.0439 -0.1024
 8932SOL    HW227578   7.784   6.783   0.372  0.3012  0.3428 -0.8353
 8933SOL     OW27579   2.571   4.278   5.915 -0.2598  0.2785 -0.0379
 8933SOL    HW127580   2.541   4.289   5.824 -0.8318  0.1714  0.1307
 8933SOL    HW227581   2.638   4.210   5.910  0.8863  1.4142 -0.6119
 8934SOL     OW27582   5.728   4.875   0.331 -0.3641 -0.5223 -0.1623
 8934SOL    HW127583   5.777   4.828   0.263 -0.0083  0.5239 -0.6442
 8934SOL    HW227584   5.795   4.901   0.394 -0.1893  1.2985 -1.0434
 8935SOL     OW27585   3.200   4.732   2.507  0.3888 -0.0555 -0.0636
 8935SOL    HW127586   3.280   4.702   2.462  0.9634  0.5264  0.5436
 8935SOL    HW227587   3.178   4.660   2.567  0.7807  0.0072  0.1610
 8936SOL     OW27588   1.709   0.140   1.023  0.3767 -0.3706 -0.0660
 8936SOL    HW127589   1.767   0.119   0.949 -0.9234 -0.4974 -1.0750
 8936SOL    HW227590   1.621   0.134   0.987 -0.2446  1.2474  1.0766
 8937SOL     OW27591   3.221   6.608   3.670  0.1048  0.3398  0.1864
 8937SOL    HW127592   3.207   6.549   3.744  1.0623 -0.5088 -0.2846
 8937SOL    HW227593   3.138   6.608   3.622 -1.1384  2.2665  2.1598
 8938SOL     OW27594   0.442   1.592   2.711 -0.9163 -0.0905  0.1682
 8938SOL    HW127595   0.392   1.673   2.710 -0.9235 -0.0965 -1.0187
 8938SOL    HW227596   0.525   1.615   2.754 -0.9937  0.4930  0.0026
 8939SOL     OW27597   0.923   7.256   5.256  0.2371  0.1085 -0.4101
 8939SOL    HW127598   0.886   7.212   5.181  1.5638 -0.3336 -0.8299
 8939SOL    HW227599   0.860   7.241   5.327  0.6304 -2.4951 -0.5197
 8940SOL     OW27600   3.206   5.523   0.778 -0.7629 -1.1804  0.0999
 8940SOL    HW127601   3.143   5.581   0.820  1.7759  0.7741  1.4837
 8940SOL    HW227602   3.165   5.498   0.695 -1.4027  4.0292 -1.4669
 8941SOL     OW27603   3.652   4.868   6.158 -0.2380 -0.8136  0.4918
 8941SOL    HW127604   3.562   4.897   6.138 -0.5570 -0.2955  2.4718
 8941SOL    HW227605   3.704   4.948   6.151 -0.2464 -0.7558  1.0637
 8942SOL     OW27606   8.127   3.179   8.040  0.8467 -0.1250  0.2228
 8942SOL    HW127607   8.055   3.238   8.019  1.6995  1.2039  0.9337
 8942SOL    HW227608   8.088   3.092   8.036 -1.1559  0.6096  1.9361
 8943SOL     OW27609   7.084   2.588   5.688 -0.1687  0.1361  0.1509
 8943SOL    HW127610   7.145   2.519   5.715 -0.0256 -0.6092 -1.9043
 8943SOL    HW227611   7.055   2.627   5.770  1.5493 -0.8055  1.2771
 8944SOL     OW27612   3.178   4.480   0.877 -0.6259  0.0877  0.1584
 8944SOL    HW127613   3.213   4.553   0.929 -0.6598  0.3792 -0.2227
 8944SOL    HW227614   3.121   4.522   0.813  0.4046 -0.1341 -0.9519
 8945SOL     OW27615   0.233   0.240   1.822  0.3142 -0.1304  0.3867
 8945SOL    HW127616   0.263   0.173   1.760  0.0115 -0.6594  0.7980
 8945SOL    HW227617   0.143   0.258   1.796 -1.7609 -4.0760  3.5848
 8946SOL     OW27618   2.646   5.702   7.619 -0.4789 -0.0986  0.3745
 8946SOL    HW127619   2.697   5.664   7.547 -1.0860 -1.3670  0.5868
 8946SOL    HW227620   2.610   5.627   7.665 -1.4772  0.7435  1.0108
 8947SOL     OW27621   7.454   7.396   6.877  0.5407 -0.0824  0.4423
 8947SOL    HW127622   7.465   7.484   6.842 -1.0954  0.6022  1.5396
 8947SOL    HW227623   7.537   7.376   6.920  1.3411  0.4334 -0.8163
 8948SOL     OW27624   4.692   7.643   0.913 -0.2844 -0.2245 -0.5136
 8948SOL    HW127625   4.776   7.667   0.951 -1.4537  0.8252  1.5925
 8948SOL    HW227626   4.695   7.547   0.907  2.6457 -0.1247 -4.6292
 8949SOL     OW27627   7.087   6.496   1.921 -1.0039 -0.0892  0.0611
 8949SOL    HW127628   7.045   6.544   1.993 -2.3343 -0.7611 -0.2306
 8949SOL    HW227629   7.147   6.436   1.965  0.4511  1.5636  0.4463
 8950SOL     OW27630   1.288   7.582   5.723  0.2007 -0.2421 -0.0230
 8950SOL    HW127631   1.259   7.538   5.803  2.3804 -0.5967  0.6273
 8950SOL    HW227632   1.341   7.656   5.754 -0.0580  0.4463 -1.1465
 8951SOL     OW27633   4.694   5.257   7.260  0.6352  0.6557 -0.1188
 8951SOL    HW127634   4.713   5.172   7.302 -0.5766  0.8839  0.9552
 8951SOL    HW227635   4.617   5.240   7.206  0.5490  1.0064 -0.1070
 8952SOL     OW27636   4.140   0.570   1.121 -0.0669  0.4901  0.5918
 8952SOL    HW127637   4.082   0.499   1.095  0.4352  0.7301 -1.2948
 8952SOL    HW227638   4.081   0.644   1.139 -0.4536  0.1980  0.5301
 8953SOL     OW27639   2.085   2.240   3.748  0.0649 -0.1824 -0.3329
 8953SOL    HW127640   2.151   2.281   3.693  0.6850 -1.1619 -0.3387
 8953SOL    HW227641   2.084   2.148   3.720 -1.4142 -0.1663 -0.4466
 8954SOL     OW27642   3.053   0.563   1.079 -0.1263 -0.7361 -0.0876
 8954SOL    HW127643   3.089   0.481   1.111 -1.9978 -0.9116  1.7862
 8954SOL    HW227644   3.038   0.615   1.158 -1.8894  0.1440 -0.9425
 8955SOL     OW27645   4.400   1.395   4.387 -0.7466  0.2296  0.0671
 8955SOL    HW127646   4.466   1.415   4.321 -0.0164 -0.4622  0.5789
 8955SOL    HW227647   4.448   1.356   4.459 -1.9533 -2.5281 -0.5024
 8956SOL     OW27648   4.849   0.792   0.885 -0.1009 -0.0398 -0.0999
 8956SOL    HW127649   4.774   0.820   0.938 -1.3644 -3.9567  0.4796
 8956SOL    HW227650   4.810   0.759   0.804  1.2090 -0.2949 -0.6537
 8957SOL     OW27651   0.796   7.639   7.290  0.2922  0.4456  0.1924
 8957SOL    HW127652   0.853   7.622   7.366  0.0711 -0.1546  0.2296
 8957SOL    HW227653   0.729   7.698   7.323  0.8278  1.0713  0.1782
 8958SOL     OW27654   0.659   2.107   7.350 -0.5448  0.3026 -0.4184
 8958SOL    HW127655   0.740   2.139   7.311 -0.4801 -0.1978 -0.7087
 8958SOL    HW227656   0.648   2.159   7.429 -0.2396  0.7641 -0.6767
 8959SOL     OW27657   6.100   2.171   0.876 -0.2226  0.1928 -0.2076
 8959SOL    HW127658   6.079   2.157   0.783 -0.0066  0.2536 -0.2687
 8959SOL    HW227659   6.182   2.123   0.889 -1.3786 -1.6889  0.5191
 8960SOL     OW27660   0.464   5.642   2.297  0.4977  0.7281  0.1241
 8960SOL    HW127661   0.526   5.702   2.256  0.6874  0.9307  0.7075
 8960SOL    HW227662   0.516   5.564   2.318  0.1418  0.1121 -1.1270
 8961SOL     OW27663   3.055   3.595   2.702  0.7580 -0.0570 -0.1013
 8961SOL    HW127664   3.119   3.524   2.707  0.7388 -0.0560  0.2175
 8961SOL    HW227665   3.074   3.649   2.779 -0.0464 -0.4124  0.3572
 8962SOL     OW27666   0.918   4.150   3.039  0.0258  0.0898  0.8250
 8962SOL    HW127667   0.948   4.205   2.967 -1.0225  0.8520  0.9463
 8962SOL    HW227668   0.940   4.199   3.118 -1.2743  0.5730  0.9232
 8963SOL     OW27669   7.686   4.881   6.540  0.3719 -0.1639 -0.0886
 8963SOL    HW127670   7.661   4.810   6.481 -2.1487  1.0426 -0.6328
 8963SOL    HW227671   7.754   4.929   6.494  0.8759 -1.2173 -0.4640
 8964SOL     OW27672   5.083   1.835   0.477 -0.1339  0.3011 -0.2474
 8964SOL    HW127673   5.127   1.829   0.562 -1.4363 -0.4100  0.4047
 8964SOL    HW227674   4.997   1.870   0.497 -0.3911  0.3140 -1.3180
 8965SOL     OW27675   0.185   5.448   3.203 -0.8924  0.2170  0.1035
 8965SOL    HW127676   0.270   5.487   3.182 -1.3380  1.8211  1.0748
 8965SOL    HW227677   0.133   5.522   3.234 -2.1086 -1.0326  1.1225
 8966SOL     OW27678   5.429   2.754   4.245  0.1082  0.1939 -0.0667
 8966SOL    HW127679   5.502   2.730   4.188  0.6618  0.2147  0.6252
 8966SOL    HW227680   5.435   2.693   4.319 -0.0891  0.7130  0.3845
 8967SOL     OW27681   7.242   7.060   7.640 -0.7092 -0.3472 -0.1280
 8967SOL    HW127682   7.240   6.981   7.694  0.5423  0.8601  1.7947
 8967SOL    HW227683   7.203   7.127   7.695  1.5462  1.1662 -0.2384
 8968SOL     OW27684   2.781   2.707   0.365  0.1760 -0.9790 -0.0764
 8968SOL    HW127685   2.716   2.725   0.433  0.7984  1.8776 -0.1296
 8968SOL    HW227686   2.740   2.642   0.309 -2.9584  1.1244 -0.4700
 8969SOL     OW27687   4.859   7.719   5.597 -0.0682  0.5494 -0.3750
 8969SOL    HW127688   4.857   7.640   5.651 -0.1395 -0.5046 -1.8318
 8969SOL    HW227689   4.768   7.733   5.571  0.1961 -0.1915 -1.8464
 8970SOL     OW27690   4.458   1.403   5.690 -0.3860 -0.3525  0.2439
 8970SOL    HW127691   4.442   1.463   5.617  0.1989  1.0089  1.1877
 8970SOL    HW227692   4.552   1.385   5.688 -0.0304  1.0702  1.6133
 8971SOL     OW27693   5.194   4.901   1.574 -0.3910  0.0831 -0.0566
 8971SOL    HW127694   5.102   4.881   1.591 -0.2084 -1.2216 -0.4365
 8971SOL    HW227695   5.194   4.992   1.546 -1.7384 -0.2340 -1.2416
 8972SOL     OW27696   6.421   6.417   3.400 -0.2641 -0.0880  0.0539
 8972SOL    HW127697   6.456   6.485   3.342  2.1592 -0.9137  0.4459
 8972SOL    HW227698   6.445   6.446   3.488 -0.5777 -0.7100  0.3485
 8973SOL     OW27699   1.353   5.418   6.728  0.0783 -0.2613  0.2341
 8973SOL    HW127700   1.393   5.340   6.688  0.2044 -0.5898  0.9905
 8973SOL    HW227701   1.331   5.390   6.817 -0.2364  0.4543  0.3816
 8974SOL     OW27702   5.892   6.559   6.668 -0.3077  0.5777  0.1690
 8974SOL    HW127703   5.882   6.623   6.738  0.7351  0.0353  0.8397
 8974SOL    HW227704   5.985   6.536   6.669 -0.3590  0.2293 -1.1054
 8975SOL     OW27705   6.119   3.475   2.649  0.1033  0.0019 -0.2860
 8975SOL    HW127706   6.152   3.428   2.572 -0.9831 -0.6426 -0.3777
 8975SOL    HW227707   6.139   3.567   2.630  0.7847 -0.2490 -0.8580
 8976SOL     OW27708   4.951   7.646   0.586 -0.1675 -0.0099 -0.0448
 8976SOL    HW127709   4.986   7.558   0.600  1.4922  0.5612 -0.3544
 8976SOL    HW227710   4.967   7.691   0.670 -2.8709 -0.5327  0.8478
 8977SOL     OW27711   3.399   3.830   1.463 -0.0896  0.9084 -0.0842
 8977SOL    HW127712   3.363   3.910   1.503 -0.2681  0.7793  0.0187
 8977SOL    HW227713   3.324   3.770   1.459  0.2797  0.3609  0.8381
 8978SOL     OW27714   4.388   7.472   5.150  0.4430 -0.0973 -0.0233
 8978SOL    HW127715   4.431   7.557   5.142  0.1140  0.1108  0.4000
 8978SOL    HW227716   4.456   7.409   5.126  1.7222  0.0598  2.7823
 8979SOL     OW27717   2.010   0.168   3.079 -0.0262 -0.1236 -0.3950
 8979SOL    HW127718   2.006   0.248   3.131  1.3645  0.3737 -1.0074
 8979SOL    HW227719   1.964   0.102   3.132  0.9328  0.4836  1.2519
 8980SOL     OW27720   5.134   1.871   2.805  0.0395 -0.1058  0.3981
 8980SOL    HW127721   5.148   1.905   2.716  1.2834  0.6438  0.8471
 8980SOL    HW227722   5.185   1.930   2.861  0.1452 -1.2021  1.4956
 8981SOL     OW27723   0.352   0.414   2.587  0.0016  0.4278 -0.3431
 8981SOL    HW127724   0.323   0.335   2.633 -0.5619 -0.0730 -1.5123
 8981SOL    HW227725   0.398   0.465   2.653  0.6766 -1.0404  0.3700
 8982SOL     OW27726   3.118   2.704   7.961  0.1021  0.3385 -0.7556
 8982SOL    HW127727   3.026   2.730   7.964  0.0755  0.1300  0.7475
 8982SOL    HW227728   3.161   2.757   8.028  0.8675 -0.3447 -0.6905
 8983SOL     OW27729   3.438   3.861   8.185  0.2936  0.2138  0.0740
 8983SOL    HW127730   3.364   3.908   8.223  0.2960  1.7790 -1.7546
 8983SOL    HW227731   3.398   3.796   8.127  0.3200 -1.5692  1.9240
 8984SOL     OW27732   3.531   6.411   1.703  0.0966  0.0944  0.3832
 8984SOL    HW127733   3.524   6.317   1.718 -0.8489 -0.1471 -1.2869
 8984SOL    HW227734   3.510   6.450   1.788 -0.9619 -1.1889  0.7488
 8985SOL     OW27735   6.337   2.464   5.859  0.2113 -0.5447 -0.4290
 8985SOL    HW127736   6.416   2.411   5.854 -0.8040 -2.2874  1.0525
 8985SOL    HW227737   6.311   2.460   5.951 -0.2391  2.1071 -0.3686
 8986SOL     OW27738   5.288   7.975   3.946 -0.4122  0.2302  0.4429
 8986SOL    HW127739   5.376   7.965   3.981 -0.4735 -0.3564  0.4358
 8986SOL    HW227740   5.230   7.962   4.022 -0.4991  0.4980  0.4249
 8987SOL     OW27741   0.433   5.846   6.811 -0.3805  0.1809 -0.3301
 8987SOL    HW127742   0.514   5.808   6.846  0.3981  1.0147 -1.1465
 8987SOL    HW227743   0.422   5.805   6.725 -0.7791  0.1388 -0.2594
 8988SOL     OW27744   1.403   7.111   0.330  0.3242 -0.1916  0.5086
 8988SOL    HW127745   1.448   7.195   0.343 -0.8977  1.1639 -2.8492
 8988SOL    HW227746   1.455   7.066   0.264 -0.8463 -0.5208 -0.2157
 8989SOL     OW27747   6.553   2.674   8.316 -0.3505  0.0933  0.7470
 8989SOL    HW127748   6.518   2.685   8.405 -0.7264 -2.3661  0.9899
 8989SOL    HW227749   6.477   2.681   8.259 -0.5058 -0.6036  0.8551
 8990SOL     OW27750   4.844   0.366   4.956  0.4401  0.4872 -0.1218
 8990SOL    HW127751   4.862   0.324   5.041 -0.8947 -0.2793 -0.2006
 8990SOL    HW227752   4.878   0.305   4.891  0.2692  0.4521 -0.1786
 8991SOL     OW27753   5.815   4.817   8.181  0.0052  0.1777  0.0088
 8991SOL    HW127754   5.754   4.889   8.167 -3.0297 -2.4119 -1.2365
 8991SOL    HW227755   5.893   4.842   8.131 -0.6853  2.7473  0.0597
 8992SOL     OW27756   7.760   2.764   3.155  0.0802  0.4025  0.2588
 8992SOL    HW127757   7.753   2.671   3.131 -0.4769  0.4671  0.1586
 8992SOL    HW227758   7.698   2.808   3.097  0.9228  0.9442 -0.2446
 8993SOL     OW27759   6.379   7.398   7.540  0.0018  0.1716  0.2007
 8993SOL    HW127760   6.328   7.319   7.522 -1.5000  1.0987  0.2275
 8993SOL    HW227761   6.460   7.366   7.580 -1.6099 -1.2391  2.5410
 8994SOL     OW27762   8.176   1.083   6.072 -0.4671  0.1799 -0.1838
 8994SOL    HW127763   8.217   1.016   6.018 -1.3698 -1.1637  0.7506
 8994SOL    HW227764   8.084   1.083   6.046 -0.9749 -0.6707  1.4730
 8995SOL     OW27765   7.437   4.014   6.977 -0.0564  0.0004 -0.6729
 8995SOL    HW127766   7.375   4.079   7.010 -1.1655 -0.0880 -2.4111
 8995SOL    HW227767   7.473   4.053   6.897 -1.2073 -1.6832 -2.1106
 8996SOL     OW27768   2.642   3.427   0.654 -0.0234 -0.0743  0.1073
 8996SOL    HW127769   2.644   3.343   0.607 -2.0380 -0.4831  0.6598
 8996SOL    HW227770   2.636   3.493   0.585  1.5732 -0.3412 -0.3331
 8997SOL     OW27771   1.714   3.194   4.901 -0.1707 -0.2924 -0.7665
 8997SOL    HW127772   1.764   3.273   4.922 -0.2274  0.1533 -2.2391
 8997SOL    HW227773   1.777   3.123   4.911  0.3103  0.1009 -0.9587
 8998SOL     OW27774   6.499   3.660   6.090  0.0634 -0.0900  0.3611
 8998SOL    HW127775   6.428   3.596   6.088 -1.0481  1.1067 -1.2632
 8998SOL    HW227776   6.578   3.608   6.080 -0.7771 -1.2485 -0.6212
 8999SOL     OW27777   7.689   5.834   1.617  0.6531  0.4845 -0.1601
 8999SOL    HW127778   7.697   5.764   1.552 -0.3726  1.0269 -0.8903
 8999SOL    HW227779   7.669   5.912   1.566  0.8336  1.1315  0.7335
 9000SOL     OW27780   0.191   0.226   7.782  0.0789 -0.3546  0.4671
 9000SOL    HW127781   0.223   0.313   7.758 -1.5617  0.2208  0.2103
 9000SOL    HW227782   0.262   0.187   7.833  0.9086  1.0662  0.4492
 9001SOL     OW27783   3.840   8.069   7.487 -0.1521 -0.0967 -0.6388
 9001SOL    HW127784   3.770   8.003   7.484  0.3850 -0.6576 -1.1388
 9001SOL    HW227785   3.800   8.149   7.453 -1.6546  0.6726  2.5564
 9002SOL     OW27786   3.797   2.563   5.373 -0.2193 -0.5037  0.4325
 9002SOL    HW127787   3.760   2.509   5.303  0.3139  0.7170 -0.8236
 9002SOL    HW227788   3.820   2.500   5.441 -1.7736 -1.6153  0.0022
 9003SOL     OW27789   1.875   6.568   7.233 -0.1278  0.5141 -0.2474
 9003SOL    HW127790   1.957   6.598   7.195 -0.3527  0.7663 -0.5388
 9003SOL    HW227791   1.818   6.551   7.157 -0.0776 -0.4347 -0.0854
 9004SOL     OW27792   4.111   0.539   3.486  0.7487  0.5663 -0.5289
 9004SOL    HW127793   4.122   0.620   3.535 -1.2857  0.0538  0.9174
 9004SOL    HW227794   4.017   0.523   3.487  0.8951 -0.8328 -2.4615
 9005SOL     OW27795   1.855   6.079   0.407  1.0705  0.6060  0.5732
 9005SOL    HW127796   1.837   6.070   0.313 -1.4371 -0.5941  1.0921
 9005SOL    HW227797   1.847   6.172   0.424  1.9394  0.8951 -0.4459
 9006SOL     OW27798   2.015   2.420   1.860 -0.1115 -0.0089  0.6436
 9006SOL    HW127799   2.047   2.340   1.817 -1.7120 -0.1420 -0.4035
 9006SOL    HW227800   2.070   2.490   1.826 -0.1681 -0.3747 -0.2314
 9007SOL     OW27801   1.733   3.224   7.286 -0.2209  0.1360 -0.1339
 9007SOL    HW127802   1.737   3.138   7.327 -0.4531 -0.3702 -1.1532
 9007SOL    HW227803   1.688   3.209   7.203 -1.4646  1.4598  0.2484
 9008SOL     OW27804   1.479   8.143   5.617 -0.0751 -0.1810 -0.4551
 9008SOL    HW127805   1.416   8.149   5.545  0.0103  0.4596 -0.4864
 9008SOL    HW227806   1.563   8.128   5.575 -0.2877 -1.6954 -0.3774
 9009SOL     OW27807   3.007   3.075   6.710 -0.3428  0.3527  0.7349
 9009SOL    HW127808   3.018   3.034   6.625 -0.8205  1.1006  0.3054
 9009SOL    HW227809   2.914   3.065   6.730 -0.0971 -0.5395  1.5589
 9010SOL     OW27810   0.870   0.953   1.063 -0.2376  0.4719  0.0335
 9010SOL    HW127811   0.865   0.921   0.972  0.5541  0.1400  0.0971
 9010SOL    HW227812   0.832   0.882   1.115  0.5701  0.0645  0.0801
 9011SOL     OW27813   1.996   2.201   0.427 -0.0262 -0.5166 -0.1114
 9011SOL    HW127814   1.943   2.270   0.467  0.1041  0.0422 -0.8843
 9011SOL    HW227815   1.955   2.185   0.342  0.1172 -1.1859 -0.0560
 9012SOL     OW27816   7.390   7.153   3.847  0.0740 -0.0587  0.1044
 9012SOL    HW127817   7.463   7.184   3.901 -0.8487 -0.3093  1.5569
 9012SOL    HW227818   7.431   7.104   3.776  1.3392  0.3092  0.5627
 9013SOL     OW27819   5.816   1.800   6.042 -0.4950 -0.0597 -0.1200
 9013SOL    HW127820   5.789   1.812   6.133  1.4742 -1.1738  0.6585
 9013SOL    HW227821   5.807   1.887   6.003 -0.4666  0.6574  1.3979
 9014SOL     OW27822   0.012   5.964   5.512  0.7994 -0.1153 -0.3115
 9014SOL    HW127823   0.012   5.994   5.603 -1.0005 -1.3259  0.1396
 9014SOL    HW227824  -0.075   5.926   5.499  0.7498  0.7007 -2.7891
 9015SOL     OW27825   5.498   4.908   0.459  0.3613  0.6361 -0.8537
 9015SOL    HW127826   5.587   4.897   0.427  0.0193  0.7368 -1.8995
 9015SOL    HW227827   5.458   4.971   0.398  0.0186  1.7954  0.4959
 9016SOL     OW27828   6.053   1.930   8.305 -0.1116 -0.4084 -0.3428
 9016SOL    HW127829   6.021   1.899   8.220 -0.3427  0.2044 -0.4880
 9016SOL    HW227830   5.974   1.942   8.358  0.0010 -0.3814 -0.1806
 9017SOL     OW27831   0.902   6.143   5.673  0.0621  0.1490  0.4676
 9017SOL    HW127832   0.873   6.234   5.660  1.3881  0.7412  1.4029
 9017SOL    HW227833   0.942   6.143   5.760 -0.7753 -1.5881  0.8872
 9018SOL     OW27834   1.703   4.684   6.524 -0.1161 -1.1919 -0.2065
 9018SOL    HW127835   1.741   4.600   6.496  1.1730 -0.5463 -0.5129
 9018SOL    HW227836   1.748   4.749   6.469 -0.8199 -0.2754  0.2878
 9019SOL     OW27837   6.997   2.148   1.584  0.3242  0.2572 -0.0560
 9019SOL    HW127838   7.070   2.210   1.590  1.9936 -1.4921 -0.7891
 9019SOL    HW227839   7.030   2.080   1.524 -2.1624 -0.3144 -0.8740
 9020SOL     OW27840   3.902   1.018   3.167 -0.4622 -0.0077  0.1484
 9020SOL    HW127841   3.811   0.988   3.170 -0.1202 -1.0310  0.6597
 9020SOL    HW227842   3.954   0.938   3.178  0.4861  0.8304  2.0672
 9021SOL     OW27843   0.627   3.447   7.391  0.3031 -0.2426  0.4247
 9021SOL    HW127844   0.561   3.418   7.328  0.0855  1.3419 -0.1186
 9021SOL    HW227845   0.659   3.366   7.431  0.1608 -1.2757 -1.4275
 9022SOL     OW27846   3.264   5.701   6.161  0.1629  0.1609  0.6357
 9022SOL    HW127847   3.174   5.729   6.180 -0.8293 -0.3992 -2.6491
 9022SOL    HW227848   3.317   5.780   6.172 -0.8411  0.7097  1.7429
 9023SOL     OW27849   6.943   3.816   1.260 -0.1818 -0.5729  0.1543
 9023SOL    HW127850   6.851   3.825   1.234  0.1386 -0.5524 -1.0180
 9023SOL    HW227851   6.951   3.870   1.339 -0.5113  1.8288 -1.3589
 9024SOL     OW27852   4.672   2.357   2.103  0.1502 -0.1264 -0.1383
 9024SOL    HW127853   4.580   2.372   2.127  0.1817 -1.1093  0.7296
 9024SOL    HW227854   4.684   2.403   2.020 -0.6616  1.4243  0.5657
 9025SOL     OW27855   8.143   8.141   3.985  0.3423 -0.0556 -0.0332
 9025SOL    HW127856   8.078   8.133   4.054  1.4487 -0.9865  0.9577
 9025SOL    HW227857   8.116   8.077   3.919  1.1240 -1.6885  1.1544
 9026SOL     OW27858   2.216   4.197   8.081  0.2733 -0.6121 -0.2440
 9026SOL    HW127859   2.208   4.274   8.137 -0.6130 -0.6316 -0.3262
 9026SOL    HW227860   2.129   4.186   8.042  0.4266 -1.5526 -0.3641
 9027SOL     OW27861   5.378   3.036   3.457 -1.0942  0.6619  0.2138
 9027SOL    HW127862   5.365   3.124   3.494  0.1477  0.4594  1.1958
 9027SOL    HW227863   5.292   2.996   3.460 -1.0021  0.4604  3.5219
 9028SOL     OW27864   0.495   5.555   1.877 -0.4052 -0.2380 -0.6536
 9028SOL    HW127865   0.470   5.462   1.876 -1.1384 -0.0465 -0.4084
 9028SOL    HW227866   0.569   5.558   1.938  0.2515 -0.8081 -1.3937
 9029SOL     OW27867   5.020   6.277   2.462  0.2214 -0.2714 -0.2317
 9029SOL    HW127868   5.097   6.284   2.518 -0.2772  1.9318  0.3073
 9029SOL    HW227869   5.050   6.307   2.376  0.3660 -1.1257 -0.4864
 9030SOL     OW27870   3.815   5.804   1.406  0.4899 -0.7403 -0.3177
 9030SOL    HW127871   3.736   5.784   1.357 -0.6770  0.4046  1.0024
 9030SOL    HW227872   3.877   5.835   1.340 -0.0055 -2.0058 -1.4173
 9031SOL     OW27873   4.712   2.818   4.396 -0.1411  0.1011  0.1340
 9031SOL    HW127874   4.703   2.725   4.418  1.5312  0.3128  1.9973
 9031SOL    HW227875   4.761   2.818   4.314  0.3509 -0.6833  0.4070
 9032SOL     OW27876   1.632   8.108   7.909  0.1150  0.7147 -0.1513
 9032SOL    HW127877   1.653   8.090   8.000  0.0344 -0.4676 -0.3500
 9032SOL    HW227878   1.546   8.151   7.912  0.4232  1.3085  0.3577
 9033SOL     OW27879   7.764   2.724   8.295 -0.3777 -0.8803 -0.2364
 9033SOL    HW127880   7.826   2.789   8.263  0.0897 -2.0066 -1.7338
 9033SOL    HW227881   7.808   2.640   8.283 -1.8678 -1.6547 -0.5849
 9034SOL     OW27882   5.412   4.837   5.762 -0.5632  0.0402  0.8040
 9034SOL    HW127883   5.450   4.779   5.827  0.5311  0.0250  0.1739
 9034SOL    HW227884   5.372   4.908   5.813  0.2953  0.0420  1.4909
 9035SOL     OW27885   5.668   8.055   7.497 -0.2746  0.3353  0.3739
 9035SOL    HW127886   5.675   8.101   7.580  0.0500 -1.4817  1.4087
 9035SOL    HW227887   5.577   8.025   7.494 -0.4972  1.0535 -0.3098
 9036SOL     OW27888   0.815   4.693   8.020 -0.5039  0.1541  0.0716
 9036SOL    HW127889   0.720   4.696   8.014 -0.4213  2.2864 -1.5622
 9036SOL    HW227890   0.839   4.605   7.992 -2.0023 -0.8733  1.8155
 9037SOL     OW27891   0.191   1.068   5.799 -0.0349 -0.1358 -0.0784
 9037SOL    HW127892   0.100   1.043   5.788 -0.6473  1.9839 -0.2360
 9037SOL    HW227893   0.213   1.042   5.888 -2.3668  3.5595  1.8402
 9038SOL     OW27894   6.950   0.662   4.454  0.4441 -0.6921 -0.8861
 9038SOL    HW127895   6.958   0.567   4.459  0.8912 -0.5975  0.7217
 9038SOL    HW227896   6.887   0.685   4.522  2.2877  0.3501  0.5591
 9039SOL     OW27897   1.336   0.043   4.475 -0.5215  0.3850 -0.2024
 9039SOL    HW127898   1.252   0.079   4.445 -1.4279 -1.2782  0.2060
 9039SOL    HW227899   1.396   0.058   4.401 -1.3513  0.9872 -0.7776
 9040SOL     OW27900   5.098   0.949   0.711  0.1696 -0.2205 -0.2588
 9040SOL    HW127901   5.190   0.926   0.703  0.8253  2.0256  0.3324
 9040SOL    HW227902   5.084   0.960   0.805 -0.7956 -0.7934 -0.3166
 9041SOL     OW27903   0.310   1.643   7.837 -0.1776 -1.2543 -0.6572
 9041SOL    HW127904   0.374   1.674   7.773  0.4030 -0.7171  0.1568
 9041SOL    HW227905   0.330   1.550   7.847  2.0119 -0.6621  1.2311
 9042SOL     OW27906   3.256   7.812   8.171  0.3545 -0.2848 -0.5009
 9042SOL    HW127907   3.212   7.882   8.220 -0.3502 -1.5471  0.7580
 9042SOL    HW227908   3.287   7.855   8.091 -1.7232  1.0576 -0.6882
 9043SOL     OW27909   7.655   5.009   3.209 -0.4868  0.1911 -0.3027
 9043SOL    HW127910   7.660   5.054   3.125 -1.5580 -0.0293 -0.4935
 9043SOL    HW227911   7.732   4.952   3.210  0.5766  1.5616 -0.3068
 9044SOL     OW27912   6.378   6.839   3.426  0.1117 -0.6841  0.1325
 9044SOL    HW127913   6.402   6.917   3.376  2.1024 -0.1777  1.7421
 9044SOL    HW227914   6.384   6.866   3.518  1.4005 -2.8465  0.7674
 9045SOL     OW27915   2.536   3.470   5.794  0.4837  0.4842 -0.1139
 9045SOL    HW127916   2.622   3.508   5.814  1.2593 -1.2039 -0.0953
 9045SOL    HW227917   2.524   3.401   5.859 -0.3345 -0.1017 -0.8515
 9046SOL     OW27918   3.616   5.639   2.299  0.2883  0.5242  0.2714
 9046SOL    HW127919   3.598   5.584   2.223  0.2358  0.5459  0.2685
 9046SOL    HW227920   3.626   5.727   2.263 -1.9365  0.9376  0.5321
 9047SOL     OW27921   5.027   1.694   5.170 -0.3835  0.0524  0.6923
 9047SOL    HW127922   5.020   1.732   5.083 -0.1763 -0.0424  0.6336
 9047SOL    HW227923   4.945   1.717   5.213 -1.3663 -1.5761 -0.1890
 9048SOL     OW27924   3.678   5.288   4.571  0.4013 -0.3175  0.0807
 9048SOL    HW127925   3.769   5.258   4.566  0.3994 -0.7273  1.7781
 9048SOL    HW227926   3.673   5.339   4.652 -0.3975  1.5748 -1.0846
 9049SOL     OW27927   2.811   3.672   4.796 -0.2418  0.0017  0.8714
 9049SOL    HW127928   2.889   3.675   4.741  0.6046 -0.1400  2.0289
 9049SOL    HW227929   2.793   3.579   4.808 -1.1549  0.0298 -0.1408
 9050SOL     OW27930   0.980   3.333   6.786  0.1976  0.0380  0.0294
 9050SOL    HW127931   1.072   3.321   6.810  0.3084  1.4990  0.4138
 9050SOL    HW227932   0.931   3.287   6.853  0.6368 -0.2492  0.1562
 9051SOL     OW27933   6.310   2.350   0.995 -0.4624 -0.5795  0.3778
 9051SOL    HW127934   6.234   2.408   1.004  0.0268 -0.0965  1.6025
 9051SOL    HW227935   6.293   2.278   1.056 -0.3749 -0.9688 -0.0486
 9052SOL     OW27936   4.727   7.921   6.119 -0.2534  0.0601 -0.0909
 9052SOL    HW127937   4.793   7.884   6.177 -0.2867 -1.2521 -0.8445
 9052SOL    HW227938   4.699   7.847   6.065 -3.2346  0.2242  1.0094
 9053SOL     OW27939   1.469   0.705   1.882 -0.2404 -0.2285 -0.4913
 9053SOL    HW127940   1.516   0.644   1.826  1.7738  1.4945 -0.8020
 9053SOL    HW227941   1.434   0.652   1.953  1.7021 -1.7016 -0.5666
 9054SOL     OW27942   0.975   0.964   3.983 -0.3883 -0.0819  0.3326
 9054SOL    HW127943   0.916   0.908   3.934  0.5531 -0.6254 -0.2221
 9054SOL    HW227944   1.062   0.925   3.969  0.1822  1.0456  0.6027
 9055SOL     OW27945   5.769   3.899   5.657 -0.1395 -0.0101  0.0516
 9055SOL    HW127946   5.863   3.897   5.672  0.1427 -1.0337 -1.5166
 9055SOL    HW227947   5.739   3.810   5.679 -0.9117  0.5696  1.4225
 9056SOL     OW27948   2.159   2.908   6.117  0.2138 -0.9516 -1.1245
 9056SOL    HW127949   2.252   2.884   6.111  0.3612 -0.2528 -1.8383
 9056SOL    HW227950   2.116   2.829   6.149  1.1984 -0.9662  0.2412
 9057SOL     OW27951   4.162   5.635   0.826 -0.1175 -0.1480  0.2716
 9057SOL    HW127952   4.161   5.613   0.920 -0.8242 -1.3692  0.0000
 9057SOL    HW227953   4.127   5.724   0.822  1.6807  0.6693  1.3137
 9058SOL     OW27954   2.564   2.740   7.641 -0.5074  0.5718  0.0352
 9058SOL    HW127955   2.646   2.692   7.652 -0.9253  0.0691  1.1933
 9058SOL    HW227956   2.498   2.682   7.680 -1.0732  1.9489  1.2149
 9059SOL     OW27957   0.516   8.229   0.914 -0.1983  0.2542 -0.0788
 9059SOL    HW127958   0.527   8.211   0.821 -1.3953 -0.1021 -0.1616
 9059SOL    HW227959   0.539   8.322   0.923 -0.1583  0.3128 -0.7405
 9060SOL     OW27960   1.439   1.284   4.596 -0.2684 -0.2541  0.2848
 9060SOL    HW127961   1.423   1.283   4.690  0.0809  1.0739  0.3862
 9060SOL    HW227962   1.476   1.371   4.579 -1.4773  0.0215 -1.2562
 9061SOL     OW27963   0.644   5.132   4.698 -0.0764  0.1914 -0.3081
 9061SOL    HW127964   0.583   5.111   4.769 -0.5063 -1.4571 -1.1101
 9061SOL    HW227965   0.591   5.124   4.619  0.7750  0.4589 -0.9091
 9062SOL     OW27966   6.742   7.196   7.977 -0.3167 -0.4358 -0.0441
 9062SOL    HW127967   6.771   7.126   7.919 -1.0619  0.4642 -1.5480
 9062SOL    HW227968   6.783   7.275   7.942 -0.9700  0.1584  0.5090
 9063SOL     OW27969   4.810   7.241   3.603 -0.0823  0.0680  0.5181
 9063SOL    HW127970   4.793   7.331   3.631  0.4434  0.4275 -0.2960
 9063SOL    HW227971   4.744   7.189   3.649 -1.3280  1.0483 -0.1038
 9064SOL     OW27972   5.049   7.580   6.182 -0.1448  0.3060  0.2071
 9064SOL    HW127973   5.091   7.609   6.101  0.4374  1.3159  0.8597
 9064SOL    HW227974   4.980   7.520   6.153 -0.0139  0.7363 -1.0382
 9065SOL     OW27975   0.656   1.613   2.870  0.4805  0.5169 -0.0709
 9065SOL    HW127976   0.693   1.597   2.957  2.3368 -1.0245 -1.0800
 9065SOL    HW227977   0.729   1.602   2.810 -0.6589  1.9748 -1.8495
 9066SOL     OW27978   4.074   6.339   3.628 -0.1610 -0.1229  0.2159
 9066SOL    HW127979   3.999   6.285   3.603 -0.2181 -0.5807  1.3413
 9066SOL    HW227980   4.126   6.346   3.547 -0.9731 -0.5093 -0.3514
 9067SOL     OW27981   7.965   7.411   1.678 -0.6805 -0.0909 -0.5647
 9067SOL    HW127982   7.979   7.484   1.618 -1.4237  0.0695 -0.5533
 9067SOL    HW227983   8.044   7.409   1.733 -0.8466  0.9836 -0.2613
 9068SOL     OW27984   8.066   1.427   4.046 -0.4231  0.8003 -0.5571
 9068SOL    HW127985   7.996   1.488   4.023 -1.0220  1.4351  2.5651
 9068SOL    HW227986   8.127   1.480   4.099  0.4483 -0.6796 -0.0349
 9069SOL     OW27987   6.404   1.126   4.957 -0.3249 -0.0531  0.1099
 9069SOL    HW127988   6.476   1.188   4.964  1.6909 -2.2396  0.0120
 9069SOL    HW227989   6.360   1.130   5.042  1.7871 -0.7951  1.3064
 9070SOL     OW27990   0.778   5.499   5.422 -0.4014  0.3176 -0.5569
 9070SOL    HW127991   0.793   5.405   5.428 -2.2219 -0.1939 -2.8477
 9070SOL    HW227992   0.739   5.522   5.507  3.1559 -0.1999  1.4289
 9071SOL     OW27993   5.060   0.854   8.193  0.0923 -0.2004  0.4062
 9071SOL    HW127994   5.039   0.761   8.181 -0.1254 -0.2243  0.9474
 9071SOL    HW227995   5.152   0.861   8.169 -0.3085 -0.2367 -1.2745
 9072SOL     OW27996   0.424   1.470   5.694  0.4892 -0.0475  0.0134
 9072SOL    HW127997   0.469   1.513   5.622 -2.6581  0.3012 -1.9150
 9072SOL    HW227998   0.437   1.376   5.678 -1.4691 -0.0465 -2.0509
 9073SOL     OW27999   0.927   2.710   0.965  0.4327 -0.1482  0.1155
 9073SOL    HW128000   1.011   2.722   0.920  0.0340  0.5782 -0.4648
 9073SOL    HW228001   0.923   2.781   1.028 -1.2640  2.0735 -2.2839
 9074SOL     OW28002   1.264   3.487   1.942  0.0996 -0.5494  0.0558
 9074SOL    HW128003   1.266   3.555   1.875 -0.1149  3.3709  3.6105
 9074SOL    HW228004   1.175   3.489   1.976  0.2632 -2.2610  0.6886
 9075SOL     OW28005   0.695   5.857   2.187  0.1130  0.1552 -0.3424
 9075SOL    HW128006   0.700   5.932   2.245 -2.0535  0.3145 -0.3143
 9075SOL    HW228007   0.661   5.892   2.105  0.0581 -0.6330 -0.6637
 9076SOL     OW28008   6.913   7.932   1.126  0.2220  0.2040 -0.2098
 9076SOL    HW128009   6.872   8.006   1.081  1.2013  1.1199  0.3755
 9076SOL    HW228010   6.998   7.921   1.083 -0.5283 -1.6353 -1.3646
 9077SOL     OW28011   0.618   7.373   7.909  0.7935  0.2489 -0.0609
 9077SOL    HW128012   0.659   7.418   7.835  0.8195 -0.6978 -0.6337
 9077SOL    HW228013   0.540   7.332   7.872  0.8689 -0.3295  0.4069
 9078SOL     OW28014   2.021   0.539   6.221  0.3066  0.0273 -0.3824
 9078SOL    HW128015   1.990   0.625   6.248  0.8739  0.0375  0.2581
 9078SOL    HW228016   1.941   0.488   6.208 -0.0230  0.5593 -0.4697
 9079SOL     OW28017   5.370   1.475   6.905  0.8410 -0.1518 -0.2287
 9079SOL    HW128018   5.407   1.493   6.991 -0.3717 -0.2105  0.3268
 9079SOL    HW228019   5.385   1.556   6.856  2.8582 -0.6166 -0.4920
 9080SOL     OW28020   6.944   1.254   1.411 -0.0361 -0.5044  0.0349
 9080SOL    HW128021   7.032   1.247   1.449 -0.2671  0.0656  0.7097
 9080SOL    HW228022   6.926   1.168   1.374  0.3771 -0.9486  0.8530
 9081SOL     OW28023   1.499   0.734   3.277 -0.2907 -0.0338 -0.0052
 9081SOL    HW128024   1.521   0.682   3.200  1.5745  1.2811 -0.4429
 9081SOL    HW228025   1.507   0.672   3.350  0.8024 -0.6470 -0.6076
 9082SOL     OW28026   4.573   5.423   1.422  0.5142  0.3179 -0.1157
 9082SOL    HW128027   4.659   5.381   1.426 -0.2416 -1.2674  0.2903
 9082SOL    HW228028   4.559   5.456   1.511  0.6023  0.3672 -0.1201
 9083SOL     OW28029   1.531   1.603   2.471  0.1721  0.0052 -0.3809
 9083SOL    HW128030   1.530   1.524   2.524 -0.3429  0.8448  0.9246
 9083SOL    HW228031   1.568   1.576   2.387  4.4263 -0.7208  1.4850
 9084SOL     OW28032   6.931   6.939   2.469  0.1284 -0.6880 -0.1804
 9084SOL    HW128033   6.908   6.939   2.562  1.0712  0.0945  0.0724
 9084SOL    HW228034   6.972   6.854   2.454  0.1678 -0.7322  0.1692
 9085SOL     OW28035   6.083   1.564   0.655  0.0106 -0.6488  0.1934
 9085SOL    HW128036   6.119   1.562   0.743 -1.1132 -0.8985  0.6686
 9085SOL    HW228037   6.101   1.477   0.619  1.8813 -0.0494 -0.4480
 9086SOL     OW28038   8.169   5.384   1.243  0.5218  0.0758  0.5763
 9086SOL    HW128039   8.240   5.417   1.188 -0.5586  0.3269 -0.7281
 9086SOL    HW228040   8.200   5.300   1.275  1.1661 -0.0943 -0.4653
 9087SOL     OW28041   4.433   4.030   0.346  0.0033 -0.0931  0.0257
 9087SOL    HW128042   4.409   4.094   0.413 -2.3307  0.2521 -1.0237
 9087SOL    HW228043   4.353   3.979   0.332  0.9856 -1.3849 -1.1761
 9088SOL     OW28044   7.288   3.351   7.049 -0.6307 -0.7108  0.2237
 9088SOL    HW128045   7.290   3.392   6.963  0.1560 -2.9607 -0.8991
 9088SOL    HW228046   7.218   3.398   7.096 -1.1257  0.5176 -1.6291
 9089SOL     OW28047   0.639   1.654   3.611  0.5068  0.1552 -0.1038
 9089SOL    HW128048   0.731   1.629   3.620  0.3626 -0.3724 -0.0261
 9089SOL    HW228049   0.605   1.596   3.544  0.8079  1.9938 -1.9505
 9090SOL     OW28050   0.140   0.192   8.192  0.6084 -0.5423  0.2281
 9090SOL    HW128051   0.170   0.117   8.141  0.4598 -0.3237 -0.1820
 9090SOL    HW228052   0.057   0.163   8.231  0.5137 -0.5659  0.0091
 9091SOL     OW28053   3.695   7.422   4.349 -0.6113 -0.1725  0.0997
 9091SOL    HW128054   3.688   7.507   4.391  0.4896 -0.4347  0.8322
 9091SOL    HW228055   3.787   7.414   4.325 -0.9434 -0.6391 -1.0856
 9092SOL     OW28056   5.860   6.541   2.041 -0.1383  0.3052  0.2054
 9092SOL    HW128057   5.910   6.622   2.045  1.2982 -0.5591  0.2800
 9092SOL    HW228058   5.923   6.475   2.012 -1.7300 -0.4279 -1.8346
 9093SOL     OW28059   5.654   0.476   3.857  0.3536 -0.6026  0.1513
 9093SOL    HW128060   5.576   0.423   3.842  0.1028 -0.4305  0.8514
 9093SOL    HW228061   5.691   0.444   3.939  0.7939 -0.4068  0.0366
 9094SOL     OW28062   4.483   6.010   7.998 -0.4353  0.5554 -0.3587
 9094SOL    HW128063   4.573   6.012   7.966  0.3648  2.4016  1.7423
 9094SOL    HW228064   4.441   6.085   7.955 -0.5229  0.5969 -0.2034
 9095SOL     OW28065   6.895   6.430   2.730 -0.2645 -0.1348  0.2080
 9095SOL    HW128066   6.952   6.394   2.661  0.0964  1.5141 -0.4243
 9095SOL    HW228067   6.954   6.483   2.784 -1.2410  2.3572 -0.9891
 9096SOL     OW28068   0.110   6.366   2.372 -0.4570 -0.0942  0.1446
 9096SOL    HW128069   0.124   6.283   2.418 -1.7901 -0.1851  0.4170
 9096SOL    HW228070   0.062   6.342   2.293 -0.4128  0.3660 -0.0280
 9097SOL     OW28071   8.098   4.409   6.224 -0.0237  0.3457 -0.4280
 9097SOL    HW128072   8.113   4.387   6.132 -0.2880  0.4812 -0.5040
 9097SOL    HW228073   8.007   4.440   6.227  0.0790  0.6311 -0.1775
 9098SOL     OW28074   0.842   3.669   1.384 -0.1148  0.0617 -0.1558
 9098SOL    HW128075   0.806   3.647   1.470 -2.0571  0.9634 -0.6699
 9098SOL    HW228076   0.885   3.754   1.396 -0.3695  0.1781 -0.0569
 9099SOL     OW28077   4.288   1.383   2.876 -0.0898  0.1666 -0.1419
 9099SOL    HW128078   4.332   1.454   2.923 -0.9147  0.2272  0.5775
 9099SOL    HW228079   4.199   1.414   2.864 -1.0751 -1.5356  2.0706
 9100SOL     OW28080   8.029   3.973   5.605  0.1559  0.0079 -0.4316
 9100SOL    HW128081   7.948   3.924   5.624  0.0297  0.8630  1.4594
 9100SOL    HW228082   8.029   4.044   5.668  2.1055  0.3987 -0.8152
 9101SOL     OW28083   0.267   0.777   5.510  0.2540 -0.4691  0.0133
 9101SOL    HW128084   0.343   0.830   5.532 -0.0516 -0.3591  0.8367
 9101SOL    HW228085   0.261   0.713   5.580  0.2032 -1.1571 -0.6011
 9102SOL     OW28086   2.704   5.145   5.223  0.1504  0.8828 -0.2230
 9102SOL    HW128087   2.702   5.239   5.204  1.7380  1.0469  0.2732
 9102SOL    HW228088   2.734   5.139   5.314 -1.7971 -0.0667  0.4054
 9103SOL     OW28089   0.419   4.029   1.336 -0.0714  0.1831 -0.0389
 9103SOL    HW128090   0.329   3.996   1.339  0.9317 -2.8673 -0.3175
 9103SOL    HW228091   0.452   4.020   1.426  0.7648 -1.3275 -0.4708
 9104SOL     OW28092   4.668   6.253   5.309  0.1083  0.0449 -0.2681
 9104SOL    HW128093   4.579   6.273   5.338  0.4617  1.9244 -0.3680
 9104SOL    HW228094   4.723   6.321   5.349  1.2457 -0.0368 -1.5913
 9105SOL     OW28095   7.008   6.006   1.186  0.2697 -0.1605 -0.0007
 9105SOL    HW128096   6.949   5.932   1.198  1.3539 -0.7338  2.4315
 9105SOL    HW228097   7.083   5.987   1.242  0.8705  2.4890  0.2479
 9106SOL     OW28098   3.094   0.151   2.191  0.1808 -0.1810  0.7575
 9106SOL    HW128099   3.050   0.073   2.157 -0.7427  0.4262  0.5152
 9106SOL    HW228100   3.167   0.117   2.242 -0.6580 -1.2399  1.3020
 9107SOL     OW28101   7.563   2.439   5.013 -0.2215 -0.5426 -1.2707
 9107SOL    HW128102   7.527   2.400   5.093 -0.2933  1.3331 -0.3223
 9107SOL    HW228103   7.489   2.484   4.973  0.2773  0.3767 -1.1942
 9108SOL     OW28104   1.889   1.956   0.083  0.0114 -0.1752  0.1004
 9108SOL    HW128105   1.945   1.886   0.117  1.3367  1.8085  2.3303
 9108SOL    HW228106   1.801   1.931   0.110  0.5959 -0.5243  1.8479
 9109SOL     OW28107   5.753   0.327   2.229  0.6770  0.5627 -0.3724
 9109SOL    HW128108   5.778   0.287   2.146  0.2584  0.9604 -0.6904
 9109SOL    HW228109   5.700   0.403   2.205 -0.0978  0.2443  0.2706
 9110SOL     OW28110   5.471   6.906   6.816 -0.1659 -0.4318  0.1798
 9110SOL    HW128111   5.447   6.984   6.865  1.9194 -0.0645  0.7142
 9110SOL    HW228112   5.532   6.859   6.874  0.4778 -1.2291 -1.0869
 9111SOL     OW28113   3.336   0.676   2.583  0.0465 -0.4326  0.0296
 9111SOL    HW128114   3.386   0.695   2.504  0.8730  0.1089  0.6628
 9111SOL    HW228115   3.249   0.713   2.568 -0.5865 -2.3609 -1.5490
 9112SOL     OW28116   2.032   4.833   5.078 -0.5665 -0.3712 -0.0508
 9112SOL    HW128117   2.093   4.907   5.069 -0.1562 -0.5200  1.3328
 9112SOL    HW228118   1.946   4.873   5.082 -0.3646  0.0260  0.4324
 9113SOL     OW28119   8.123   4.925   4.366 -0.2353 -0.4290  0.0220
 9113SOL    HW128120   8.210   4.900   4.399  0.5043  1.8182 -0.0403
 9113SOL    HW228121   8.129   4.913   4.271  0.5611  1.0289 -0.1571
 9114SOL     OW28122   8.217   0.137   8.320 -0.1196 -0.1326 -0.1279
 9114SOL    HW128123   8.218   0.119   8.414 -1.8898 -1.9987 -0.3969
 9114SOL    HW228124   8.164   0.067   8.282 -1.2969  1.7607 -2.2804
 9115SOL     OW28125   4.438   4.801   4.296  0.0143  0.5878 -0.2514
 9115SOL    HW128126   4.511   4.740   4.304 -1.3511 -0.9923  0.8745
 9115SOL    HW228127   4.472   4.872   4.241  1.9344 -0.7466 -0.8965
 9116SOL     OW28128   2.637   3.196   2.335 -0.5999  0.1484 -0.4637
 9116SOL    HW128129   2.721   3.189   2.289 -1.0602  2.0514 -1.7364
 9116SOL    HW228130   2.660   3.217   2.425  0.3107 -0.6512 -0.5024
 9117SOL     OW28131   8.110   0.860   6.371 -0.0746 -0.1091 -0.2426
 9117SOL    HW128132   8.151   0.944   6.390 -0.5345 -0.4306  2.6515
 9117SOL    HW228133   8.020   0.882   6.347  0.1335  0.2915 -0.6523
 9118SOL     OW28134   4.337   1.281   1.611  0.2460 -0.1377 -0.2609
 9118SOL    HW128135   4.314   1.357   1.665 -1.2468 -0.5314 -0.2919
 9118SOL    HW228136   4.432   1.278   1.613  0.3514  1.8304 -0.3917
 9119SOL     OW28137   3.100   5.972   7.758 -0.4381 -0.4870  0.0956
 9119SOL    HW128138   3.146   5.893   7.787  0.8936 -0.2810 -1.3165
 9119SOL    HW228139   3.018   5.971   7.807 -0.0819 -2.2896  0.7471
 9120SOL     OW28140   5.116   0.447   1.316 -0.4871  0.2835  0.5214
 9120SOL    HW128141   5.025   0.439   1.286 -0.5115 -3.5439  1.0264
 9120SOL    HW228142   5.112   0.424   1.409  1.0413 -0.5440  0.4139
 9121SOL     OW28143   8.164   0.735   7.590  0.2254 -0.5715 -0.1139
 9121SOL    HW128144   8.204   0.806   7.640  2.0859 -1.8086  0.2845
 9121SOL    HW228145   8.233   0.669   7.584 -1.9382 -3.1090  1.0228
 9122SOL     OW28146   3.443   4.862   6.577  0.0693  0.1184  0.4417
 9122SOL    HW128147   3.366   4.867   6.634  1.0130  0.9209  1.7069
 9122SOL    HW228148   3.409   4.870   6.488 -1.1380  2.6744  1.0600
 9123SOL     OW28149   4.461   0.611   4.734 -0.0753  0.3465 -0.1766
 9123SOL    HW128150   4.465   0.644   4.644  1.6856 -1.1079 -0.6978
 9123SOL    HW228151   4.552   0.588   4.754 -0.8356 -1.8570  0.9935
 9124SOL     OW28152   4.466   0.035   0.987  0.4354  0.0142 -0.2793
 9124SOL    HW128153   4.421   0.108   1.031 -1.1389 -1.8716  1.4376
 9124SOL    HW228154   4.415   0.020   0.908  0.7041  0.6788 -0.5892
 9125SOL     OW28155   1.628   7.517   6.364  0.1701 -0.3978  0.3425
 9125SOL    HW128156   1.687   7.457   6.409 -0.3350 -1.2215 -0.0780
 9125SOL    HW228157   1.669   7.533   6.279  0.3719 -0.0275  0.5056
 9126SOL     OW28158   0.536   0.066   2.602  0.0865 -0.3050 -0.0895
 9126SOL    HW128159   0.506   0.088   2.513 -1.8428 -0.3935  0.4808
 9126SOL    HW228160   0.543  -0.029   2.602 -1.4849 -0.4432  0.2723
 9127SOL     OW28161   1.000   1.572   1.896 -0.1494 -0.3281 -0.1770
 9127SOL    HW128162   1.036   1.501   1.950  0.3429  0.6870  0.8928
 9127SOL    HW228163   0.967   1.636   1.960 -0.0438  0.6729 -1.0916
 9128SOL     OW28164   3.998   4.636   5.405 -0.0165  0.4943  0.0264
 9128SOL    HW128165   4.063   4.696   5.367  0.6534  0.1573  0.5955
 9128SOL    HW228166   3.987   4.568   5.339  0.2633  0.5251 -0.0556
 9129SOL     OW28167   1.998   3.960   7.384 -0.2636  0.1461  0.1137
 9129SOL    HW128168   2.041   3.880   7.355 -1.2045 -0.2905 -0.1206
 9129SOL    HW228169   2.029   3.973   7.474 -0.6491 -0.8903  0.4159
 9130SOL     OW28170   2.462   2.947   0.520  0.3593 -0.5118 -0.4492
 9130SOL    HW128171   2.547   2.905   0.537  1.5122  1.5747 -0.7165
 9130SOL    HW228172   2.441   2.924   0.430  0.9938 -0.4924 -0.6081
 9131SOL     OW28173   0.519   3.700   0.397 -0.2280 -0.5695 -0.1833
 9131SOL    HW128174   0.507   3.716   0.303  0.2401 -3.1865 -0.7638
 9131SOL    HW228175   0.585   3.763   0.423  0.3281 -0.4002 -1.8451
 9132SOL     OW28176   7.716   0.179   7.143 -0.2289  0.3274  0.0715
 9132SOL    HW128177   7.789   0.173   7.081 -0.5173 -2.4464 -0.1267
 9132SOL    HW228178   7.750   0.142   7.224 -1.9962 -3.6022 -0.7536
 9133SOL     OW28179   0.586   3.245   5.753  0.1718 -0.1799 -0.0095
 9133SOL    HW128180   0.657   3.191   5.719 -0.7496 -0.9736 -0.7455
 9133SOL    HW228181   0.549   3.287   5.675  0.0324  0.4838  0.4043
 9134SOL     OW28182   3.506   1.939   4.001 -0.1156  0.0045 -0.2114
 9134SOL    HW128183   3.449   1.864   4.020  1.0367 -0.9923 -0.5356
 9134SOL    HW228184   3.455   2.015   4.027 -0.8623 -0.9635  1.3298
 9135SOL     OW28185   4.017   1.759   7.131  0.1391  0.4221  0.3542
 9135SOL    HW128186   4.007   1.783   7.039  1.9362 -2.7202 -0.8282
 9135SOL    HW228187   4.111   1.753   7.145 -0.0930  0.7879  2.4156
 9136SOL     OW28188   0.068   0.690   7.260 -0.0888  0.0474 -0.0539
 9136SOL    HW128189  -0.013   0.652   7.226 -0.8144  2.1395 -0.8175
 9136SOL    HW228190   0.090   0.760   7.198  0.5350  1.6296  1.8700
 9137SOL     OW28191   2.337   7.730   5.409  0.3442  1.0166  0.5724
 9137SOL    HW128192   2.249   7.715   5.376 -0.0356  0.6274  1.7280
 9137SOL    HW228193   2.376   7.792   5.347  0.1885 -0.8055 -1.4270
 9138SOL     OW28194   6.154   4.112   7.185  0.3133  0.2177 -0.7639
 9138SOL    HW128195   6.155   4.192   7.133  0.0212  0.2867 -0.6656
 9138SOL    HW228196   6.079   4.123   7.244  0.2705 -0.1265 -0.7511
 9139SOL     OW28197   1.459   1.492   6.611 -0.5908  0.1973 -0.0041
 9139SOL    HW128198   1.429   1.546   6.685 -0.7563  0.9549 -0.6064
 9139SOL    HW228199   1.378   1.463   6.569 -0.5106 -0.8035  0.4912
 9140SOL     OW28200   4.109   7.060   6.385  0.1264 -0.0448  0.3080
 9140SOL    HW128201   4.144   7.047   6.473  1.3232 -0.8104 -0.2451
 9140SOL    HW228202   4.132   7.150   6.363  0.2510 -0.0050  0.5947
 9141SOL     OW28203   3.079   2.093   6.225  0.3086 -0.1222 -0.2127
 9141SOL    HW128204   3.118   2.127   6.306  2.7694 -0.9630 -0.9674
 9141SOL    HW228205   3.091   2.162   6.161 -0.4716  0.0412 -0.1896
 9142SOL     OW28206   2.860   2.753   7.888 -0.3301 -0.1856 -0.3826
 9142SOL    HW128207   2.821   2.727   7.805 -0.5404  0.0786 -0.3671
 9142SOL    HW228208   2.790   2.800   7.934  0.3856  1.4451 -0.9005
 9143SOL     OW28209   7.067   1.255   1.768  0.5062 -0.1335  0.4878
 9143SOL    HW128210   7.023   1.183   1.723  0.2665 -0.3235  1.0299
 9143SOL    HW228211   7.000   1.295   1.822  0.3292  1.2489 -0.6820
 9144SOL     OW28212   7.696   3.338   2.346  0.2999 -0.2597  0.3038
 9144SOL    HW128213   7.772   3.283   2.365  0.9899  1.0377  1.4531
 9144SOL    HW228214   7.643   3.334   2.425 -0.2455 -0.2025 -0.0528
 9145SOL     OW28215   6.288   6.148   4.429 -0.1639 -0.5918 -0.4855
 9145SOL    HW128216   6.315   6.162   4.338 -0.9041 -0.9491 -0.7682
 9145SOL    HW228217   6.347   6.203   4.480 -1.0256  1.2073 -1.3278
 9146SOL     OW28218   0.839   4.725   8.299 -0.6563 -0.1618  0.2530
 9146SOL    HW128219   0.794   4.754   8.220 -1.5139  0.9248  1.0992
 9146SOL    HW228220   0.932   4.731   8.278 -0.8774 -0.2790 -0.7952
 9147SOL     OW28221   7.966   2.328   7.568 -0.1244  0.5371 -0.5231
 9147SOL    HW128222   7.995   2.415   7.598 -0.9598  0.4000  0.7929
 9147SOL    HW228223   8.047   2.280   7.554  0.3390  1.1943 -0.1900
 9148SOL     OW28224   4.363   2.467   4.816 -0.4016 -1.0800  0.4026
 9148SOL    HW128225   4.423   2.407   4.772  1.1983 -0.9026  2.2078
 9148SOL    HW228226   4.343   2.423   4.899  0.8979  0.8442  1.8284
 9149SOL     OW28227   0.614   6.316   1.589 -0.0931  0.3486  0.0727
 9149SOL    HW128228   0.636   6.311   1.682 -0.5256  1.0043  0.2142
 9149SOL    HW228229   0.527   6.276   1.583 -1.1661  2.5169  0.3576
 9150SOL     OW28230   3.576   7.700   3.006 -0.3350 -0.4103  0.2416
 9150SOL    HW128231   3.530   7.699   2.922  1.1182  1.8512 -0.6849
 9150SOL    HW228232   3.612   7.611   3.014 -1.8002 -1.1320 -0.7448
 9151SOL     OW28233   4.155   7.711   0.650 -0.4972 -0.0019 -0.2305
 9151SOL    HW128234   4.184   7.621   0.665  0.1389  0.2567  0.1013
 9151SOL    HW228235   4.089   7.703   0.580 -2.2538 -1.0144  1.4344
 9152SOL     OW28236   1.451   3.387   2.134 -0.3977 -0.2220  0.0161
 9152SOL    HW128237   1.382   3.402   2.069  0.8887 -0.6970 -1.5132
 9152SOL    HW228238   1.505   3.318   2.096  1.4587  0.7792  0.7196
 9153SOL     OW28239   6.322   4.832   7.847  0.5222 -0.3747  0.4511
 9153SOL    HW128240   6.253   4.769   7.825 -1.0570  1.2482  0.5014
 9153SOL    HW228241   6.396   4.807   7.793 -0.4891 -1.5172 -0.4542
 9154SOL     OW28242   4.270   5.368   4.829  0.1976 -0.7663  0.7495
 9154SOL    HW128243   4.217   5.402   4.756 -0.4419 -1.2108  0.9972
 9154SOL    HW228244   4.358   5.402   4.812 -0.2025  0.1767  0.4456
 9155SOL     OW28245   0.591   0.361   6.537 -0.7144  0.2565 -0.1493
 9155SOL    HW128246   0.601   0.304   6.460 -0.8848  1.7704 -1.3481
 9155SOL    HW228247   0.538   0.310   6.598 -2.6067 -0.1616 -2.0007
 9156SOL     OW28248   0.682   5.474   6.000  0.6035 -0.7881 -0.2920
 9156SOL    HW128249   0.700   5.380   5.991  0.0906 -0.8837 -0.3502
 9156SOL    HW228250   0.711   5.496   6.088 -0.4260 -1.2750  0.1846
 9157SOL     OW28251   6.735   5.765   8.304 -0.0593  0.0017 -0.5252
 9157SOL    HW128252   6.790   5.687   8.295  0.4465  0.1555  0.9401
 9157SOL    HW228253   6.648   5.731   8.326  0.4341 -0.1427  1.3086
 9158SOL     OW28254   3.946   5.109   4.279 -0.0894  0.0475  0.3176
 9158SOL    HW128255   3.876   5.044   4.283  1.1093 -1.3280 -0.5316
 9158SOL    HW228256   3.937   5.157   4.362 -1.0261 -1.1628  0.9601
 9159SOL     OW28257   6.656   8.075   0.224  0.1959  0.1027 -0.1543
 9159SOL    HW128258   6.618   8.079   0.312  0.2658 -3.2112  0.1184
 9159SOL    HW228259   6.581   8.078   0.165  0.0157  0.2013  0.0797
 9160SOL     OW28260   7.246   1.917   4.535 -0.0436 -0.1691 -0.5256
 9160SOL    HW128261   7.312   1.983   4.512  0.1143 -0.3838 -0.6853
 9160SOL    HW228262   7.180   1.926   4.466 -0.4255  0.3830 -0.0945
 9161SOL     OW28263   7.730   4.246   1.052  0.0865 -0.1546  0.0749
 9161SOL    HW128264   7.638   4.222   1.061 -0.2584  0.7891 -0.7403
 9161SOL    HW228265   7.772   4.168   1.017 -0.6530 -0.1853 -0.7711
 9162SOL     OW28266   4.901   4.022   8.150  0.4710 -0.0811  0.4244
 9162SOL    HW128267   4.872   3.990   8.065  2.3062 -0.7723  0.0082
 9162SOL    HW228268   4.960   4.095   8.130  0.7076 -0.0683  1.1196
 9163SOL     OW28269   3.899   0.157   6.122  0.0920 -0.0969  0.1352
 9163SOL    HW128270   3.936   0.126   6.039  0.5588  0.2432  0.2123
 9163SOL    HW228271   3.889   0.078   6.175 -0.8950 -0.4217 -0.4955
 9164SOL     OW28272   5.167   0.523   3.767 -0.1209  0.1817  0.0851
 9164SOL    HW128273   5.071   0.519   3.772 -0.0822 -0.2097  0.5877
 9164SOL    HW228274   5.184   0.579   3.691 -0.7442 -1.5309 -1.4042
 9165SOL     OW28275   2.161   4.174   1.733 -0.2073  0.1595  0.1343
 9165SOL    HW128276   2.241   4.222   1.718  0.6345 -1.9156 -3.0489
 9165SOL    HW228277   2.186   4.103   1.792  0.2077 -0.1848 -0.4469
 9166SOL     OW28278   3.497   7.399   2.004 -0.1357  0.3150  0.1247
 9166SOL    HW128279   3.419   7.399   1.949  0.8288 -0.1371 -1.3117
 9166SOL    HW228280   3.551   7.470   1.969  0.8983 -0.5818 -0.1614
 9167SOL     OW28281   8.151   1.327   4.404  0.0972  0.1141  0.3796
 9167SOL    HW128282   8.094   1.365   4.471  1.2817  0.0451  1.4675
 9167SOL    HW228283   8.179   1.403   4.351  1.3492  0.6219  1.6936
 9168SOL     OW28284   0.370   5.841   1.941  0.0015  0.1851  1.2396
 9168SOL    HW128285   0.319   5.820   2.020  0.4434  1.4281  1.8842
 9168SOL    HW228286   0.328   5.920   1.907  0.2804  0.0783  0.6390
 9169SOL     OW28287   0.354   4.815   2.731 -0.1143  0.1397 -0.3913
 9169SOL    HW128288   0.416   4.818   2.805  1.0802  0.0069 -1.3538
 9169SOL    HW228289   0.409   4.797   2.655 -1.3256  0.2930 -1.3249
 9170SOL     OW28290   6.017   0.620   0.338  0.1812  0.1061 -0.2425
 9170SOL    HW128291   6.007   0.660   0.252 -2.1197 -0.5595 -0.3660
 9170SOL    HW228292   6.034   0.693   0.398 -1.7465  1.0527 -0.7729
 9171SOL     OW28293   7.363   6.175   7.500 -0.0631  0.2410  0.3490
 9171SOL    HW128294   7.345   6.136   7.586  0.1353  0.5905  0.5546
 9171SOL    HW228295   7.455   6.202   7.505  0.5172 -1.4303 -0.6418
 9172SOL     OW28296   3.612   3.970   0.305 -0.1958  0.5912  0.2322
 9172SOL    HW128297   3.553   3.896   0.289  0.0250  0.5401 -0.3643
 9172SOL    HW228298   3.614   4.018   0.222 -1.7096  2.2703  1.0776
 9173SOL     OW28299   6.556   1.742   2.972 -0.2974 -0.0830  0.1771
 9173SOL    HW128300   6.486   1.778   3.025 -0.6124  0.0153 -0.2953
 9173SOL    HW228301   6.614   1.698   3.034 -1.6934 -1.6984  0.4074
 9174SOL     OW28302   1.584   3.415   0.312  0.4516  0.2750 -0.2630
 9174SOL    HW128303   1.671   3.456   0.317  1.0712 -0.8861 -1.0370
 9174SOL    HW228304   1.557   3.429   0.221  0.2810 -0.2418 -0.2925
 9175SOL     OW28305   0.442   8.208   3.261 -0.0599  0.3000 -0.1343
 9175SOL    HW128306   0.469   8.208   3.353  0.8006 -2.7126 -0.2838
 9175SOL    HW228307   0.519   8.177   3.213 -0.9166  0.4977 -1.7171
 9176SOL     OW28308   1.702   2.997   1.701 -0.0972  0.6178 -0.1276
 9176SOL    HW128309   1.611   3.023   1.691 -0.4120 -0.5877 -0.5125
 9176SOL    HW228310   1.750   3.053   1.640 -0.3728  2.2326  1.0724
 9177SOL     OW28311   4.411   6.631   4.736 -0.3393  0.3024 -0.0896
 9177SOL    HW128312   4.321   6.602   4.720  0.2523 -2.4981  1.0507
 9177SOL    HW228313   4.448   6.643   4.648 -0.5779 -2.9944 -0.7554
 9178SOL     OW28314   1.317   5.254   5.797 -0.2204  0.0757 -0.8169
 9178SOL    HW128315   1.234   5.206   5.795  0.5868 -1.4283  0.0412
 9178SOL    HW228316   1.362   5.221   5.874  1.8265 -0.2829 -2.1004
 9179SOL     OW28317   1.125   6.672   1.132 -0.8608  0.6428  0.1551
 9179SOL    HW128318   1.188   6.679   1.060 -1.6942  0.9442 -0.5682
 9179SOL    HW228319   1.113   6.762   1.162  1.1548  0.3216  2.2073
 9180SOL     OW28320   3.669   6.685   6.712  0.0375 -0.0716  0.3898
 9180SOL    HW128321   3.744   6.735   6.678  1.5161 -1.7541  0.9914
 9180SOL    HW228322   3.658   6.614   6.649 -1.2382  0.2642  0.2024
 9181SOL     OW28323   5.745   6.514   4.640  0.1417  0.0498 -0.0017
 9181SOL    HW128324   5.837   6.486   4.635  0.0627 -0.2509  0.1971
 9181SOL    HW228325   5.723   6.507   4.733 -0.5068 -1.2675 -0.2253
 9182SOL     OW28326   1.995   8.221   2.600  0.3696  0.0313 -0.3568
 9182SOL    HW128327   2.091   8.226   2.592  0.6571 -1.1531  1.6957
 9182SOL    HW228328   1.980   8.143   2.654 -1.7828  0.0591 -0.8453
 9183SOL     OW28329   4.307   6.943   2.428  0.2102 -0.1628  0.9857
 9183SOL    HW128330   4.332   6.970   2.517  0.9276 -0.9691  1.0441
 9183SOL    HW228331   4.380   6.970   2.373 -0.1920  0.2501  0.6515
 9184SOL     OW28332   7.206   7.540   7.069  0.1497 -0.2425 -0.2740
 9184SOL    HW128333   7.264   7.546   6.992 -1.5787  0.7657 -1.5551
 9184SOL    HW228334   7.118   7.541   7.033 -0.8026  2.6783  1.8378
 9185SOL     OW28335   2.887   4.191   7.172 -0.0489  0.0897  0.0409
 9185SOL    HW128336   2.940   4.271   7.169 -0.1001  0.1705  0.9778
 9185SOL    HW228337   2.817   4.212   7.234  0.3015 -0.8994  0.7914
 9186SOL     OW28338   1.909   0.627   2.209  0.5842 -0.2651  0.3374
 9186SOL    HW128339   1.961   0.610   2.287 -0.8655 -1.2209  1.1510
 9186SOL    HW228340   1.945   0.568   2.143  2.6780  1.4759 -0.1923
 9187SOL     OW28341   0.017   0.813   5.906 -0.3666  0.2317 -0.0479
 9187SOL    HW128342   0.094   0.778   5.861 -0.4219 -0.2432  0.2157
 9187SOL    HW228343   0.006   0.755   5.981 -1.1322  0.1470 -0.2250
 9188SOL     OW28344   4.916   3.551   4.321  0.4393  0.0130  0.2364
 9188SOL    HW128345   4.971   3.597   4.257 -0.2849 -0.4006 -0.7031
 9188SOL    HW228346   4.920   3.606   4.399  2.1314  0.0313  0.1870
 9189SOL     OW28347   3.473   4.230   2.649  0.2458 -0.1774 -0.5097
 9189SOL    HW128348   3.398   4.226   2.590  0.5756  1.1468 -1.0680
 9189SOL    HW228349   3.441   4.192   2.731 -0.7238 -0.5389 -1.0344
 9190SOL     OW28350   7.696   4.344   3.986  0.1377  0.7537  0.1232
 9190SOL    HW128351   7.668   4.252   3.989 -0.9919  0.9840 -1.7278
 9190SOL    HW228352   7.632   4.390   4.041  0.0435  0.5708  0.1684
 9191SOL     OW28353   3.669   0.561   1.642  0.2021 -0.4007  0.0834
 9191SOL    HW128354   3.709   0.627   1.586  0.0323 -0.1860  0.2116
 9191SOL    HW228355   3.575   0.571   1.627  0.0837  0.4473  1.2679
 9192SOL     OW28356   1.553   5.690   0.012 -0.4238  0.2989 -0.3132
 9192SOL    HW128357   1.608   5.667   0.087 -0.6204  1.4498  0.2040
 9192SOL    HW228358   1.560   5.615  -0.046  1.3841  0.2339 -0.0891
 9193SOL     OW28359   4.529   4.691   3.799  0.4055 -0.0528 -0.4125
 9193SOL    HW128360   4.611   4.664   3.841  0.7135  1.9308  0.3706
 9193SOL    HW228361   4.557   4.740   3.722  0.1740  3.0188  1.2888
 9194SOL     OW28362   2.380   5.203   5.312  0.5553 -0.7237 -0.2362
 9194SOL    HW128363   2.306   5.249   5.273  1.1397 -0.3769 -0.9792
 9194SOL    HW228364   2.447   5.271   5.323  0.5182 -0.8852  1.1021
 9195SOL     OW28365   7.579   2.049   0.181 -0.6625 -0.1797 -0.6017
 9195SOL    HW128366   7.607   2.128   0.133 -1.0175 -0.5673 -1.4631
 9195SOL    HW228367   7.619   2.059   0.267 -1.7673  1.5943 -0.2330
 9196SOL     OW28368   7.619   7.728   2.648 -0.3446 -0.1480  0.5249
 9196SOL    HW128369   7.586   7.818   2.649 -1.0987 -0.4121  0.0929
 9196SOL    HW228370   7.574   7.687   2.573 -0.4280 -1.0403  1.0538
 9197SOL     OW28371   6.611   6.294   4.915  0.5739 -0.1519 -0.2516
 9197SOL    HW128372   6.600   6.353   4.841  0.1571 -0.3386 -0.3428
 9197SOL    HW228373   6.697   6.317   4.952  0.0504  1.0964  0.2406
 9198SOL     OW28374   1.560   6.811   0.433  0.0100 -0.1515  0.6749
 9198SOL    HW128375   1.633   6.837   0.377  0.4134  0.6004  1.5082
 9198SOL    HW228376   1.601   6.767   0.507 -0.4723 -0.6903  0.6236
 9199SOL     OW28377   0.666   7.984   1.331  0.2617 -0.1588 -0.2980
 9199SOL    HW128378   0.710   8.064   1.304 -2.7315  2.0806  0.8690
 9199SOL    HW228379   0.618   7.956   1.253  2.4036 -1.7349 -1.1253
 9200SOL     OW28380   4.628   0.875   1.109 -0.2454  0.1568 -0.2026
 9200SOL    HW128381   4.670   0.959   1.092  1.1529 -0.3301  0.6664
 9200SOL    HW228382   4.593   0.883   1.197  1.3151 -0.6654  0.5455
 9201SOL     OW28383   3.227   3.847   4.595  0.1844  0.2568  0.4908
 9201SOL    HW128384   3.322   3.838   4.603  0.1571 -3.0725 -1.1381
 9201SOL    HW228385   3.213   3.881   4.507 -0.1695  0.8786  0.7751
 9202SOL     OW28386   1.890   2.806   2.979 -0.3987 -0.1638 -0.4051
 9202SOL    HW128387   1.903   2.783   2.887  0.4270 -3.1222  0.3528
 9202SOL    HW228388   1.979   2.818   3.013 -0.6877  0.6850  0.0730
 9203SOL     OW28389   6.774   3.047   1.466 -0.2050 -0.8506 -0.3734
 9203SOL    HW128390   6.734   3.082   1.387 -2.3690 -1.5020  0.3538
 9203SOL    HW228391   6.802   3.124   1.516  0.0489 -0.3980 -1.2036
 9204SOL     OW28392   1.550   2.118   8.080 -0.2136 -0.0407 -0.8862
 9204SOL    HW128393   1.475   2.123   8.022 -0.9983  0.4576  0.1424
 9204SOL    HW228394   1.618   2.169   8.036 -0.4226 -0.6008 -1.8807
 9205SOL     OW28395   6.140   4.690   0.997  0.2063  0.1054 -0.5988
 9205SOL    HW128396   6.200   4.616   0.990  0.0795  0.0794 -1.4633
 9205SOL    HW228397   6.109   4.705   0.908 -1.7449 -0.4335 -0.0627
 9206SOL     OW28398   5.437   2.403   5.507  0.4732  0.2135 -0.0075
 9206SOL    HW128399   5.480   2.327   5.469  0.3080 -0.3147  0.8495
 9206SOL    HW228400   5.376   2.368   5.572 -0.3025  1.0221 -0.2686
 9207SOL     OW28401   3.201   0.956   0.588 -0.1357 -0.1657 -0.2635
 9207SOL    HW128402   3.153   0.959   0.506 -0.5848  0.8443  0.0225
 9207SOL    HW228403   3.267   0.888   0.575 -0.4335 -0.2628 -1.3290
 9208SOL     OW28404   1.471   2.041   5.651 -0.3440 -0.5087  0.1381
 9208SOL    HW128405   1.423   1.962   5.676 -0.7936 -0.4474 -0.5179
 9208SOL    HW228406   1.561   2.023   5.678 -0.4753 -1.1759  0.1522
 9209SOL     OW28407   8.150   8.052   7.218 -0.0095  0.2070  0.5630
 9209SOL    HW128408   8.113   8.140   7.214  0.0222  0.2558  1.2323
 9209SOL    HW228409   8.120   8.017   7.302 -0.6541 -0.7062 -0.0182
 9210SOL     OW28410   5.324   3.558   0.447 -0.0243 -0.1830  0.2393
 9210SOL    HW128411   5.233   3.588   0.446  0.6022  1.9621  1.3161
 9210SOL    HW228412   5.371   3.623   0.395  1.2875  0.3707  1.9934
 9211SOL     OW28413   7.095   6.442   2.397  0.1480 -0.5694  0.7190
 9211SOL    HW128414   7.025   6.380   2.418 -0.9486  0.1846 -0.5339
 9211SOL    HW228415   7.127   6.412   2.312  0.1718  0.0995  0.4905
 9212SOL     OW28416   0.766   4.160   2.722 -0.1804 -0.1237 -0.4225
 9212SOL    HW128417   0.852   4.180   2.761  0.3076 -1.0557 -0.9989
 9212SOL    HW228418   0.783   4.154   2.628 -1.1170  0.8480 -0.6825
 9213SOL     OW28419   8.216   3.458   4.233 -0.0806 -0.5859  0.6779
 9213SOL    HW128420   8.155   3.501   4.174  1.7739 -0.2772 -1.1396
 9213SOL    HW228421   8.230   3.372   4.194  1.7382 -0.1094  0.1689
 9214SOL     OW28422   7.077   3.026   3.850  0.1614  0.1552  0.4949
 9214SOL    HW128423   7.001   3.082   3.859  0.3492  0.0930  3.4809
 9214SOL    HW228424   7.151   3.082   3.873  0.7816 -0.3508 -0.2139
 9215SOL     OW28425   6.534   2.645   6.163 -0.1438 -0.3180  0.3178
 9215SOL    HW128426   6.562   2.711   6.099 -0.9465  0.3649  0.6520
 9215SOL    HW228427   6.560   2.682   6.247 -1.9511  0.3292  0.6420
 9216SOL     OW28428   7.846   2.965   3.393  0.3259  0.1917  0.1657
 9216SOL    HW128429   7.894   2.887   3.367  1.9596  1.1888  0.0460
 9216SOL    HW228430   7.872   3.031   3.329 -0.0194  1.1682  1.0075
 9217SOL     OW28431   3.494   3.759   0.620 -0.0962  0.3882 -0.2292
 9217SOL    HW128432   3.581   3.790   0.595  1.0413 -1.2090  1.4324
 9217SOL    HW228433   3.462   3.714   0.542  1.6360 -1.0512 -0.1885
 9218SOL     OW28434   1.434   3.103   5.470 -0.2224 -0.4488 -0.1181
 9218SOL    HW128435   1.514   3.056   5.493 -1.0171 -1.8080 -0.0256
 9218SOL    HW228436   1.365   3.037   5.475 -1.3495  0.6775 -0.2597
 9219SOL     OW28437   5.056   4.438   6.728 -0.0125  0.2183  0.4819
 9219SOL    HW128438   5.009   4.520   6.744  0.3336  0.4434  0.3448
 9219SOL    HW228439   5.006   4.372   6.776 -0.5547  0.4329  0.2243
 9220SOL     OW28440   5.484   5.833   3.631  0.0766 -0.1967  0.2178
 9220SOL    HW128441   5.499   5.786   3.713 -0.1998  1.0992  1.0507
 9220SOL    HW228442   5.525   5.779   3.564 -0.6435 -1.8393  1.0538
 9221SOL     OW28443   3.228   4.960   2.356  0.3681 -0.1451 -0.7474
 9221SOL    HW128444   3.225   4.883   2.414  1.3778  0.3235 -0.0443
 9221SOL    HW228445   3.151   4.951   2.301  0.3744 -1.5831 -0.5664
 9222SOL     OW28446   2.024   0.742   0.866  0.0352 -0.0169 -0.0679
 9222SOL    HW128447   1.949   0.683   0.876 -0.3558 -0.1014 -2.6537
 9222SOL    HW228448   2.059   0.752   0.954 -1.6865 -1.7344  0.8938
 9223SOL     OW28449   0.946   5.851   3.194 -0.4096  0.3926  0.4400
 9223SOL    HW128450   0.966   5.764   3.160 -0.0084  0.2025  1.1519
 9223SOL    HW228451   0.857   5.869   3.162 -1.2432 -1.0664  1.8015
 9224SOL     OW28452   4.774   5.498   1.108  0.0410 -0.1340  0.2722
 9224SOL    HW128453   4.848   5.442   1.082 -0.1889  0.6322 -2.3993
 9224SOL    HW228454   4.700   5.438   1.112  0.4706 -0.6212  1.2211
 9225SOL     OW28455   3.878   1.940   2.739  0.0874  0.0581 -0.2361
 9225SOL    HW128456   3.927   1.859   2.754 -0.1059 -0.3886 -1.8374
 9225SOL    HW228457   3.941   1.999   2.697 -0.2705  0.1078 -0.7029
 9226SOL     OW28458   3.038   0.777   5.898  0.0161 -0.1195 -0.4519
 9226SOL    HW128459   3.007   0.769   5.807  0.4516 -3.6802 -0.4284
 9226SOL    HW228460   3.130   0.799   5.890  0.1867 -0.9639 -0.9157
 9227SOL     OW28461   7.879   1.487   5.298 -0.2147  0.0863 -0.1579
 9227SOL    HW128462   7.932   1.467   5.375 -3.4587 -1.5345  1.8871
 9227SOL    HW228463   7.827   1.564   5.324 -0.2416  0.5045 -1.3692
 9228SOL     OW28464   1.713   3.343   2.527  0.0839 -0.1479  0.2320
 9228SOL    HW128465   1.622   3.369   2.512  0.2198 -0.2083 -0.7328
 9228SOL    HW228466   1.721   3.338   2.623 -1.4595 -1.9993  0.3264
 9229SOL     OW28467   3.543   6.437   3.530  0.3580  0.3242 -0.4653
 9229SOL    HW128468   3.534   6.351   3.570 -2.1971  0.7248 -0.0467
 9229SOL    HW228469   3.486   6.435   3.454 -0.1997  1.8105 -0.1253
 9230SOL     OW28470   4.039   5.955   6.048  0.0164  0.2143 -0.6384
 9230SOL    HW128471   4.115   5.896   6.044  0.8211  1.2824 -2.3697
 9230SOL    HW228472   3.968   5.901   6.083  1.7217 -0.6391  1.7844
 9231SOL     OW28473   5.291   0.631   2.026 -0.3207  0.0036  0.1445
 9231SOL    HW128474   5.349   0.697   2.064  0.4449 -0.2902 -0.4863
 9231SOL    HW228475   5.204   0.657   2.055  0.0815  0.6643  0.8093
 9232SOL     OW28476   8.031   3.621   0.368 -0.5047  0.3833 -0.0422
 9232SOL    HW128477   7.974   3.582   0.433 -0.5574 -1.2363 -1.0162
 9232SOL    HW228478   8.107   3.652   0.418 -0.8324 -0.2423  0.8623
 9233SOL     OW28479   3.809   0.834   4.028 -0.2553  0.2353 -0.1112
 9233SOL    HW128480   3.720   0.847   4.060 -0.2221  2.6985 -0.8235
 9233SOL    HW228481   3.798   0.799   3.940 -0.6150  1.5649 -0.6321
 9234SOL     OW28482   2.647   1.716   4.961 -0.1940  0.2020  0.5769
 9234SOL    HW128483   2.553   1.713   4.977 -0.2167 -0.4439  0.3788
 9234SOL    HW228484   2.657   1.680   4.873  0.2743 -0.2216  0.7955
 9235SOL     OW28485   0.382   3.034   0.711  0.9730  0.6462 -0.0385
 9235SOL    HW128486   0.302   3.028   0.763  1.2141  1.3781  0.4350
 9235SOL    HW228487   0.442   2.971   0.752  1.4514  1.8114  1.1337
 9236SOL     OW28488   6.378   8.110   0.706  0.8355  0.1078  0.2405
 9236SOL    HW128489   6.291   8.078   0.731  0.3450  0.3477 -1.0801
 9236SOL    HW228490   6.437   8.038   0.728  0.0245 -0.8706 -0.7246
 9237SOL     OW28491   3.058   2.382   2.188  0.1803  0.0876 -0.2908
 9237SOL    HW128492   3.086   2.426   2.108  0.4670 -1.3103 -0.9856
 9237SOL    HW228493   3.082   2.443   2.258  0.4761  1.0678 -1.2144
 9238SOL     OW28494   5.521   3.394   7.993  0.2788  0.4275 -0.0106
 9238SOL    HW128495   5.570   3.367   7.916 -0.4738 -1.7612  0.2024
 9238SOL    HW228496   5.450   3.448   7.958  0.7844  0.6530 -0.6999
 9239SOL     OW28497   0.757   4.616   7.690 -0.2269 -0.2263 -0.6460
 9239SOL    HW128498   0.798   4.663   7.762  0.8149  1.4830 -2.2341
 9239SOL    HW228499   0.702   4.550   7.731 -0.4005  1.2812  1.6861
 9240SOL     OW28500   2.378   3.090   0.758 -0.1537  0.7929  0.5012
 9240SOL    HW128501   2.439   3.059   0.692 -0.4515  1.1285  0.0606
 9240SOL    HW228502   2.418   3.170   0.793  0.0345  0.5808  0.7793
 9241SOL     OW28503   2.061   1.292   7.137 -0.4448  0.9967 -0.5902
 9241SOL    HW128504   2.137   1.309   7.080 -0.2107 -0.6974 -0.8396
 9241SOL    HW228505   1.988   1.279   7.077 -0.2805 -0.3971 -0.5193
 9242SOL     OW28506   1.694   6.824   3.270 -0.5471 -0.3634  0.0791
 9242SOL    HW128507   1.608   6.813   3.229 -0.9625 -0.6615  1.0133
 9242SOL    HW228508   1.705   6.919   3.277 -0.1979 -0.2822 -1.2637
 9243SOL     OW28509   1.967   5.763   8.071 -0.3633 -0.1686  0.4285
 9243SOL    HW128510   1.879   5.755   8.034 -0.0078 -1.6505 -0.1768
 9243SOL    HW228511   1.991   5.854   8.056 -0.5565 -0.4758 -2.2983
 9244SOL     OW28512   4.573   6.482   6.666 -0.5386  0.0231  0.5473
 9244SOL    HW128513   4.606   6.488   6.755  2.3412  3.7176 -0.4943
 9244SOL    HW228514   4.636   6.425   6.621 -1.7627 -1.5139  0.6871
 9245SOL     OW28515   1.992   7.176   2.402  0.1981 -0.0568  0.3422
 9245SOL    HW128516   1.989   7.252   2.343  0.2441 -0.1804  0.1817
 9245SOL    HW228517   1.903   7.143   2.404  0.0411  0.3818  0.9086
 9246SOL     OW28518   5.279   0.642   7.978  0.2868 -0.1451  0.4755
 9246SOL    HW128519   5.216   0.678   7.916 -0.9330 -0.4015  1.5063
 9246SOL    HW228520   5.311   0.719   8.027 -0.9320 -0.2129  1.4371
 9247SOL     OW28521   0.605   0.640   2.795 -0.2959 -0.2879  0.3066
 9247SOL    HW128522   0.595   0.545   2.804  0.7776 -0.3936  0.6155
 9247SOL    HW228523   0.603   0.656   2.701  0.7497 -0.7875  0.1883
 9248SOL     OW28524   1.957   4.396   7.133  0.5310  0.1463 -0.2703
 9248SOL    HW128525   1.973   4.372   7.225  1.0841  0.3560 -0.3114
 9248SOL    HW228526   1.903   4.325   7.100  1.5502 -0.6954 -0.1833
 9249SOL     OW28527   7.010   6.669   7.847 -1.2901 -0.0058  0.2912
 9249SOL    HW128528   7.017   6.574   7.855 -0.9596 -0.1571 -1.5246
 9249SOL    HW228529   6.916   6.686   7.849 -1.3503 -0.3424  0.7001
 9250SOL     OW28530   4.840   4.599   3.519  0.7140  0.1354  0.1625
 9250SOL    HW128531   4.832   4.536   3.448 -2.3664 -0.0696  0.5298
 9250SOL    HW228532   4.840   4.546   3.599 -1.3415  0.4720  0.4505
 9251SOL     OW28533   1.065   7.088   0.864  0.7799 -0.0498 -0.3728
 9251SOL    HW128534   1.007   7.035   0.810 -1.4678  0.6510  1.2026
 9251SOL    HW228535   1.077   7.037   0.944  2.5603 -0.2621 -0.7309
 9252SOL     OW28536   2.595   7.984   1.196 -0.3871  0.4834  0.2593
 9252SOL    HW128537   2.501   7.983   1.178 -0.0062 -1.1744 -2.0505
 9252SOL    HW228538   2.612   8.072   1.229 -2.8994  0.4650  1.8780
 9253SOL     OW28539   6.431   7.417   2.657 -0.3463 -0.5383  0.1561
 9253SOL    HW128540   6.476   7.496   2.687  1.3754 -1.3914 -0.0563
 9253SOL    HW228541   6.496   7.348   2.666 -0.6659 -1.3576 -2.8303
 9254SOL     OW28542   1.512   6.679   1.877 -0.6552 -0.1808  0.3356
 9254SOL    HW128543   1.472   6.765   1.891 -0.3768  0.4693 -2.3440
 9254SOL    HW228544   1.438   6.619   1.866 -0.9466  0.4498 -1.4923
 9255SOL     OW28545   3.080   8.118   1.179 -0.3023  0.1286 -0.0200
 9255SOL    HW128546   3.132   8.108   1.100  1.1743  1.5041  0.7302
 9255SOL    HW228547   3.069   8.029   1.212 -0.3699 -0.3879 -1.3868
 9256SOL     OW28548   7.537   5.506   2.360  0.0487 -0.1816  0.0855
 9256SOL    HW128549   7.630   5.484   2.369 -0.3320 -1.7552  0.6339
 9256SOL    HW228550   7.528   5.592   2.401  1.4672  0.5803 -1.1235
 9257SOL     OW28551   2.507   7.181   0.205 -0.3121 -0.2347 -0.5669
 9257SOL    HW128552   2.433   7.137   0.248  0.2008  0.1135  0.7141
 9257SOL    HW228553   2.571   7.111   0.193 -0.7364 -0.4857 -1.4565
 9258SOL     OW28554   1.123   3.615   0.156  0.3070  0.6085  0.0922
 9258SOL    HW128555   1.157   3.598   0.069 -0.5038 -1.8890  0.1913
 9258SOL    HW228556   1.033   3.643   0.142 -0.5532 -1.9219  0.1279
 9259SOL     OW28557   6.427   2.108   0.237  0.1650  0.0196 -0.4839
 9259SOL    HW128558   6.424   2.182   0.298  0.0818  0.5940 -1.1732
 9259SOL    HW228559   6.521   2.093   0.223  0.2018 -0.5265  0.2588
 9260SOL     OW28560   1.587   1.898   0.045  0.4370  0.1729 -0.1481
 9260SOL    HW128561   1.565   1.980   0.001 -2.8595  0.2421  1.3034
 9260SOL    HW228562   1.545   1.831  -0.008 -0.6516 -0.0690  0.9621
 9261SOL     OW28563   0.055   1.005   0.940  0.4407  0.0698  0.1181
 9261SOL    HW128564   0.076   0.912   0.937 -0.3718 -0.1565  1.0561
 9261SOL    HW228565   0.008   1.021   0.858 -1.4015 -0.8784  0.9308
 9262SOL     OW28566   7.442   4.717   0.443  0.2302 -0.6016 -0.1110
 9262SOL    HW128567   7.401   4.635   0.417  1.1997 -0.8604 -0.8750
 9262SOL    HW228568   7.536   4.698   0.441  0.6155  1.1478 -2.5696
 9263SOL     OW28569   4.068   5.272   7.147  0.0317 -0.2832 -0.3446
 9263SOL    HW128570   4.097   5.282   7.057 -1.0958 -0.2378 -0.7234
 9263SOL    HW228571   3.975   5.296   7.145  0.1827  0.4907  0.9832
 9264SOL     OW28572   6.290   7.923   0.405  0.2847 -0.3265 -0.9118
 9264SOL    HW128573   6.369   7.879   0.436  0.6029 -0.5803 -2.0266
 9264SOL    HW228574   6.227   7.851   0.392 -0.3409 -0.0685  0.5203
 9265SOL     OW28575   6.526   3.956   5.022 -0.2672 -0.4712 -0.3889
 9265SOL    HW128576   6.475   3.883   5.059  0.1257 -0.5198  0.0705
 9265SOL    HW228577   6.576   3.916   4.951 -0.4793 -0.5317 -0.5052
 9266SOL     OW28578   5.728   0.058   7.485 -0.1055  0.0188  0.3001
 9266SOL    HW128579   5.700   0.078   7.574  1.6392  0.7368  0.7280
 9266SOL    HW228580   5.648   0.029   7.441 -0.7903 -1.4452  2.3696
 9267SOL     OW28581   2.745   4.278   5.131 -0.0839 -0.1390 -0.0748
 9267SOL    HW128582   2.794   4.308   5.208  1.8976  0.5695 -1.5151
 9267SOL    HW228583   2.769   4.186   5.121  2.1892  0.5073 -1.5116
 9268SOL     OW28584   2.303   4.758   0.379  0.1189 -0.2390 -0.2217
 9268SOL    HW128585   2.359   4.820   0.426  0.8287 -0.6894 -0.4698
 9268SOL    HW228586   2.343   4.673   0.395 -0.1966 -0.5059 -0.8371
 9269SOL     OW28587   0.222   7.611   0.868  0.0925 -0.3616 -0.1197
 9269SOL    HW128588   0.254   7.528   0.903  1.3223 -0.2269 -0.8592
 9269SOL    HW228589   0.191   7.660   0.944 -0.6102 -1.4589  0.3309
 9270SOL     OW28590   1.990   1.280   7.715 -0.0591 -0.0320 -0.0248
 9270SOL    HW128591   1.965   1.290   7.807  1.2152  0.0858  0.3360
 9270SOL    HW228592   1.923   1.326   7.666 -0.2890  0.6601  0.9097
 9271SOL     OW28593   6.760   2.748   5.761  0.1399 -0.1441  0.2678
 9271SOL    HW128594   6.717   2.827   5.794 -1.9892 -1.1241 -0.0552
 9271SOL    HW228595   6.835   2.735   5.819 -0.0387  1.5449  0.9187
 9272SOL     OW28596   1.044   6.525   4.233  0.0387  0.3057  0.1194
 9272SOL    HW128597   1.050   6.589   4.304 -0.0980 -0.1007  0.5086
 9272SOL    HW228598   1.081   6.569   4.157 -0.5041  1.0227  0.2587
 9273SOL     OW28599   6.332   7.082   3.753 -0.1104  0.0146  0.2025
 9273SOL    HW128600   6.322   7.153   3.816  0.1785 -0.9544  1.3867
 9273SOL    HW228601   6.414   7.101   3.707  0.6903 -0.2447  1.4699
 9274SOL     OW28602   3.193   2.538   8.291 -0.1047 -0.3898 -0.0774
 9274SOL    HW128603   3.251   2.544   8.367  0.3546 -0.9996 -0.3755
 9274SOL    HW228604   3.215   2.615   8.238  0.1726 -0.4232 -0.0111
 9275SOL     OW28605   1.058   4.270   4.716 -0.1977 -0.5559  0.0092
 9275SOL    HW128606   1.154   4.271   4.713 -0.1873 -1.1738  0.0044
 9275SOL    HW228607   1.035   4.351   4.761  0.2847  0.1187 -0.9444
 9276SOL     OW28608   2.188   5.638   7.958 -0.1688 -0.0629 -0.7782
 9276SOL    HW128609   2.116   5.674   8.011 -0.5294  0.9980 -1.9335
 9276SOL    HW228610   2.257   5.619   8.021 -1.1011 -0.1721  0.2449
 9277SOL     OW28611   2.584   5.026   5.836 -0.3380 -0.7596  0.9076
 9277SOL    HW128612   2.576   4.992   5.925  0.2730  0.9478  1.6575
 9277SOL    HW228613   2.656   5.090   5.841 -0.6631 -0.2199 -0.6798
 9278SOL     OW28614   0.510   4.663   7.026 -0.6266  0.0978  0.2227
 9278SOL    HW128615   0.593   4.619   7.046  0.4593  2.1742  0.5102
 9278SOL    HW228616   0.446   4.619   7.082 -0.1133 -2.6246 -1.1513
 9279SOL     OW28617   4.102   0.113   1.827 -0.6892 -0.3280 -0.1755
 9279SOL    HW128618   4.181   0.166   1.836 -1.7364  1.2865 -0.2044
 9279SOL    HW228619   4.095   0.067   1.911  0.3042 -0.5494 -0.2004
 9280SOL     OW28620   3.739   6.410   2.247 -0.5031 -0.1792 -0.3971
 9280SOL    HW128621   3.790   6.407   2.167  0.3628 -1.2811  0.1726
 9280SOL    HW228622   3.797   6.452   2.311 -1.2907  0.9666 -0.3869
 9281SOL     OW28623   5.296   2.691   5.593  0.6965 -0.5925 -0.2083
 9281SOL    HW128624   5.214   2.736   5.575 -0.2877 -2.1068  0.2941
 9281SOL    HW228625   5.341   2.688   5.509 -1.6061 -3.2238 -1.5129
 9282SOL     OW28626   4.514   7.720   3.429 -0.0585  0.1578 -0.1762
 9282SOL    HW128627   4.592   7.734   3.482 -1.1037 -0.0487  1.5028
 9282SOL    HW228628   4.510   7.625   3.417  0.7106  0.2719 -1.5284
 9283SOL     OW28629   7.903   2.991   7.173 -0.0794  0.5106  0.4136
 9283SOL    HW128630   7.946   2.910   7.144  0.6164  0.7698  0.6943
 9283SOL    HW228631   7.826   2.999   7.116  0.0048 -0.1881  0.1849
 9284SOL     OW28632   8.030   3.324   5.412  0.1355 -0.1715  0.2624
 9284SOL    HW128633   8.018   3.347   5.505  2.3411 -0.5359  0.6909
 9284SOL    HW228634   7.958   3.265   5.393  0.2871 -1.0298  2.1061
 9285SOL     OW28635   3.764   0.182   3.505  0.0817  0.0616 -0.2722
 9285SOL    HW128636   3.768   0.170   3.600  2.1940 -2.9038 -0.6010
 9285SOL    HW228637   3.792   0.272   3.491  1.2214  0.0910  1.8470
 9286SOL     OW28638   4.679   7.702   0.367  0.0630 -0.2831  0.5229
 9286SOL    HW128639   4.661   7.694   0.460 -0.7924 -1.8719  0.2543
 9286SOL    HW228640   4.766   7.663   0.357 -0.4245 -1.4105  0.4882
 9287SOL     OW28641   6.762   7.554   7.522  0.0169 -0.2607 -0.2923
 9287SOL    HW128642   6.784   7.482   7.463  0.9073  0.8090 -1.3230
 9287SOL    HW228643   6.764   7.632   7.466 -1.5097  0.5187  0.6547
 9288SOL     OW28644   0.494   1.749   1.074 -0.0543 -0.1692  0.9393
 9288SOL    HW128645   0.481   1.750   0.979 -0.9400  1.3487  1.0484
 9288SOL    HW228646   0.523   1.660   1.093  0.9563 -0.2749 -0.8502
 9289SOL     OW28647   7.411   7.127   6.357  0.3819  0.3023  0.0250
 9289SOL    HW128648   7.443   7.037   6.368  1.5137  0.5989 -0.6577
 9289SOL    HW228649   7.367   7.147   6.439  1.1053 -0.4841  0.6225
 9290SOL     OW28650   1.385   1.813   2.208 -0.2260  0.6246  0.1279
 9290SOL    HW128651   1.465   1.809   2.260 -1.5668  3.1476  2.6634
 9290SOL    HW228652   1.371   1.906   2.192 -2.5796  0.2610 -0.3191
 9291SOL     OW28653   3.884   7.610   7.472  0.6479 -0.3311 -0.5117
 9291SOL    HW128654   3.831   7.656   7.407  1.8416  0.1110 -1.1970
 9291SOL    HW228655   3.957   7.573   7.422  1.0794 -0.7832  0.4294
 9292SOL     OW28656   1.950   3.415   7.445  0.0467 -0.3684 -0.1674
 9292SOL    HW128657   1.885   3.358   7.403 -2.0377  1.5420  0.2728
 9292SOL    HW228658   1.931   3.408   7.538  1.4062 -0.7968  0.0953
 9293SOL     OW28659   1.440   4.784   1.050  0.2447 -0.6271  0.1473
 9293SOL    HW128660   1.487   4.720   1.103  0.5929 -0.5438 -0.0553
 9293SOL    HW228661   1.509   4.836   1.008 -0.0258  0.6230  1.1896
 9294SOL     OW28662   5.584   0.286   2.998  0.1677  0.4935 -0.4880
 9294SOL    HW128663   5.632   0.367   3.013  0.1525  0.5181 -0.5715
 9294SOL    HW228664   5.650   0.222   2.972  0.4414 -0.0011  1.3099
 9295SOL     OW28665   2.308   6.759   5.051 -0.0367 -0.0249 -0.3522
 9295SOL    HW128666   2.326   6.828   5.115  2.3473 -0.8101 -0.0709
 9295SOL    HW228667   2.372   6.774   4.981  0.4396 -1.8161 -0.3558
 9296SOL     OW28668   1.943   1.469   3.800  0.3402  0.0565 -0.9546
 9296SOL    HW128669   2.013   1.502   3.744  1.5835 -0.3921  0.2736
 9296SOL    HW228670   1.951   1.520   3.881  1.6260 -2.4098  0.5962
 9297SOL     OW28671   7.144   6.877   3.586  0.2093  1.1314  0.1332
 9297SOL    HW128672   7.120   6.790   3.555 -2.2066  1.5633  0.6429
 9297SOL    HW228673   7.178   6.922   3.508  1.0582 -0.0965 -0.2274
 9298SOL     OW28674   6.978   1.876   0.037 -0.3911  0.0431 -0.3442
 9298SOL    HW128675   6.975   1.896  -0.056 -1.8023  0.9481 -0.1375
 9298SOL    HW228676   6.991   1.961   0.080 -2.0384 -0.0271  0.3655
 9299SOL     OW28677   3.872   7.137   5.520 -0.9992  1.0195 -0.0788
 9299SOL    HW128678   3.961   7.137   5.554 -0.1977 -0.0324 -2.0259
 9299SOL    HW228679   3.819   7.101   5.591  0.2290  0.9668  0.8484
 9300SOL     OW28680   3.196   6.423   0.590 -0.0751  0.3173  0.0165
 9300SOL    HW128681   3.186   6.497   0.649 -1.7905 -1.2418  1.8343
 9300SOL    HW228682   3.190   6.346   0.646  0.0208 -1.2416 -1.9827
 9301SOL     OW28683   5.407   1.955   0.549  0.5703  0.1886 -0.4098
 9301SOL    HW128684   5.322   1.975   0.509  0.4429  0.3775 -0.0479
 9301SOL    HW228685   5.391   1.875   0.599 -0.1030  1.5887  1.7898
 9302SOL     OW28686   0.964   5.571   2.403 -0.3558 -0.1466  0.1784
 9302SOL    HW128687   0.899   5.565   2.474 -0.1449 -3.1777  0.2682
 9302SOL    HW228688   0.912   5.589   2.325 -1.6626 -3.7872  0.0262
 9303SOL     OW28689   4.518   5.736   0.062  0.0654  0.6213 -0.0877
 9303SOL    HW128690   4.568   5.732  -0.019 -0.2398 -1.7115 -0.2322
 9303SOL    HW228691   4.427   5.743   0.034  0.0374  1.0377  0.0942
 9304SOL     OW28692   4.344   1.714   1.293  0.5253  0.1074 -0.2174
 9304SOL    HW128693   4.421   1.681   1.247  0.0344 -1.2858 -0.0855
 9304SOL    HW228694   4.372   1.722   1.384  0.8589  0.7930 -0.3700
 9305SOL     OW28695   6.718   4.120   0.588 -0.5590  0.2062  0.6165
 9305SOL    HW128696   6.753   4.162   0.509 -0.1986 -2.1841 -0.5920
 9305SOL    HW228697   6.623   4.129   0.580 -0.4798  1.1086  0.5968
 9306SOL     OW28698   0.820   4.241   7.639  0.1106  0.3353 -0.1019
 9306SOL    HW128699   0.753   4.254   7.706 -0.5627 -3.3356  0.1556
 9306SOL    HW228700   0.774   4.254   7.556  0.3135  2.3313  0.0475
 9307SOL     OW28701   3.321   8.117   5.472 -0.2922 -0.0856  0.6052
 9307SOL    HW128702   3.248   8.166   5.511 -0.9494  0.2898 -1.0309
 9307SOL    HW228703   3.371   8.086   5.548 -1.3930  0.7789  1.7436
 9308SOL     OW28704   6.611   7.745   4.661 -0.5100  0.4808  0.6154
 9308SOL    HW128705   6.685   7.782   4.614  0.0903 -0.9165  0.4217
 9308SOL    HW228706   6.586   7.813   4.724 -0.0647  1.5722 -0.3533
 9309SOL     OW28707   5.029   6.845   2.443  0.2658  0.1311  0.2594
 9309SOL    HW128708   5.020   6.826   2.536  0.8171 -0.8128  0.1361
 9309SOL    HW228709   4.946   6.816   2.404 -0.4454  1.6183  0.5947
 9310SOL     OW28710   2.387   5.095   4.734 -0.5937  0.0868  0.6261
 9310SOL    HW128711   2.303   5.085   4.688 -0.6445 -1.5500  1.0402
 9310SOL    HW228712   2.374   5.051   4.818  1.0224 -1.2001  0.2482
 9311SOL     OW28713   1.197   4.329   0.192 -0.1075 -0.1372 -0.3440
 9311SOL    HW128714   1.159   4.388   0.257 -1.1904  1.5597 -2.3602
 9311SOL    HW228715   1.158   4.244   0.211 -1.3950  0.5989  0.4678
 9312SOL     OW28716   5.519   2.750   7.502  0.6411 -0.1232 -0.1727
 9312SOL    HW128717   5.457   2.816   7.470 -0.0723 -1.2117 -1.0916
 9312SOL    HW228718   5.469   2.694   7.560  0.7297 -1.0516 -0.9739
 9313SOL     OW28719   4.170   3.952   2.279  0.1885  0.1392 -0.7827
 9313SOL    HW128720   4.107   3.904   2.224  0.7708 -0.4837 -0.9162
 9313SOL    HW228721   4.240   3.977   2.219  1.2790 -1.3424 -0.1649
 9314SOL     OW28722   2.605   4.310   4.709  0.3884  0.1862  0.1470
 9314SOL    HW128723   2.585   4.249   4.638 -0.0641 -1.2776  1.4930
 9314SOL    HW228724   2.688   4.351   4.682  0.9655 -1.3695 -0.5852
 9315SOL     OW28725   3.713   0.970   6.586  0.4457  0.1463  0.0833
 9315SOL    HW128726   3.748   1.011   6.665 -1.1939  3.6268 -0.7786
 9315SOL    HW228727   3.775   0.995   6.517 -0.1796  0.5776 -0.3375
 9316SOL     OW28728   0.494   7.240   3.977 -0.2015 -0.4169  0.8676
 9316SOL    HW128729   0.478   7.289   4.057 -2.7317 -0.8282  0.7085
 9316SOL    HW228730   0.587   7.251   3.960  0.0071  1.3354  2.7623
 9317SOL     OW28731   4.785   0.883   2.796  0.0305 -0.2968 -0.0545
 9317SOL    HW128732   4.729   0.950   2.757 -0.7767 -0.8057  0.2144
 9317SOL    HW228733   4.753   0.875   2.886 -0.8558 -2.0588 -0.4803
 9318SOL     OW28734   2.175   2.622   2.228 -0.0023 -0.1255 -0.0477
 9318SOL    HW128735   2.102   2.632   2.167 -0.5804 -3.2265 -0.0147
 9318SOL    HW228736   2.246   2.584   2.176 -0.4639 -2.7243  1.0609
 9319SOL     OW28737   4.794   6.924   7.172  0.2329 -0.4253  0.3460
 9319SOL    HW128738   4.739   6.971   7.110  0.8802  0.0739  0.1286
 9319SOL    HW228739   4.757   6.945   7.258 -1.0007 -1.5658  0.1144
 9320SOL     OW28740   2.087   3.481   4.211 -0.1484 -0.0910  0.2600
 9320SOL    HW128741   2.129   3.401   4.243  1.6732 -0.6723 -3.0819
 9320SOL    HW228742   2.025   3.451   4.146 -1.7143  1.1385  1.1314
 9321SOL     OW28743   1.583   2.170   5.205  0.0198 -0.4690  0.3877
 9321SOL    HW128744   1.517   2.123   5.257 -2.0522  0.7027 -1.0093
 9321SOL    HW228745   1.559   2.262   5.214 -0.3062 -0.1971 -2.3687
 9322SOL     OW28746   7.359   2.070   7.718 -0.4229 -0.5169  0.8797
 9322SOL    HW128747   7.291   2.056   7.785  0.5819  0.7849  2.2400
 9322SOL    HW228748   7.376   1.983   7.684 -1.9562 -1.0346  1.3204
 9323SOL     OW28749   0.589   5.730   4.252  0.5429 -0.4691 -0.5458
 9323SOL    HW128750   0.614   5.823   4.249 -0.7169 -0.0579  0.5011
 9323SOL    HW228751   0.652   5.689   4.310 -0.5764  0.3636  1.3483
 9324SOL     OW28752   3.920   4.244   2.068  0.3185 -0.2821 -0.1911
 9324SOL    HW128753   3.916   4.174   2.133  1.8318  0.1233  0.3843
 9324SOL    HW228754   3.959   4.203   1.991 -0.3839 -0.4770 -0.4474
 9325SOL     OW28755   1.926   0.536   1.603 -0.2055 -0.2590 -0.5160
 9325SOL    HW128756   1.994   0.561   1.540 -0.3895  2.2787  0.1956
 9325SOL    HW228757   1.844   0.555   1.557 -0.4677 -2.1397 -0.9075
 9326SOL     OW28758   8.308   2.825   7.316  0.0620 -0.3021 -0.1179
 9326SOL    HW128759   8.269   2.812   7.229  1.3298 -1.0211 -0.6155
 9326SOL    HW228760   8.357   2.745   7.333 -0.2584 -0.2156  1.3357
 9327SOL     OW28761   4.468   5.529   3.144 -0.5068  0.0174 -0.7662
 9327SOL    HW128762   4.482   5.602   3.204 -0.7163 -0.5422 -0.0211
 9327SOL    HW228763   4.552   5.517   3.099 -0.0610 -0.1744  0.1084
 9328SOL     OW28764   6.795   6.430   1.465  0.1828 -0.3234 -0.2232
 9328SOL    HW128765   6.751   6.391   1.540  0.6290 -0.4178 -0.0042
 9328SOL    HW228766   6.868   6.479   1.503 -0.8941  1.5163 -0.4090
 9329SOL     OW28767   7.788   6.653   3.115  0.2104  0.5110 -0.6175
 9329SOL    HW128768   7.742   6.687   3.192 -0.1147 -0.3083 -0.4374
 9329SOL    HW228769   7.831   6.729   3.077 -1.0527  1.2470 -0.6246
 9330SOL     OW28770   1.567   7.449   0.776 -0.3482  0.2044  0.6093
 9330SOL    HW128771   1.519   7.491   0.847 -1.0421 -1.5647  1.2328
 9330SOL    HW228772   1.594   7.364   0.811  0.2859 -0.2491 -0.8702
 9331SOL     OW28773   2.902   3.027   8.233  0.0877 -0.2396 -0.2317
 9331SOL    HW128774   2.822   3.074   8.254  0.1626  0.0843 -0.6644
 9331SOL    HW228775   2.969   3.067   8.289 -0.0144 -0.3852 -0.0051
 9332SOL     OW28776   3.023   2.402   3.870 -0.1940  0.3228 -0.3847
 9332SOL    HW128777   2.967   2.417   3.946 -0.8457 -0.9566 -0.5929
 9332SOL    HW228778   3.111   2.391   3.908 -0.3916  0.3933  0.1093
 9333SOL     OW28779   1.793   2.442   4.852  0.1838 -0.3922 -0.0646
 9333SOL    HW128780   1.846   2.363   4.844  0.7726  0.1057 -1.3688
 9333SOL    HW228781   1.791   2.479   4.763 -0.3240  0.8932  0.4548
 9334SOL     OW28782   6.067   1.343   3.423 -0.1066 -0.0618 -0.3141
 9334SOL    HW128783   6.043   1.411   3.487  0.2652 -0.5645  0.3719
 9334SOL    HW228784   6.042   1.380   3.339  0.0753  0.9317  0.0490
 9335SOL     OW28785   0.410   2.569   0.071  0.1410  0.0393  0.2305
 9335SOL    HW128786   0.407   2.553   0.165  1.1059 -1.6677  0.0095
 9335SOL    HW228787   0.374   2.490   0.031  1.7556 -0.2014 -0.8710
 9336SOL     OW28788   2.461   5.791   2.268  0.1699  0.3226 -0.2719
 9336SOL    HW128789   2.383   5.753   2.226  0.7343 -0.9151 -0.2285
 9336SOL    HW228790   2.518   5.816   2.196  0.3360 -0.0806 -0.2826
 9337SOL     OW28791   2.741   4.810   3.735  0.0088 -0.1036  0.0533
 9337SOL    HW128792   2.794   4.731   3.725 -0.8527 -0.5445 -1.3305
 9337SOL    HW228793   2.691   4.816   3.653 -0.6478  1.3556  0.5231
 9338SOL     OW28794   1.110   2.308   3.740 -0.0177  0.0355 -0.0094
 9338SOL    HW128795   1.068   2.394   3.731 -0.3319 -0.1433 -0.2839
 9338SOL    HW228796   1.202   2.327   3.755  0.2316  0.3922 -1.8705
 9339SOL     OW28797   7.185   3.021   2.888  0.0151  0.0925  0.2969
 9339SOL    HW128798   7.233   3.023   2.970  0.1383  0.6753  0.2116
 9339SOL    HW228799   7.095   3.000   2.913 -0.1200  1.0771  0.6637
 9340SOL     OW28800   6.882   3.075   3.568 -0.0175 -0.1235 -0.4965
 9340SOL    HW128801   6.905   3.168   3.565 -0.2587 -0.0255  0.2529
 9340SOL    HW228802   6.960   3.033   3.606 -0.0009 -0.1905 -0.6059
 9341SOL     OW28803   5.079   2.723   4.522 -0.7091  0.0057  0.3597
 9341SOL    HW128804   5.078   2.817   4.507 -2.9566  0.3367  2.0565
 9341SOL    HW228805   5.082   2.713   4.617  0.7140 -1.7019  0.2020
 9342SOL     OW28806   5.671   0.764   3.589  0.5497 -0.0557 -0.0301
 9342SOL    HW128807   5.634   0.845   3.553  1.0386  0.0764 -0.2407
 9342SOL    HW228808   5.627   0.695   3.540  0.2745  0.0893  0.0110
 9343SOL     OW28809   2.005   5.905   2.090 -0.1504 -0.5761 -0.7790
 9343SOL    HW128810   1.990   5.945   2.176 -1.4429  0.9138 -1.6381
 9343SOL    HW228811   2.093   5.934   2.065  0.2752 -1.1097  0.0663
 9344SOL     OW28812   0.313   7.707   2.150 -0.5769  0.3406 -0.1204
 9344SOL    HW128813   0.287   7.793   2.116 -1.1658  0.0332 -0.4809
 9344SOL    HW228814   0.295   7.647   2.077  1.3574  0.1146 -0.4687
 9345SOL     OW28815   1.853   8.014   0.029 -0.2089 -0.3712  0.3807
 9345SOL    HW128816   1.860   8.072   0.105 -0.3642  0.9383 -0.5781
 9345SOL    HW228817   1.901   7.935   0.055  0.2550  0.2869  1.6073
 9346SOL     OW28818   7.489   2.044   6.300  0.6496 -0.2694 -0.1355
 9346SOL    HW128819   7.424   2.035   6.370 -0.9162  0.6277 -1.4034
 9346SOL    HW228820   7.569   2.008   6.337 -0.3047 -0.4796  1.8585
 9347SOL     OW28821   2.357   1.643   6.920 -0.8188  0.1026  0.2059
 9347SOL    HW128822   2.328   1.719   6.971 -1.1227 -0.6200  1.1617
 9347SOL    HW228823   2.407   1.679   6.847 -0.9734  1.2122  0.6364
 9348SOL     OW28824   7.841   0.572   1.829 -0.5654 -0.0590 -0.1436
 9348SOL    HW128825   7.820   0.641   1.891  1.6990  0.1318  0.5071
 9348SOL    HW228826   7.931   0.590   1.802 -0.7898 -1.3118 -1.9401
 9349SOL     OW28827   6.456   4.688   7.628 -0.4726 -0.1743  0.0917
 9349SOL    HW128828   6.484   4.598   7.613 -0.8525 -0.4813  1.1723
 9349SOL    HW228829   6.420   4.716   7.543  0.6448 -0.6550 -0.5688
 9350SOL     OW28830   0.266   1.411   2.504 -0.2350 -0.0298  0.0704
 9350SOL    HW128831   0.345   1.384   2.457  1.3266 -0.2330  2.5806
 9350SOL    HW228832   0.299   1.472   2.571 -2.2292 -0.0589  1.1458
 9351SOL     OW28833   2.604   6.605   1.077 -0.5676 -0.0842  0.1642
 9351SOL    HW128834   2.646   6.520   1.064  0.4063  0.3896  0.0968
 9351SOL    HW228835   2.668   6.655   1.128 -0.9053  0.7775 -0.2377
 9352SOL     OW28836   7.677   7.062   2.899 -0.2886 -0.5671  0.0665
 9352SOL    HW128837   7.670   7.115   2.978 -1.0636 -0.8971  0.2301
 9352SOL    HW228838   7.670   6.972   2.930 -0.3061 -0.7121 -0.3493
 9353SOL     OW28839   1.449   5.310   2.062 -0.3035  0.2157 -0.3352
 9353SOL    HW128840   1.486   5.232   2.020  0.0172 -0.8038  1.6956
 9353SOL    HW228841   1.436   5.372   1.991 -3.1166 -2.5907 -2.5517
 9354SOL     OW28842   2.143   5.900   0.037 -0.1477  0.2171 -0.1114
 9354SOL    HW128843   2.095   5.959  -0.020 -1.3158  0.1615  0.7626
 9354SOL    HW228844   2.235   5.909   0.011 -0.1849  2.9316  0.4377
 9355SOL     OW28845   3.945   1.346   0.181  0.0828  0.3189  0.5212
 9355SOL    HW128846   4.011   1.277   0.185  0.2145  0.5004  1.7056
 9355SOL    HW228847   3.995   1.428   0.183 -0.1703  0.4598  1.6257
 9356SOL     OW28848   1.241   6.297   4.528  0.5217 -0.2807 -0.1332
 9356SOL    HW128849   1.255   6.330   4.438  0.7960 -1.9066 -0.7157
 9356SOL    HW228850   1.190   6.217   4.517  0.6156 -0.5395  1.1651
 9357SOL     OW28851   5.280   2.850   1.474 -0.1705 -0.2488  0.6140
 9357SOL    HW128852   5.305   2.942   1.477  0.7529 -0.2611 -2.6175
 9357SOL    HW228853   5.338   2.807   1.536  1.2276  1.0311  0.2497
 9358SOL     OW28854   6.923   3.340   0.144 -0.3520  0.2774  0.3790
 9358SOL    HW128855   7.012   3.374   0.142 -0.9847  2.0024 -0.1696
 9358SOL    HW228856   6.920   3.285   0.222  0.5776  2.0101  1.7109
 9359SOL     OW28857   2.563   7.344   1.090 -0.0096  0.1415 -0.2554
 9359SOL    HW128858   2.545   7.375   1.001 -0.6855 -0.6937 -0.4248
 9359SOL    HW228859   2.650   7.303   1.084  0.0928  0.3864 -0.4524
 9360SOL     OW28860   3.083   4.907   1.382 -0.4138 -0.2197 -0.7304
 9360SOL    HW128861   3.029   4.854   1.324  1.3683 -0.0671 -2.6423
 9360SOL    HW228862   3.154   4.849   1.408  0.5220  0.6350 -1.3067
 9361SOL     OW28863   2.722   5.921   0.324 -0.2038  0.5669 -0.8078
 9361SOL    HW128864   2.705   6.015   0.330  0.0897  0.6460 -1.1322
 9361SOL    HW228865   2.805   5.916   0.276 -1.3010  0.0804 -2.7676
 9362SOL     OW28866   3.141   8.264   6.087 -0.1628 -0.5742  0.3820
 9362SOL    HW128867   3.172   8.273   5.997 -0.0081 -0.9433  0.3966
 9362SOL    HW228868   3.072   8.331   6.096 -0.5073 -0.8516 -0.1524
 9363SOL     OW28869   6.241   4.141   6.335  0.5923 -0.2003  0.2641
 9363SOL    HW128870   6.292   4.114   6.411  0.7524  0.4596  0.3915
 9363SOL    HW228871   6.304   4.145   6.263  0.2735 -1.7888 -0.1539
 9364SOL     OW28872   8.219   5.485   7.830 -0.0529  0.0729  0.3802
 9364SOL    HW128873   8.218   5.449   7.919  0.2716 -0.4324  0.1812
 9364SOL    HW228874   8.220   5.409   7.773  1.1268  0.3798 -0.0469
 9365SOL     OW28875   2.880   2.965   0.913  0.6163 -0.0897  0.4177
 9365SOL    HW128876   2.948   2.992   0.975  0.9714  1.0471 -0.4167
 9365SOL    HW228877   2.873   2.870   0.924  2.4544 -0.2607  0.4270
 9366SOL     OW28878   8.217   0.209   5.554 -0.2634 -0.0575 -0.1738
 9366SOL    HW128879   8.278   0.155   5.604 -0.2751  0.8433  0.8558
 9366SOL    HW228880   8.199   0.159   5.475 -0.6388 -1.7824  0.9561
 9367SOL     OW28881   2.214   4.967   3.938  0.3125 -0.2980 -0.2648
 9367SOL    HW128882   2.184   5.008   3.857  0.1931 -0.2364 -0.1904
 9367SOL    HW228883   2.279   5.028   3.973 -0.4632  0.2408  0.2686
 9368SOL     OW28884   6.870   5.774   0.522 -0.1200  0.8145  0.3166
 9368SOL    HW128885   6.917   5.691   0.532 -1.5612 -0.4358 -2.2952
 9368SOL    HW228886   6.939   5.840   0.513  1.1217 -0.6089 -1.1000
 9369SOL     OW28887   0.593   2.716   7.186  0.3830 -0.5516 -0.0492
 9369SOL    HW128888   0.591   2.650   7.117  1.8670 -1.2091  0.5078
 9369SOL    HW228889   0.572   2.668   7.266  0.3884 -0.1383  0.2041
 9370SOL     OW28890   3.347   1.169   2.339  0.3493 -0.2438 -0.1791
 9370SOL    HW128891   3.254   1.167   2.362  0.2770 -0.9879 -0.5177
 9370SOL    HW228892   3.348   1.162   2.243  0.7716 -0.7684 -0.1384
 9371SOL     OW28893   7.087   6.777   1.505  0.6081  0.5216 -0.1651
 9371SOL    HW128894   7.127   6.756   1.421 -0.6431 -1.3302 -0.3445
 9371SOL    HW228895   7.033   6.855   1.487  0.5205  0.2696 -1.0257
 9372SOL     OW28896   6.784   7.669   6.783  0.3180  0.1281  0.4918
 9372SOL    HW128897   6.714   7.675   6.848  1.4801  1.0598  1.7122
 9372SOL    HW228898   6.784   7.754   6.740  0.5630  0.0662  0.3683
 9373SOL     OW28899   6.891   0.988   6.353  0.6804 -0.1713 -0.0400
 9373SOL    HW128900   6.915   1.062   6.409  3.4524 -0.9175 -0.0781
 9373SOL    HW228901   6.914   1.017   6.264 -1.2926  0.0591 -0.5195
 9374SOL     OW28902   5.764   7.045   3.749 -0.1046 -0.7222  0.0575
 9374SOL    HW128903   5.837   7.067   3.807 -0.1939 -0.5598  0.1112
 9374SOL    HW228904   5.693   7.104   3.777  0.7352  1.5030 -2.1377
 9375SOL     OW28905   3.967   7.233   3.850 -0.2075 -0.2143 -0.7115
 9375SOL    HW128906   3.996   7.324   3.865  0.9929 -0.7041  0.0977
 9375SOL    HW228907   4.028   7.180   3.902 -1.2913 -1.4527 -0.6656
 9376SOL     OW28908   2.998   4.173   8.280  0.0355 -0.7471 -0.1386
 9376SOL    HW128909   2.948   4.171   8.361 -1.3904 -1.3495 -0.9867
 9376SOL    HW228910   2.977   4.258   8.240  1.2680 -0.1561  0.4094
 9377SOL     OW28911   0.537   6.580   4.034 -0.7022 -0.4294  0.3589
 9377SOL    HW128912   0.612   6.636   4.051 -1.8167  0.7725  1.5006
 9377SOL    HW228913   0.575   6.494   4.015  0.9290  0.0499  1.3082
 9378SOL     OW28914   0.511   8.290   7.269  0.6724  0.1066 -0.3037
 9378SOL    HW128915   0.560   8.242   7.335 -0.4421 -0.8169 -0.1219
 9378SOL    HW228916   0.450   8.345   7.319 -0.0854 -0.5003 -0.5380
 9379SOL     OW28917   1.175   3.278   3.222 -0.4478 -0.4650  0.1761
 9379SOL    HW128918   1.218   3.194   3.203  0.2861 -0.3123  1.1046
 9379SOL    HW228919   1.247   3.337   3.245 -0.9040  0.5764 -0.9469
 9380SOL     OW28920   4.127   3.840   3.308  0.2320 -0.1978 -0.2049
 9380SOL    HW128921   4.100   3.837   3.400  1.9127  0.6576  0.3500
 9380SOL    HW228922   4.122   3.749   3.279 -1.1539 -0.3539  0.4641
 9381SOL     OW28923   5.228   0.123   2.425 -0.1824  0.7196  0.2965
 9381SOL    HW128924   5.232   0.060   2.497  0.0255  0.1363 -0.2229
 9381SOL    HW228925   5.155   0.093   2.371 -0.3703  1.1872  0.2842
 9382SOL     OW28926   0.029   3.722   7.719 -0.4570  0.0988  0.3347
 9382SOL    HW128927  -0.001   3.652   7.661  0.6624 -1.1299  1.1485
 9382SOL    HW228928  -0.050   3.749   7.766 -0.8741 -0.8430  0.2170
 9383SOL     OW28929   2.968   4.937   2.212  0.7862  0.0047 -0.4470
 9383SOL    HW128930   2.924   4.965   2.132 -0.1978  0.8336  0.3617
 9383SOL    HW228931   2.963   4.841   2.208 -0.6784  0.0549 -0.6269
 9384SOL     OW28932   1.673   5.250   4.708  0.0042  1.0371 -0.3467
 9384SOL    HW128933   1.657   5.296   4.791 -0.1587  0.5780 -0.1171
 9384SOL    HW228934   1.761   5.214   4.719 -0.5148 -0.1247  0.1642
 9385SOL     OW28935   8.054   2.414   0.556  0.2363 -0.3448  0.1409
 9385SOL    HW128936   8.106   2.334   0.559 -1.2699 -1.4514 -1.3112
 9385SOL    HW228937   8.064   2.453   0.643  3.0699 -0.7213  0.0692
 9386SOL     OW28938   4.046   7.328   4.508  0.1041  0.4877  0.0304
 9386SOL    HW128939   4.006   7.324   4.421  0.4952  0.8425 -0.1695
 9386SOL    HW228940   4.027   7.416   4.539 -0.2498  0.2780  0.4115
 9387SOL     OW28941   0.973   8.054   4.137  0.0685  0.0065 -0.2305
 9387SOL    HW128942   1.028   8.132   4.139  1.0097 -0.6247 -0.8224
 9387SOL    HW228943   0.940   8.046   4.227  1.5088  0.0272  0.3299
 9388SOL     OW28944   3.596   7.492   6.864 -0.2394 -0.1883  0.5006
 9388SOL    HW128945   3.537   7.562   6.893 -0.3678 -0.3352  0.5973
 9388SOL    HW228946   3.565   7.469   6.776 -2.5076 -2.5848  1.7927
 9389SOL     OW28947   4.398   3.651   3.326  0.2167 -0.1942 -0.5934
 9389SOL    HW128948   4.411   3.585   3.258 -0.2952  0.1042 -0.9947
 9389SOL    HW228949   4.375   3.731   3.278  2.4798  0.7530 -0.2201
 9390SOL     OW28950   7.858   4.071   2.856  0.3034  0.3859 -0.2394
 9390SOL    HW128951   7.930   4.018   2.821  0.7844 -0.8797  2.4531
 9390SOL    HW228952   7.782   4.013   2.854  0.2253  0.4639  0.3489
 9391SOL     OW28953   6.367   1.095   0.176 -0.5638  0.5183  0.0439
 9391SOL    HW128954   6.375   1.168   0.237 -0.4930  0.1154  0.5315
 9391SOL    HW228955   6.401   1.020   0.225 -1.2266  0.0394 -0.2132
 9392SOL     OW28956   2.332   0.667   4.780 -0.3757  0.0960 -0.0208
 9392SOL    HW128957   2.301   0.666   4.871  1.2802  1.4216  0.6072
 9392SOL    HW228958   2.390   0.591   4.773 -0.7441 -0.1822 -0.0626
 9393SOL     OW28959   6.431   3.070   4.508  0.0176  0.5220 -0.3506
 9393SOL    HW128960   6.463   3.147   4.461 -1.5956  0.9577 -0.7813
 9393SOL    HW228961   6.463   3.081   4.597 -0.1228  1.6570 -0.4269
 9394SOL     OW28962   5.379   0.462   4.119  0.6255 -0.4378  0.6991
 9394SOL    HW128963   5.362   0.440   4.210  0.4145 -2.4741  0.2255
 9394SOL    HW228964   5.471   0.436   4.105  0.8249  0.3582  0.4530
 9395SOL     OW28965   4.268   0.580   4.444  0.3637  0.3153  0.4463
 9395SOL    HW128966   4.342   0.627   4.482  0.1804 -0.1282  1.3576
 9395SOL    HW228967   4.208   0.650   4.416  1.2218  0.6895 -0.5524
 9396SOL     OW28968   6.089   5.218   5.822 -0.5137 -0.0070 -0.3162
 9396SOL    HW128969   6.062   5.206   5.731  2.2816  1.2721 -1.4474
 9396SOL    HW228970   6.116   5.310   5.827 -0.8773  0.0323  1.9131
 9397SOL     OW28971   3.295   3.331   0.805 -0.6255  0.2175  0.1287
 9397SOL    HW128972   3.344   3.361   0.729 -1.1189  0.8703  0.0581
 9397SOL    HW228973   3.353   3.346   0.880 -0.7542  1.0749  0.0588
 9398SOL     OW28974   3.947   2.606   2.004 -0.2032  0.4992  0.3268
 9398SOL    HW128975   3.927   2.699   1.993  0.7049  0.8026  1.2052
 9398SOL    HW228976   3.950   2.593   2.098  0.6993 -0.2019  0.2079
 9399SOL     OW28977   3.215   1.759   3.610 -0.0862  0.2729 -0.2924
 9399SOL    HW128978   3.153   1.813   3.561  0.5957  1.3124 -0.0322
 9399SOL    HW228979   3.227   1.805   3.693 -0.1396 -0.7335  0.2937
 9400SOL     OW28980   4.374   4.912   3.630  0.4063  0.0542  0.1493
 9400SOL    HW128981   4.444   4.865   3.584  0.1018  0.4586 -0.7347
 9400SOL    HW228982   4.315   4.843   3.660  1.0195 -0.2697  0.6438
 9401SOL     OW28983   7.040   6.653   3.478 -0.1120  0.1986  0.7027
 9401SOL    HW128984   7.039   6.558   3.492 -0.4432  0.1366  0.2806
 9401SOL    HW228985   7.005   6.664   3.389 -0.8103  0.7653  1.0417
 9402SOL     OW28986   0.203   6.623   0.493 -0.0492 -0.2087  0.2972
 9402SOL    HW128987   0.149   6.690   0.451 -1.0307  0.5051  2.5192
 9402SOL    HW228988   0.258   6.673   0.555  2.4299 -1.0342 -1.0980
 9403SOL     OW28989   1.748   3.631   4.965  0.0997 -0.0757 -0.1737
 9403SOL    HW128990   1.712   3.601   5.048 -1.2860  0.3554 -0.6035
 9403SOL    HW228991   1.776   3.721   4.982 -2.4304  0.8924 -0.7644
 9404SOL     OW28992   4.443   2.576   8.120 -0.2181 -0.0894  0.3088
 9404SOL    HW128993   4.536   2.555   8.111 -0.5979 -1.9547  0.1705
 9404SOL    HW228994   4.405   2.497   8.160 -1.5431  1.1311  1.5946
 9405SOL     OW28995   4.474   3.059   4.613 -0.0627 -0.1197 -0.3135
 9405SOL    HW128996   4.502   3.112   4.538 -0.8611  1.1040  0.2271
 9405SOL    HW228997   4.526   3.091   4.686  0.3153 -0.9331 -0.2145
 9406SOL     OW28998   2.985   4.730   8.151 -0.4584  0.1381  0.4889
 9406SOL    HW128999   3.056   4.775   8.195  0.2628  0.8294 -1.2794
 9406SOL    HW229000   2.910   4.789   8.158  0.2549  1.3038 -1.0846
 9407SOL     OW29001   3.635   4.308   2.406 -0.0367  0.2028  0.0156
 9407SOL    HW129002   3.713   4.360   2.424 -0.6445  0.4788  2.2168
 9407SOL    HW229003   3.613   4.269   2.491 -1.1109 -1.5423 -1.0061
 9408SOL     OW29004   4.179   4.102   5.639 -0.0747  0.0260  0.0691
 9408SOL    HW129005   4.218   4.098   5.551 -1.5833  0.2567 -0.6362
 9408SOL    HW229006   4.164   4.010   5.662  0.8087 -0.0655  0.3358
 9409SOL     OW29007   1.815   7.929   0.615 -0.4949 -0.4600 -0.0186
 9409SOL    HW129008   1.879   7.991   0.580  0.6350 -0.1913  2.3224
 9409SOL    HW229009   1.765   7.900   0.538  1.4725  0.4146 -1.7369
 9410SOL     OW29010   5.376   0.219   7.672  0.1013 -0.8677 -0.0167
 9410SOL    HW129011   5.353   0.214   7.765 -1.0264  0.4833 -0.1781
 9410SOL    HW229012   5.372   0.312   7.652  1.0914 -1.0698 -1.2554
 9411SOL     OW29013   2.964   4.719   5.159 -0.1058 -0.1233  0.7012
 9411SOL    HW129014   3.042   4.771   5.181 -0.3779  2.1695 -2.8213
 9411SOL    HW229015   2.994   4.629   5.160  2.2778  0.5962  0.7551
 9412SOL     OW29016   7.905   7.867   8.129 -0.1709  0.2584  0.0356
 9412SOL    HW129017   7.927   7.915   8.049  0.7800  1.3318  0.8955
 9412SOL    HW229018   7.944   7.920   8.199  0.5609 -1.5744  1.0720
 9413SOL     OW29019   2.531   6.790   5.785  0.2435 -0.8292 -0.2870
 9413SOL    HW129020   2.623   6.768   5.772  0.3359 -0.1310 -0.9474
 9413SOL    HW229021   2.503   6.825   5.700 -0.5523 -0.7698 -0.0101
 9414SOL     OW29022   4.335   6.486   6.561  0.0532  0.3527  0.3485
 9414SOL    HW129023   4.332   6.390   6.564 -0.9745  0.2384 -2.0341
 9414SOL    HW229024   4.424   6.508   6.586  0.5697 -1.2932  0.0742
 9415SOL     OW29025   0.619   0.544   3.580 -0.1828  0.0655 -0.2061
 9415SOL    HW129026   0.630   0.485   3.506 -3.2783  0.5833 -1.2357
 9415SOL    HW229027   0.555   0.608   3.550  0.7995  2.1949  1.8974
 9416SOL     OW29028   7.511   7.407   1.450 -0.0056  0.5451  0.1613
 9416SOL    HW129029   7.607   7.404   1.446 -0.0137 -0.9663  0.6175
 9416SOL    HW229030   7.482   7.367   1.368 -0.2272 -0.1633  0.5745
 9417SOL     OW29031   2.117   3.398   6.348 -0.5265  0.0486  0.2432
 9417SOL    HW129032   2.084   3.367   6.432  0.3841 -0.2540  0.4994
 9417SOL    HW229033   2.212   3.386   6.353 -0.3616  0.9533 -0.4492
 9418SOL     OW29034   6.212   4.366   8.050 -0.4407 -0.0787  0.5737
 9418SOL    HW129035   6.234   4.330   7.964 -1.5796  1.5847 -0.4748
 9418SOL    HW229036   6.296   4.368   8.097  0.1426 -1.3159 -0.3548
 9419SOL     OW29037   5.636   4.008   6.057 -0.2372 -0.0546 -0.3051
 9419SOL    HW129038   5.594   4.014   5.971 -1.2104 -0.7925  0.0960
 9419SOL    HW229039   5.670   3.918   6.061 -1.0598 -0.3513  0.4467
 9420SOL     OW29040   5.748   1.647   2.412  0.0248  0.0771 -0.2075
 9420SOL    HW129041   5.778   1.725   2.459 -0.5928  0.3939 -0.3348
 9420SOL    HW229042   5.806   1.578   2.442  0.1985  0.4610  0.3598
 9421SOL     OW29043   6.721   3.909   2.090 -0.5769  0.2847  0.0906
 9421SOL    HW129044   6.790   3.956   2.137  0.1238 -1.2839  0.6743
 9421SOL    HW229045   6.691   3.972   2.024  0.7437  1.3356  0.4445
 9422SOL     OW29046   1.552   5.027   7.844 -0.3660  0.2672  0.9088
 9422SOL    HW129047   1.459   5.039   7.861 -0.5654 -0.3225  0.2923
 9422SOL    HW229048   1.586   4.988   7.925 -0.3362  1.8491  1.6999
 9423SOL     OW29049   2.645   2.228   0.110 -0.0207 -0.2505 -0.0603
 9423SOL    HW129050   2.605   2.246   0.195  0.0228 -0.9910  0.1284
 9423SOL    HW229051   2.724   2.179   0.130 -0.1739 -0.7079 -0.5393
 9424SOL     OW29052   3.495   6.216   6.299  0.9326  0.5535  1.1540
 9424SOL    HW129053   3.425   6.234   6.362  0.2014 -0.2116  0.5724
 9424SOL    HW229054   3.567   6.184   6.353  0.3369 -0.0204  1.6209
 9425SOL     OW29055   2.008   1.002   3.869 -0.3130 -0.4294  0.4208
 9425SOL    HW129056   2.038   1.077   3.921 -1.1838  0.6628 -0.6000
 9425SOL    HW229057   1.936   0.965   3.921 -0.4448 -0.0245  0.5343
 9426SOL     OW29058   5.858   0.667   5.000  0.0738 -0.1791  0.5672
 9426SOL    HW129059   5.771   0.667   4.960  0.2206 -3.0043  0.0313
 9426SOL    HW229060   5.915   0.705   4.933 -0.4245 -0.4601 -0.0293
 9427SOL     OW29061   2.620   2.638   2.519  0.6292 -0.0370  0.2415
 9427SOL    HW129062   2.585   2.568   2.573  2.5815 -0.8138  0.5856
 9427SOL    HW229063   2.564   2.640   2.442 -0.4635 -0.8308  0.9933
 9428SOL     OW29064   2.563   4.724   2.099  0.2197  0.4014 -0.3506
 9428SOL    HW129065   2.656   4.723   2.078  0.2252  0.2249 -0.3154
 9428SOL    HW229066   2.557   4.778   2.178  0.5414 -1.2458  0.8416
 9429SOL     OW29067   3.943   1.314   2.596 -0.2824 -0.5876  0.1213
 9429SOL    HW129068   4.015   1.274   2.644  0.2421  0.3511  0.1314
 9429SOL    HW229069   3.866   1.264   2.624  0.2837 -1.3008  0.4569
 9430SOL     OW29070   0.417   2.099   2.072 -0.0370  0.0128 -0.4930
 9430SOL    HW129071   0.502   2.121   2.110  0.1830  0.2700 -1.1167
 9430SOL    HW229072   0.428   2.116   1.978 -0.8137  0.1505 -0.5614
 9431SOL     OW29073   2.378   3.798   7.358  0.4412  0.2819  0.7935
 9431SOL    HW129074   2.315   3.836   7.419 -0.7636 -0.3853  0.0042
 9431SOL    HW229075   2.395   3.710   7.392  0.0677  0.0510  0.3962
 9432SOL     OW29076   2.273   7.036   3.055  0.1473 -0.3796 -0.1840
 9432SOL    HW129077   2.295   6.969   3.119 -1.3810 -0.6766  0.0747
 9432SOL    HW229078   2.198   7.000   3.008  0.5382  0.3144 -1.3857
 9433SOL     OW29079   7.891   2.825   4.043  0.0692  0.9834  0.0710
 9433SOL    HW129080   7.885   2.912   4.005 -1.8997  0.8475 -0.0034
 9433SOL    HW229081   7.944   2.775   3.981  0.0434  1.7535 -0.5799
 9434SOL     OW29082   3.285   7.854   0.872 -0.4711  0.3070 -0.1142
 9434SOL    HW129083   3.348   7.786   0.848  1.0557  1.2754  0.9814
 9434SOL    HW229084   3.235   7.817   0.944 -0.9989 -0.3697 -0.8147
 9435SOL     OW29085   0.571   7.041   7.555 -0.3253  0.1189  0.4360
 9435SOL    HW129086   0.558   7.009   7.645  0.6362 -0.4672  0.3790
 9435SOL    HW229087   0.596   6.963   7.506  2.3786  0.9522  0.3509
 9436SOL     OW29088   0.863   0.692   5.451  0.2528  0.1408  0.2760
 9436SOL    HW129089   0.848   0.718   5.360 -0.9396 -0.2674  0.3448
 9436SOL    HW229090   0.959   0.691   5.460  0.3724  2.0102 -0.4359
 9437SOL     OW29091   0.887   5.262   2.341  0.2504  0.1738  0.1744
 9437SOL    HW129092   0.810   5.229   2.388  0.3265  0.3360  0.4148
 9437SOL    HW229093   0.860   5.349   2.310 -0.1305 -0.3084 -0.9009
 9438SOL     OW29094   6.938   1.549   0.532 -0.0679  0.0109 -0.3522
 9438SOL    HW129095   6.981   1.570   0.449 -1.2687  1.2089 -0.7062
 9438SOL    HW229096   7.009   1.518   0.588  0.5963 -2.0412 -2.1753
 9439SOL     OW29097   2.048   1.491   6.826 -0.1101  0.3433  0.1514
 9439SOL    HW129098   2.032   1.575   6.868  0.0272 -0.3230  1.5866
 9439SOL    HW229099   2.137   1.468   6.851 -0.2034 -0.3123 -0.0975
 9440SOL     OW29100   6.477   6.550   1.601  0.0446 -0.6214  0.1404
 9440SOL    HW129101   6.491   6.487   1.531  0.7198 -0.4905  0.1482
 9440SOL    HW229102   6.490   6.499   1.681  2.2978 -0.1626  0.1558
 9441SOL     OW29103   5.913   6.213   0.350  0.5067 -0.7418  0.3076
 9441SOL    HW129104   5.872   6.176   0.271  1.2296 -0.9629  0.0290
 9441SOL    HW229105   5.844   6.210   0.416  0.3482 -1.9730  0.1031
 9442SOL     OW29106   6.646   6.035   5.858  0.2180 -0.5085  0.6449
 9442SOL    HW129107   6.630   5.945   5.886  0.3783 -0.2863  1.4830
 9442SOL    HW229108   6.696   6.026   5.777 -0.1746 -1.1731  0.4667
 9443SOL     OW29109   4.287   5.331   3.071  0.1238 -0.2215 -0.3129
 9443SOL    HW129110   4.347   5.271   3.027  0.6920  1.1254 -1.4574
 9443SOL    HW229111   4.341   5.407   3.094 -1.0185  0.8226 -0.9420
 9444SOL     OW29112   5.326   6.883   5.694 -0.6050 -0.2550  0.4368
 9444SOL    HW129113   5.408   6.905   5.651  0.5335 -0.2734  2.4766
 9444SOL    HW229114   5.312   6.790   5.674  1.3375 -1.0170  2.2066
 9445SOL     OW29115   7.117   7.005   6.710 -0.3172 -0.4567 -0.4558
 9445SOL    HW129116   7.089   7.053   6.787 -0.8759  0.3007 -1.1177
 9445SOL    HW229117   7.154   6.923   6.744 -1.1495 -0.4213  0.5651
 9446SOL     OW29118   3.958   4.344   5.390 -0.3523 -0.5091 -0.7225
 9446SOL    HW129119   4.008   4.334   5.308 -0.0886  0.0295 -0.6333
 9446SOL    HW229120   4.021   4.384   5.451 -1.2163  1.3238 -0.9630
 9447SOL     OW29121   2.762   6.102   3.237 -0.2987  0.1611  0.1175
 9447SOL    HW129122   2.832   6.039   3.218  0.0206 -0.2741  2.4344
 9447SOL    HW229123   2.808   6.185   3.247 -0.2590  0.0825  0.5765
 9448SOL     OW29124   7.798   5.835   6.486 -0.2273 -0.0056 -0.3036
 9448SOL    HW129125   7.823   5.918   6.445  1.6168  0.8335  2.2692
 9448SOL    HW229126   7.834   5.768   6.428  0.3521  1.0415 -1.2090
 9449SOL     OW29127   0.403   5.047   3.435 -0.4535 -0.0946 -0.1485
 9449SOL    HW129128   0.344   4.993   3.487 -1.3585  0.1239 -0.9140
 9449SOL    HW229129   0.407   5.131   3.482 -0.3043 -0.2979  0.2004
 9450SOL     OW29130   4.171   1.053   0.579 -0.1803 -0.4234 -0.1145
 9450SOL    HW129131   4.149   1.146   0.579 -0.3653 -0.4410 -2.1009
 9450SOL    HW229132   4.266   1.051   0.589 -0.2971 -0.0994  1.2847
 9451SOL     OW29133   0.296   6.251   4.993  0.1999  0.4380 -0.5222
 9451SOL    HW129134   0.273   6.256   4.900 -0.5131  0.7466 -0.3327
 9451SOL    HW229135   0.365   6.184   4.997 -2.1236 -2.1676 -0.8400
 9452SOL     OW29136   8.248   7.665   2.340 -0.0045 -0.2492 -0.3543
 9452SOL    HW129137   8.262   7.618   2.258 -0.4659 -1.4086  0.2106
 9452SOL    HW229138   8.253   7.598   2.407 -2.2745  0.2089  0.3604
 9453SOL     OW29139   2.991   1.945   1.548  0.1160  0.6762  0.4202
 9453SOL    HW129140   2.959   1.881   1.611  1.9249 -0.1065  0.6148
 9453SOL    HW229141   3.039   2.009   1.600 -0.0317  1.1226  0.0229
 9454SOL     OW29142   4.935   3.235   3.095  0.5776 -0.4769  0.1702
 9454SOL    HW129143   4.944   3.315   3.044  0.9396 -1.9647 -2.2296
 9454SOL    HW229144   4.864   3.255   3.157  0.1570  1.4430 -0.8406
 9455SOL     OW29145   7.937   7.943   6.966 -0.1637  0.1262  0.5801
 9455SOL    HW129146   7.912   8.009   7.031  0.2026 -0.6051  1.4835
 9455SOL    HW229147   7.887   7.966   6.888 -1.8778  0.0500  1.6168
 9456SOL     OW29148   3.740   1.771   0.577  0.3613 -0.3537 -0.7502
 9456SOL    HW129149   3.823   1.818   0.587  1.0474 -1.4842 -0.9290
 9456SOL    HW229150   3.744   1.734   0.489 -0.5590 -0.0126 -0.9470
 9457SOL     OW29151   5.785   6.536   1.318 -0.0703 -0.0307 -0.1496
 9457SOL    HW129152   5.823   6.581   1.394  0.2416  0.9677 -0.8867
 9457SOL    HW229153   5.830   6.573   1.243 -1.4772  0.1111 -0.9496
 9458SOL     OW29154   6.108   6.591   3.083  0.2014  0.2941 -0.1415
 9458SOL    HW129155   6.015   6.611   3.085 -0.0277 -0.7343 -0.0507
 9458SOL    HW229156   6.144   6.636   3.160 -0.5791 -0.9318  0.9766
 9459SOL     OW29157   0.937   8.307   2.367  0.8054 -0.2314 -0.3989
 9459SOL    HW129158   0.889   8.303   2.450  1.0778 -0.0202 -0.2302
 9459SOL    HW229159   0.979   8.222   2.359  0.5994 -0.3312 -0.4282
 9460SOL     OW29160   7.024   6.333   4.940 -0.4083  0.1179 -0.0554
 9460SOL    HW129161   7.099   6.274   4.929 -0.3940  0.4128 -1.6361
 9460SOL    HW229162   7.063   6.421   4.938 -0.7946  0.2727 -0.9423
 9461SOL     OW29163   1.531   5.860   5.546 -0.5775 -0.1544  0.3347
 9461SOL    HW129164   1.501   5.770   5.533 -1.2476  0.3068 -1.7046
 9461SOL    HW229165   1.450   5.911   5.552 -0.2738  0.6795 -1.7860
 9462SOL     OW29166   6.911   7.713   8.248 -0.1529  0.0099  0.4512
 9462SOL    HW129167   6.963   7.678   8.321 -0.7481  0.5257  1.1268
 9462SOL    HW229168   6.939   7.804   8.241 -0.3688  0.0619  0.2814
 9463SOL     OW29169   2.492   6.155   3.346 -0.0072  0.4101 -0.2574
 9463SOL    HW129170   2.551   6.163   3.271 -0.9745  1.9725 -0.9165
 9463SOL    HW229171   2.503   6.238   3.394  0.0245 -0.2479  0.9048
 9464SOL     OW29172   7.999   1.496   2.805 -0.2936  0.2944 -0.1141
 9464SOL    HW129173   7.923   1.439   2.795 -0.6055  0.5137  0.8915
 9464SOL    HW229174   7.961   1.584   2.811  0.1304  0.5334 -0.8686
 9465SOL     OW29175   5.002   1.469   4.767 -0.6205  0.0545  0.2180
 9465SOL    HW129176   4.945   1.401   4.732 -1.8663  0.7977  0.7229
 9465SOL    HW229177   5.053   1.426   4.835  0.7404 -1.0465 -1.4328
 9466SOL     OW29178   0.847   5.711   6.148  0.0554 -0.0300 -0.2781
 9466SOL    HW129179   0.858   5.764   6.227 -2.8524  0.5310 -0.1111
 9466SOL    HW229180   0.814   5.627   6.180 -1.1872  0.2190 -0.8325
 9467SOL     OW29181   7.014   5.987   0.189  0.4857 -0.3842  0.3403
 9467SOL    HW129182   7.048   6.051   0.127 -0.4922  0.5154  0.6943
 9467SOL    HW229183   6.928   6.021   0.213 -0.3650 -2.1964  0.0235
 9468SOL     OW29184   2.780   5.626   7.405  0.3656  0.1680 -0.1915
 9468SOL    HW129185   2.867   5.655   7.377  1.1661 -0.7871  1.2077
 9468SOL    HW229186   2.788   5.531   7.413 -1.3494 -0.1837 -1.7870
 9469SOL     OW29187   1.260   6.697   0.890  0.0749  0.1253 -0.2616
 9469SOL    HW129188   1.328   6.633   0.910  0.3181  0.4418 -0.0495
 9469SOL    HW229189   1.300   6.757   0.827 -0.0903  0.1649 -0.3297
 9470SOL     OW29190   3.895   2.738   7.702  0.1881  0.4247  0.3579
 9470SOL    HW129191   3.850   2.820   7.721 -0.3006 -0.3751  3.2037
 9470SOL    HW229192   3.987   2.764   7.689 -0.1701  1.5255 -0.1242
 9471SOL     OW29193   5.987   7.272   4.872  0.1473 -0.6212 -0.0020
 9471SOL    HW129194   5.942   7.198   4.831 -1.7645  0.4732  0.0346
 9471SOL    HW229195   6.020   7.236   4.955 -2.2925 -1.0608  0.8665
 9472SOL     OW29196   4.680   4.848   2.473 -0.7984  0.5100  0.1862
 9472SOL    HW129197   4.661   4.926   2.525 -1.1456  0.2038  0.5251
 9472SOL    HW229198   4.595   4.807   2.458 -0.4364 -1.2085  2.2458
 9473SOL     OW29199   6.069   6.056   5.826  0.5740 -0.3833  0.2390
 9473SOL    HW129200   6.060   6.106   5.907  1.4918  1.9792 -1.0142
 9473SOL    HW229201   6.012   6.102   5.763  0.5405 -1.6418 -0.6932
 9474SOL     OW29202   5.472   3.258   7.584  0.2998 -0.2119  0.0207
 9474SOL    HW129203   5.394   3.307   7.559  0.0773 -0.6796 -0.2191
 9474SOL    HW229204   5.441   3.195   7.649  0.5831 -0.0366  0.3273
 9475SOL     OW29205   3.752   3.024   4.307 -0.4178  0.1090 -0.0376
 9475SOL    HW129206   3.682   2.975   4.349  0.7297  0.8785  3.0444
 9475SOL    HW229207   3.713   3.108   4.284 -0.8364  0.0691  0.5105
 9476SOL     OW29208   1.570   7.877   7.166  0.0695 -0.2335  0.6338
 9476SOL    HW129209   1.601   7.965   7.145 -0.4018 -0.0525  0.6858
 9476SOL    HW229210   1.647   7.821   7.155  0.4054  0.2033  0.7357
 9477SOL     OW29211   6.235   1.313   8.238 -0.1815  0.5712  0.6301
 9477SOL    HW129212   6.292   1.239   8.261 -1.5291 -0.4413  0.8073
 9477SOL    HW229213   6.227   1.309   8.143  0.0040  0.7030  0.6073
 9478SOL     OW29214   5.049   7.196   4.741 -0.0663  0.4209 -0.4094
 9478SOL    HW129215   5.093   7.209   4.656 -1.7068 -0.0839 -1.3813
 9478SOL    HW229216   4.993   7.273   4.751  1.0844  1.1286  0.8874
 9479SOL     OW29217   5.447   1.323   2.221 -0.7913  0.2481  0.4417
 9479SOL    HW129218   5.366   1.278   2.248 -2.3001  1.9724 -0.9381
 9479SOL    HW229219   5.461   1.388   2.290 -0.3828 -0.2318  0.8245
 9480SOL     OW29220   1.630   0.945   1.848 -0.0705  0.3334  0.0325
 9480SOL    HW129221   1.563   0.877   1.858 -1.7961  1.7454 -1.2081
 9480SOL    HW229222   1.645   0.950   1.753 -2.4400  3.7299 -0.3760
 9481SOL     OW29223   7.149   5.712   4.608  0.3877 -0.3196 -0.1144
 9481SOL    HW129224   7.106   5.633   4.574  0.0622 -0.4837  0.6564
 9481SOL    HW229225   7.240   5.686   4.620  0.2328 -0.6574  0.3599
 9482SOL     OW29226   6.343   5.905   7.556 -0.3009 -0.2060 -0.1812
 9482SOL    HW129227   6.318   5.828   7.504  2.1115 -1.7069  0.6483
 9482SOL    HW229228   6.407   5.951   7.501 -2.2914  1.7502 -0.9921
 9483SOL     OW29229   3.173   4.070   6.304  0.2766  0.5018 -0.1289
 9483SOL    HW129230   3.104   4.027   6.355  1.4747 -1.1743  0.1582
 9483SOL    HW229231   3.212   4.133   6.365 -0.4433  0.8645 -0.0349
 9484SOL     OW29232   2.680   3.895   0.237 -0.2945  0.4151 -0.0057
 9484SOL    HW129233   2.677   3.951   0.314  0.7924  0.3931  0.0590
 9484SOL    HW229234   2.733   3.820   0.263  0.1056  0.4228 -0.7857
 9485SOL     OW29235   6.683   5.572   2.566  0.3831 -0.2109  0.2515
 9485SOL    HW129236   6.595   5.589   2.533  0.4753  0.6645  0.4203
 9485SOL    HW229237   6.734   5.648   2.538  0.8763 -0.2956  0.8923
 9486SOL     OW29238   2.896   2.154   7.440 -0.2304  0.2281  0.0560
 9486SOL    HW129239   2.826   2.209   7.476  0.5386  0.3976  1.3813
 9486SOL    HW229240   2.962   2.152   7.509  0.8798 -0.2963 -0.9854
 9487SOL     OW29241   1.907   0.306   5.396 -0.4127  0.0981  0.6251
 9487SOL    HW129242   1.988   0.331   5.351 -0.3342 -0.5238  0.4176
 9487SOL    HW229243   1.876   0.228   5.349 -2.6679  1.8965 -1.1977
 9488SOL     OW29244   0.255   6.039   0.536 -0.1115 -0.5326 -0.3166
 9488SOL    HW129245   0.189   6.031   0.606  0.0435 -0.0615 -0.1170
 9488SOL    HW229246   0.255   6.132   0.513 -0.7824 -0.8148 -1.5547
 9489SOL     OW29247   5.857   0.464   8.056 -0.0324 -0.6704 -0.3064
 9489SOL    HW129248   5.789   0.420   8.005 -0.3481 -0.6727  0.1173
 9489SOL    HW229249   5.810   0.511   8.124  0.4464 -1.5237  0.6405
 9490SOL     OW29250   4.378   7.402   5.945 -0.3272  0.1357 -0.3705
 9490SOL    HW129251   4.319   7.470   5.914 -0.0800  0.7902  0.5311
 9490SOL    HW229252   4.325   7.348   6.003 -0.6881 -0.8550 -1.5675
 9491SOL     OW29253   0.003   0.452   3.597  0.1757  0.0069  0.1081
 9491SOL    HW129254   0.058   0.484   3.668 -0.1148 -1.8555  1.2304
 9491SOL    HW229255  -0.086   0.471   3.625 -0.0103 -1.7017  0.8358
 9492SOL     OW29256   3.158   4.502   5.965 -0.2382 -1.2123  0.1679
 9492SOL    HW129257   3.111   4.535   6.041 -1.4870 -2.3919 -0.0525
 9492SOL    HW229258   3.216   4.434   6.000 -0.4462 -1.4031  0.1500
 9493SOL     OW29259   1.819   2.053   2.152 -0.1014  0.3754  0.2836
 9493SOL    HW129260   1.880   2.050   2.078 -0.4975  0.1388 -0.0402
 9493SOL    HW229261   1.772   1.969   2.147 -0.9278  0.8374  0.1146
 9494SOL     OW29262   1.781   7.563   3.087  0.2638  0.1069 -0.2593
 9494SOL    HW129263   1.763   7.629   3.020  0.1229 -0.5618 -0.8976
 9494SOL    HW229264   1.750   7.480   3.048  3.4549 -0.9157 -0.9137
 9495SOL     OW29265   0.054   8.054   3.842  0.0063  0.5733  0.3398
 9495SOL    HW129266  -0.013   8.122   3.851  0.6932  1.1602  1.1552
 9495SOL    HW229267   0.127   8.097   3.798  0.3260  0.2803  0.5767
 9496SOL     OW29268   1.775   1.421   6.820 -0.9584  0.2124  0.3984
 9496SOL    HW129269   1.750   1.399   6.731  0.2948  0.9549 -0.1715
 9496SOL    HW229270   1.861   1.463   6.811  1.0212 -3.0194  2.2767
 9497SOL     OW29271   4.341   0.008   3.313 -0.1199 -0.0400 -0.0235
 9497SOL    HW129272   4.350  -0.012   3.406 -0.2402  1.4991  0.3465
 9497SOL    HW229273   4.279   0.081   3.310  0.2899  0.2862 -1.2526
 9498SOL     OW29274   7.227   4.129   2.627  0.6750  0.0922  0.6042
 9498SOL    HW129275   7.302   4.150   2.572  2.5213 -1.2076  2.4396
 9498SOL    HW229276   7.211   4.208   2.678  0.0528  0.7396 -0.5762
 9499SOL     OW29277   4.780   8.058   4.104  0.4768 -0.0734  0.0447
 9499SOL    HW129278   4.772   8.105   4.187 -0.1816 -1.7497  0.9951
 9499SOL    HW229279   4.729   8.110   4.042 -0.6615  0.2210  1.1776
 9500SOL     OW29280   4.042   1.683   7.415 -0.6308 -0.2962 -0.2637
 9500SOL    HW129281   3.990   1.727   7.483 -0.5175 -0.0886 -0.3089
 9500SOL    HW229282   4.021   1.732   7.335  0.4688  0.4994 -0.0891
 9501SOL     OW29283   3.029   6.171   5.502  0.5793 -0.0278 -0.2896
 9501SOL    HW129284   2.938   6.201   5.503  0.7969  0.7550 -1.6122
 9501SOL    HW229285   3.037   6.116   5.580 -0.9463  0.1122 -0.0040
 9502SOL     OW29286   2.809   1.176   5.135  0.0464  0.3482  0.3650
 9502SOL    HW129287   2.772   1.108   5.078  0.8735  0.1919  0.0030
 9502SOL    HW229288   2.733   1.228   5.162 -0.4019  0.2365 -0.6312
 9503SOL     OW29289   5.450   0.356   0.175 -0.6336  0.8483 -0.4480
 9503SOL    HW129290   5.388   0.327   0.242 -0.3440  2.3930  0.5235
 9503SOL    HW229291   5.397   0.365   0.096 -1.2186  0.1681 -0.1420
 9504SOL     OW29292   7.751   0.417   2.608  0.4801  0.1320  0.4458
 9504SOL    HW129293   7.762   0.455   2.521 -0.1705  0.5966  0.5621
 9504SOL    HW229294   7.715   0.488   2.662 -1.1668 -0.7461  0.5630
 9505SOL     OW29295   2.058   5.863   1.194  0.0550  0.3021  0.1307
 9505SOL    HW129296   2.025   5.938   1.144  0.7665 -0.6223 -1.8276
 9505SOL    HW229297   2.152   5.862   1.175  0.1591 -0.7060  0.6741
 9506SOL     OW29298   5.411   1.356   1.397  0.0946 -0.1118 -0.5971
 9506SOL    HW129299   5.359   1.431   1.369 -0.3451 -0.4801 -0.7767
 9506SOL    HW229300   5.353   1.280   1.386  0.9386 -0.6345 -1.5829
 9507SOL     OW29301   0.726   6.645   6.090 -0.3726 -0.1786  0.5135
 9507SOL    HW129302   0.662   6.715   6.101  0.1358  0.4372 -0.2646
 9507SOL    HW229303   0.698   6.576   6.150  0.4933  1.6563  3.2308
 9508SOL     OW29304   2.914   1.854   1.145 -0.4850 -0.0793  0.6547
 9508SOL    HW129305   2.991   1.846   1.089 -0.9710 -2.8669  0.2149
 9508SOL    HW229306   2.918   1.776   1.201 -1.5478  1.1503  2.5513
 9509SOL     OW29307   6.631   5.875   4.126 -0.5138  0.3274 -0.2997
 9509SOL    HW129308   6.710   5.821   4.124 -1.2873 -0.8640  0.0114
 9509SOL    HW229309   6.647   5.939   4.196  0.1309  0.0153 -0.1584
 9510SOL     OW29310   1.514   2.425   4.011 -0.3001 -0.0434 -0.1881
 9510SOL    HW129311   1.501   2.505   4.062 -1.7686 -0.0904 -0.4318
 9510SOL    HW229312   1.607   2.403   4.023  0.7251  2.8937 -1.8881
 9511SOL     OW29313   8.110   8.204   5.761 -0.1922  0.8154 -0.1982
 9511SOL    HW129314   8.158   8.173   5.684 -0.5233 -1.0882  0.2969
 9511SOL    HW229315   8.156   8.164   5.835 -1.2474  0.7183  0.4216
 9512SOL     OW29316   4.612   1.790   5.977 -0.6668 -0.4592  0.3318
 9512SOL    HW129317   4.521   1.767   5.996 -0.7087 -0.6139 -0.0662
 9512SOL    HW229318   4.618   1.792   5.882 -0.2529 -0.4446  0.3542
 9513SOL     OW29319   0.787   7.751   4.237  0.3531 -0.3022  0.3185
 9513SOL    HW129320   0.811   7.840   4.264  0.5128 -0.2676  0.0673
 9513SOL    HW229321   0.694   7.758   4.213  0.9504  0.3902 -2.0845
 9514SOL     OW29322   5.596   6.949   7.948 -0.1393 -0.0484  0.1411
 9514SOL    HW129323   5.679   6.977   7.985 -0.2565 -0.7364  0.9557
 9514SOL    HW229324   5.608   6.856   7.928 -1.0003 -0.3806  1.1299
 9515SOL     OW29325   1.775   7.820   5.960 -0.5190  0.4193  0.1850
 9515SOL    HW129326   1.781   7.910   5.928  1.6031 -0.4384 -2.1437
 9515SOL    HW229327   1.767   7.766   5.881 -1.6061 -1.4879  1.4971
 9516SOL     OW29328   5.653   5.540   4.759  0.0736  0.4181 -0.0596
 9516SOL    HW129329   5.687   5.603   4.823 -0.4991 -1.0520  1.7549
 9516SOL    HW229330   5.705   5.461   4.772 -0.2509 -0.0141 -1.2384
 9517SOL     OW29331   1.010   0.902   2.218 -0.2664 -0.4208  0.1519
 9517SOL    HW129332   1.007   0.817   2.174 -1.1359  0.1408 -0.9100
 9517SOL    HW229333   0.921   0.917   2.248 -0.6496  1.0442 -1.5407
 9518SOL     OW29334   4.177   3.547   5.004 -0.3426 -0.1463 -0.0366
 9518SOL    HW129335   4.268   3.575   4.993 -0.6697  0.8205 -0.4173
 9518SOL    HW229336   4.183   3.454   5.025  0.6936 -0.3422 -1.0695
 9519SOL     OW29337   7.839   2.219   4.602 -0.1058  0.0637  0.5548
 9519SOL    HW129338   7.796   2.290   4.650  0.5533 -0.1997  1.5825
 9519SOL    HW229339   7.845   2.250   4.512 -1.7020  0.4296  0.5491
 9520SOL     OW29340   1.697   1.822   2.130  0.0778 -0.5416  0.3474
 9520SOL    HW129341   1.780   1.781   2.153  0.3862 -0.1964 -0.1200
 9520SOL    HW229342   1.698   1.825   2.034  0.1258  0.6674  0.3751
 9521SOL     OW29343   6.755   6.836   6.779 -0.3888 -0.1044 -0.2652
 9521SOL    HW129344   6.791   6.827   6.691  0.5893  0.4573  0.0602
 9521SOL    HW229345   6.740   6.931   6.788  0.5742 -0.0198  0.5644
 9522SOL     OW29346   6.531   3.491   7.752  0.2564  0.0340  0.3785
 9522SOL    HW129347   6.625   3.483   7.736  0.1309 -0.2686 -0.2349
 9522SOL    HW229348   6.491   3.494   7.665 -0.0977  3.1163  0.5538
 9523SOL     OW29349   3.198   6.519   2.523  0.1403 -0.1772  0.3812
 9523SOL    HW129350   3.162   6.582   2.461  2.1884  1.5889  0.8465
 9523SOL    HW229351   3.207   6.568   2.605 -1.2078 -2.0598  1.7274
 9524SOL     OW29352   5.242   1.498   5.011 -0.1460 -0.3949  0.0759
 9524SOL    HW129353   5.240   1.408   4.979 -1.9295 -0.2564 -0.3112
 9524SOL    HW229354   5.152   1.516   5.037  0.7225  0.3023  2.9889
 9525SOL     OW29355   4.548   5.347   0.509 -0.1464  0.1183  0.4741
 9525SOL    HW129356   4.577   5.271   0.560  1.5893 -0.2051 -0.8871
 9525SOL    HW229357   4.603   5.418   0.540 -0.7019  0.4641  0.6707
 9526SOL     OW29358   3.270   1.026   1.412  0.3574  0.0544 -0.1457
 9526SOL    HW129359   3.309   1.105   1.375  0.7247 -0.2934 -0.5053
 9526SOL    HW229360   3.332   0.956   1.392  0.4860 -0.1805  0.9671
 9527SOL     OW29361   0.462   1.760   0.801  0.0615  0.6251 -0.4102
 9527SOL    HW129362   0.381   1.712   0.784  0.4297 -0.2998  0.3560
 9527SOL    HW229363   0.515   1.748   0.722 -0.3495  0.8372 -0.7219
 9528SOL     OW29364   2.527   5.497   7.767  0.2370 -0.3362  0.4000
 9528SOL    HW129365   2.519   5.417   7.716  1.1425 -0.3506  0.2564
 9528SOL    HW229366   2.453   5.551   7.739 -0.6984 -1.3276  0.9073
 9529SOL     OW29367   4.151   5.591   1.131 -0.1741 -0.1362 -0.3142
 9529SOL    HW129368   4.162   5.599   1.226 -0.6652 -0.3229 -0.2421
 9529SOL    HW229369   4.057   5.596   1.117 -0.0315  1.4219 -0.9361
 9530SOL     OW29370   2.377   2.904   3.456 -0.2496 -0.4477 -0.2382
 9530SOL    HW129371   2.421   2.969   3.511 -0.0003 -1.2402  0.5265
 9530SOL    HW229372   2.304   2.952   3.416  1.3017  0.9037 -1.5722
 9531SOL     OW29373   5.428   7.909   7.496  0.2979  0.8342  0.3989
 9531SOL    HW129374   5.466   7.840   7.552 -1.3411  0.4332  1.0978
 9531SOL    HW229375   5.362   7.863   7.444  1.5776  1.2649 -1.7254
 9532SOL     OW29376   3.832   4.121   4.455  0.1305  0.0541 -0.0723
 9532SOL    HW129377   3.866   4.209   4.475  0.6201 -0.1933  0.1918
 9532SOL    HW229378   3.761   4.137   4.393  0.3235  0.6289 -0.1545
 9533SOL     OW29379   3.934   1.394   8.066 -0.0969  0.1991 -0.2966
 9533SOL    HW129380   3.999   1.399   7.995 -0.4581 -2.3834 -0.9223
 9533SOL    HW229381   3.942   1.478   8.112  0.4528  1.8173 -3.1010
 9534SOL     OW29382   3.241   3.933   1.740 -0.9801  0.0393 -0.2021
 9534SOL    HW129383   3.180   3.863   1.718 -2.1024  1.3951 -1.6047
 9534SOL    HW229384   3.230   3.997   1.670  1.8627  0.4769 -0.3548
 9535SOL     OW29385   2.505   7.583   2.582  0.3803  0.4725  0.4332
 9535SOL    HW129386   2.564   7.601   2.655  1.9087 -2.1493 -0.0386
 9535SOL    HW229387   2.554   7.524   2.525 -2.7546 -2.1477  0.1362
 9536SOL     OW29388   1.001   2.686   3.022  0.4300  0.2606 -0.4391
 9536SOL    HW129389   0.975   2.597   3.047 -0.0571  0.3432 -0.6265
 9536SOL    HW229390   0.919   2.736   3.026  0.5407  0.5107 -1.1575
 9537SOL     OW29391   5.232   4.930   6.623 -0.2926  0.5375 -0.1134
 9537SOL    HW129392   5.194   4.899   6.540 -0.3334 -0.1935  0.1746
 9537SOL    HW229393   5.224   4.856   6.682  2.1338  0.1474 -0.2011
 9538SOL     OW29394   1.153   0.695   5.478 -0.2235 -0.1807  0.0640
 9538SOL    HW129395   1.190   0.762   5.421 -1.2318  0.6899  0.4130
 9538SOL    HW229396   1.216   0.623   5.473  1.4986  1.2213  0.6196
 9539SOL     OW29397   3.590   4.159   0.956 -0.0078 -0.1439  0.1055
 9539SOL    HW129398   3.511   4.212   0.958  0.3514  0.4567 -0.9742
 9539SOL    HW229399   3.589   4.117   0.870  1.0697  0.2247 -0.1038
 9540SOL     OW29400   2.365   1.669   4.974  0.5784  0.0590  0.1235
 9540SOL    HW129401   2.307   1.599   4.944  1.4101  0.8080 -3.7955
 9540SOL    HW229402   2.310   1.747   4.977  0.4908 -0.0199  0.5860
 9541SOL     OW29403   3.730   1.353   6.978 -0.9885  0.2751 -0.1078
 9541SOL    HW129404   3.743   1.447   6.967  1.0702  0.0894  0.3400
 9541SOL    HW229405   3.723   1.341   7.073 -1.1021 -0.0285 -0.1540
 9542SOL     OW29406   7.278   8.135   3.816 -0.6322  0.5775  0.4620
 9542SOL    HW129407   7.303   8.121   3.725 -1.2192  1.6956  0.1033
 9542SOL    HW229408   7.260   8.048   3.851  1.5592 -0.0601  0.1148
 9543SOL     OW29409   0.858   8.180   3.879 -0.3582 -0.4475  0.0130
 9543SOL    HW129410   0.859   8.273   3.902 -0.6010  0.1221 -2.0220
 9543SOL    HW229411   0.903   8.136   3.951 -1.5014  1.0592  1.7034
 9544SOL     OW29412   6.451   3.298   7.025  0.0433  0.1815  0.2550
 9544SOL    HW129413   6.517   3.231   7.041 -0.2833 -0.1890  0.0554
 9544SOL    HW229414   6.498   3.381   7.037  0.6128 -0.0743 -0.1653
 9545SOL     OW29415   8.246   3.460   6.419 -0.4286 -0.1566  0.5486
 9545SOL    HW129416   8.307   3.534   6.420  0.6453 -1.0107  0.3639
 9545SOL    HW229417   8.162   3.499   6.395  0.6700  0.6255 -2.5643
 9546SOL     OW29418   5.764   4.441   0.379 -0.4206  0.2236 -0.2656
 9546SOL    HW129419   5.813   4.365   0.348 -0.9843  0.5615 -2.0782
 9546SOL    HW229420   5.719   4.409   0.457  0.9955 -0.6850  0.2357
 9547SOL     OW29421   7.290   3.672   2.396 -0.3513 -0.7373 -0.3650
 9547SOL    HW129422   7.370   3.691   2.347  0.1849 -1.3269  0.2593
 9547SOL    HW229423   7.228   3.642   2.330 -0.2618  0.2721 -0.9434
 9548SOL     OW29424   6.584   6.280   2.220 -0.3181  0.0868  0.1147
 9548SOL    HW129425   6.605   6.225   2.295 -1.2418  1.5301  1.4915
 9548SOL    HW229426   6.668   6.298   2.178  0.3035 -0.1651  1.2291
 9549SOL     OW29427   3.093   8.118   2.458 -0.3695 -0.1725  0.5405
 9549SOL    HW129428   3.069   8.197   2.505 -1.3928 -1.8656  3.0923
 9549SOL    HW229429   3.020   8.101   2.399 -0.5555  0.3028  0.6342
 9550SOL     OW29430   7.322   1.137   7.999 -0.2894  0.1358 -0.4438
 9550SOL    HW129431   7.372   1.088   7.934 -0.9672 -1.8358  0.4309
 9550SOL    HW229432   7.247   1.080   8.019 -0.3662  0.9034  1.6925
 9551SOL     OW29433   5.939   6.128   6.745  0.5208  0.0603 -0.0669
 9551SOL    HW129434   5.933   6.071   6.668 -1.4591 -0.8561  0.7000
 9551SOL    HW229435   5.879   6.200   6.726  0.6257  0.2426  0.2911
 9552SOL     OW29436   4.213   4.340   7.828 -0.0419  0.2360  0.4537
 9552SOL    HW129437   4.165   4.421   7.850  1.0180  0.8553  0.5733
 9552SOL    HW229438   4.275   4.330   7.900  0.1527 -0.4404  0.1926
 9553SOL     OW29439   6.231   6.023   0.292  0.4120  0.6204 -0.4466
 9553SOL    HW129440   6.319   5.984   0.298 -0.2429 -0.7389  1.5985
 9553SOL    HW229441   6.183   5.982   0.364 -2.2570  0.4847 -2.1842
 9554SOL     OW29442   8.292   7.693   0.717  0.1549  0.8943  0.0375
 9554SOL    HW129443   8.320   7.719   0.630  1.7113  0.6455  0.4313
 9554SOL    HW229444   8.347   7.744   0.776  0.5105 -0.3725  0.8497
 9555SOL     OW29445   7.334   7.844   4.389  0.2700 -0.1018 -0.6941
 9555SOL    HW129446   7.408   7.903   4.398 -0.3801  0.8689 -1.4744
 9555SOL    HW229447   7.296   7.866   4.303 -0.3050 -1.2820 -0.7590
 9556SOL     OW29448   6.661   7.770   1.497  0.2444  0.3509 -0.3458
 9556SOL    HW129449   6.567   7.777   1.510 -0.1291 -1.8496 -1.3392
 9556SOL    HW229450   6.670   7.712   1.421  2.3897  2.4724 -1.8412
 9557SOL     OW29451   1.175   5.221   8.082 -0.1302 -0.7949 -0.1030
 9557SOL    HW129452   1.127   5.143   8.109  0.0588 -0.6673  0.6435
 9557SOL    HW229453   1.219   5.251   8.162 -0.2900  0.1374 -0.3481
 9558SOL     OW29454   3.205   6.487   6.189 -0.4158 -0.4548  0.4183
 9558SOL    HW129455   3.249   6.432   6.124  1.2124  1.8556 -0.5845
 9558SOL    HW229456   3.259   6.480   6.267 -0.4698 -0.6310  0.4405
 9559SOL     OW29457   3.797   4.994   5.581 -0.6834  0.1655  0.1477
 9559SOL    HW129458   3.802   4.928   5.513  3.2220  0.4539 -0.0675
 9559SOL    HW229459   3.764   4.947   5.658 -2.4182 -0.8237 -1.1358
 9560SOL     OW29460   7.174   7.902   4.160 -0.5454 -0.2920 -0.4418
 9560SOL    HW129461   7.088   7.941   4.143 -1.5235 -1.3653  1.5525
 9560SOL    HW229462   7.198   7.859   4.079 -2.4944 -0.9890 -0.6957
 9561SOL     OW29463   2.226   1.309   5.578 -0.1588  0.0490  0.7885
 9561SOL    HW129464   2.172   1.287   5.654 -1.3632  1.1773  0.2884
 9561SOL    HW229465   2.191   1.255   5.507  0.7894 -0.8046  0.9525
 9562SOL     OW29466   7.252   2.421   5.817 -0.0994  0.2526  0.6417
 9562SOL    HW129467   7.299   2.339   5.833  0.4158 -0.0366 -1.8828
 9562SOL    HW229468   7.321   2.485   5.801 -0.1995 -0.4678 -4.5036
 9563SOL     OW29469   6.495   5.932   0.285  0.6242  0.2387  0.8805
 9563SOL    HW129470   6.551   5.937   0.208 -0.8078 -0.7143 -0.2857
 9563SOL    HW229471   6.519   5.850   0.328 -0.2204 -0.4918  0.0332
 9564SOL     OW29472   5.869   5.581   2.992 -0.2609 -0.0755 -0.1588
 9564SOL    HW129473   5.895   5.664   3.032  0.0271  0.4104 -1.2903
 9564SOL    HW229474   5.832   5.606   2.907 -0.5518 -1.0763 -0.3414
 9565SOL     OW29475   2.796   8.188   5.837 -0.1679 -0.4439 -0.3384
 9565SOL    HW129476   2.799   8.180   5.742 -2.1901 -2.8000 -0.3292
 9565SOL    HW229477   2.709   8.224   5.855  1.2520  2.8088  0.6034
 9566SOL     OW29478   5.624   7.191   3.222 -0.5294  0.1283  0.3183
 9566SOL    HW129479   5.689   7.260   3.236  0.2592 -0.7492  1.0837
 9566SOL    HW229480   5.543   7.227   3.259 -0.1520  0.6818  0.6130
 9567SOL     OW29481   6.843   2.971   2.783  1.1577 -0.5056  0.6185
 9567SOL    HW129482   6.837   3.066   2.773 -1.7673 -0.6491  0.1351
 9567SOL    HW229483   6.854   2.958   2.877 -1.1019  0.3519  1.0856
 9568SOL     OW29484   2.495   8.278   7.498 -0.5893  0.4073 -0.2931
 9568SOL    HW129485   2.587   8.306   7.499 -0.3356 -0.3723 -0.8344
 9568SOL    HW229486   2.465   8.292   7.588  0.3260 -0.1681  0.1212
 9569SOL     OW29487   1.380   2.159   3.950 -0.1360 -0.6175  0.1273
 9569SOL    HW129488   1.326   2.117   3.883  0.2112 -0.5323 -0.2112
 9569SOL    HW229489   1.393   2.248   3.917 -1.1891 -0.1208  1.0236
 9570SOL     OW29490   7.087   3.345   5.402 -0.1198 -0.5527 -0.1602
 9570SOL    HW129491   7.046   3.429   5.380  0.9509 -0.3554 -1.5019
 9570SOL    HW229492   7.180   3.364   5.406  0.0339 -1.4147  0.8819
 9571SOL     OW29493   4.493   4.147   1.383  0.3747 -0.0027  0.2100
 9571SOL    HW129494   4.530   4.221   1.430  0.7229 -0.4218  0.6070
 9571SOL    HW229495   4.399   4.166   1.379  0.5716  0.8836 -0.4773
 9572SOL     OW29496   3.044   6.363   5.776 -0.2833  0.1082 -0.5365
 9572SOL    HW129497   2.952   6.376   5.798 -1.0145 -2.0401 -1.9945
 9572SOL    HW229498   3.060   6.423   5.703 -1.1130 -0.7862 -1.4962
 9573SOL     OW29499   0.734   6.772   4.005  0.7088  0.1450  0.0998
 9573SOL    HW129500   0.679   6.835   3.958 -2.8891 -1.9106  1.1080
 9573SOL    HW229501   0.793   6.825   4.058 -2.1720  2.7662  0.9526
 9574SOL     OW29502   4.689   3.257   8.215 -0.5630  0.2013  0.0588
 9574SOL    HW129503   4.636   3.306   8.152  0.1739  0.7763 -0.1252
 9574SOL    HW229504   4.770   3.237   8.168 -1.5258 -2.8408 -0.5352
 9575SOL     OW29505   8.044   1.984   5.319  0.2323 -0.2780 -0.2531
 9575SOL    HW129506   8.035   1.916   5.386  0.0125 -0.1550 -0.1534
 9575SOL    HW229507   7.954   2.014   5.304  0.3479  0.1116 -0.1667
 9576SOL     OW29508   5.251   3.529   7.882 -0.1349  0.1422  0.3805
 9576SOL    HW129509   5.260   3.585   7.959  1.1445  0.2945  0.1348
 9576SOL    HW229510   5.215   3.587   7.815 -0.1556  0.3069  0.5317
 9577SOL     OW29511   0.748   2.758   3.721 -0.1822  0.2473 -0.6496
 9577SOL    HW129512   0.735   2.730   3.631 -2.0295 -2.8844  0.4050
 9577SOL    HW229513   0.660   2.752   3.760  0.8410 -0.2765  1.7584
 9578SOL     OW29514   4.046   0.949   4.143 -0.1345  0.3200  0.9576
 9578SOL    HW129515   4.007   1.035   4.160  0.1985  0.4962  0.8351
 9578SOL    HW229516   3.975   0.899   4.102  0.3482  1.3298 -1.3032
 9579SOL     OW29517   1.560   3.942   6.855  0.1483 -0.1247  0.5261
 9579SOL    HW129518   1.497   3.987   6.911 -1.4311 -1.5452 -0.0285
 9579SOL    HW229519   1.514   3.930   6.772  0.3225 -3.0498  0.7690
 9580SOL     OW29520   2.801   5.296   0.315  0.3911 -0.2520  0.2431
 9580SOL    HW129521   2.768   5.248   0.391  1.7505  0.1034  1.0929
 9580SOL    HW229522   2.865   5.357   0.351  0.5975  0.3905 -1.1253
 9581SOL     OW29523   4.246   0.625   1.921  0.4421  0.3209 -0.3937
 9581SOL    HW129524   4.261   0.592   2.010 -2.0138 -0.6656 -0.2806
 9581SOL    HW229525   4.323   0.679   1.903  0.5748  1.3773  2.7096
 9582SOL     OW29526   2.327   5.669   6.156 -0.0631  0.0684 -0.0882
 9582SOL    HW129527   2.366   5.631   6.077 -0.4442 -1.2483  0.3298
 9582SOL    HW229528   2.318   5.762   6.136  0.4449 -0.1292 -1.3474
 9583SOL     OW29529   7.232   5.740   1.951 -0.0192 -0.6299  0.3594
 9583SOL    HW129530   7.208   5.794   2.027  1.9904  0.9739 -0.0318
 9583SOL    HW229531   7.327   5.753   1.943 -0.0262 -1.5986 -1.8030
 9584SOL     OW29532   5.777   7.463   6.389  0.3533 -0.1569 -0.4106
 9584SOL    HW129533   5.790   7.494   6.479  1.1696 -0.2306 -0.4926
 9584SOL    HW229534   5.837   7.516   6.337  1.5306 -1.6157 -0.6019
 9585SOL     OW29535   6.660   1.778   3.382  0.1192 -0.8393  0.0297
 9585SOL    HW129536   6.574   1.812   3.354 -0.0506 -1.6573 -0.4797
 9585SOL    HW229537   6.687   1.721   3.310 -0.5288 -3.3676  1.6548
 9586SOL     OW29538   6.026   5.593   1.033  0.7626  0.0310  0.0957
 9586SOL    HW129539   5.935   5.563   1.024  1.2482 -1.1180 -1.2796
 9586SOL    HW229540   6.018   5.678   1.075 -0.9014 -0.4216  0.8057
 9587SOL     OW29541   6.038   0.486   4.691 -0.6888 -0.4469 -0.0879
 9587SOL    HW129542   5.945   0.491   4.672 -0.8083 -2.7953 -0.3923
 9587SOL    HW229543   6.081   0.500   4.606 -0.6852  1.3450  0.1700
 9588SOL     OW29544   4.685   4.074   0.258 -0.5608 -0.1918  0.3174
 9588SOL    HW129545   4.593   4.075   0.284 -0.4677  1.2547  0.6323
 9588SOL    HW229546   4.719   3.992   0.295 -1.3377  0.0349  1.5857
 9589SOL     OW29547   0.047   0.954   5.523  0.2183 -0.0748 -0.8431
 9589SOL    HW129548   0.033   0.982   5.432  0.4266  0.1104 -0.8187
 9589SOL    HW229549   0.117   0.890   5.518  0.0845 -0.2223 -0.8375
 9590SOL     OW29550   1.843   7.177   2.797  0.1705  0.0308  0.1943
 9590SOL    HW129551   1.804   7.199   2.713  1.1105  2.3377  0.2957
 9590SOL    HW229552   1.937   7.180   2.782  0.3543 -0.8003  1.0501
 9591SOL     OW29553   5.256   2.427   1.482 -0.6206 -0.2130 -0.8000
 9591SOL    HW129554   5.221   2.436   1.393 -2.3114 -0.3163 -0.1739
 9591SOL    HW229555   5.250   2.333   1.501  0.2825 -0.2782 -0.7611
 9592SOL     OW29556   1.767   5.633   2.816 -0.1053  0.9108 -0.0935
 9592SOL    HW129557   1.742   5.545   2.843  1.2069  0.4220 -0.3815
 9592SOL    HW229558   1.852   5.622   2.773  0.6557  2.4575  0.8951
 9593SOL     OW29559   5.900   0.076   4.933 -0.0569 -0.3127 -0.4511
 9593SOL    HW129560   5.922   0.165   4.906 -0.7660 -0.0015 -0.0297
 9593SOL    HW229561   5.962   0.055   5.003  0.5945 -0.4362 -1.0552
 9594SOL     OW29562   3.689   8.092   6.389  0.1428 -0.0553 -0.3959
 9594SOL    HW129563   3.712   8.185   6.399  0.8010 -0.1639 -0.8599
 9594SOL    HW229564   3.641   8.071   6.469 -1.6560  1.1616 -1.0874
 9595SOL     OW29565   5.790   5.612   2.246  0.0804 -0.7999 -0.0064
 9595SOL    HW129566   5.749   5.529   2.222  0.7663 -2.0509  2.7394
 9595SOL    HW229567   5.882   5.589   2.260  0.0229  0.0716  2.1457
 9596SOL     OW29568   6.773   3.105   6.755 -0.2477  0.4103  0.1516
 9596SOL    HW129569   6.699   3.059   6.795 -0.3377  1.2757  1.0204
 9596SOL    HW229570   6.839   3.038   6.742 -1.3359 -0.4699 -1.0463
 9597SOL     OW29571   0.048   0.711   1.934 -0.3496  0.2190 -0.2319
 9597SOL    HW129572  -0.016   0.725   2.004  0.0151 -0.6653  0.3124
 9597SOL    HW229573   0.107   0.645   1.970  1.4695  1.7149 -0.3224
 9598SOL     OW29574   6.063   2.676   2.908  0.3517  0.5779  0.7194
 9598SOL    HW129575   6.098   2.626   2.834  0.3723  0.0799  1.0644
 9598SOL    HW229576   5.969   2.675   2.895  0.4572  2.3345 -0.4786
 9599SOL     OW29577   4.100   1.689   4.735  0.7681  0.3522 -0.3710
 9599SOL    HW129578   4.044   1.638   4.793 -1.2628  1.2195 -1.4544
 9599SOL    HW229579   4.190   1.665   4.760 -0.0493 -0.5784  1.9051
 9600SOL     OW29580   4.111   4.956   2.618 -0.4160 -0.3062 -0.1198
 9600SOL    HW129581   4.131   4.992   2.704  0.1934 -0.7275 -0.0832
 9600SOL    HW229582   4.169   5.003   2.558 -0.1914 -0.6638 -0.1804
 9601SOL     OW29583   8.234   4.948   3.564  0.0458 -0.1664 -0.2833
 9601SOL    HW129584   8.254   4.876   3.504 -0.2892 -0.0333 -0.5636
 9601SOL    HW229585   8.170   4.911   3.625  0.4484 -0.3254  0.0382
 9602SOL     OW29586   5.019   3.480   7.014 -0.3609 -0.0313 -0.1238
 9602SOL    HW129587   5.081   3.439   6.952 -2.0818 -0.5595 -1.5782
 9602SOL    HW229588   5.054   3.568   7.026  0.4656 -0.1690 -1.2503
 9603SOL     OW29589   0.517   8.295   5.879 -0.7947  0.2755 -0.0256
 9603SOL    HW129590   0.517   8.390   5.894  0.0838  0.2678  0.0537
 9603SOL    HW229591   0.603   8.276   5.843 -0.0281 -0.8322  2.2197
 9604SOL     OW29592   0.053   7.780   6.930 -0.5005 -0.8188 -0.3079
 9604SOL    HW129593  -0.002   7.782   7.009  0.1746 -1.2132  0.1847
 9604SOL    HW229594   0.100   7.863   6.932  0.1170 -1.1744  0.1486
 9605SOL     OW29595   7.499   5.677   7.171  0.0141 -0.4589  0.0067
 9605SOL    HW129596   7.527   5.765   7.146  1.1865 -0.5507  0.9088
 9605SOL    HW229597   7.581   5.627   7.176 -0.6796 -1.7930 -1.1772
 9606SOL     OW29598   2.380   5.140   7.238  0.5116  0.1445  0.3006
 9606SOL    HW129599   2.357   5.151   7.146  0.4660  1.9917  0.4974
 9606SOL    HW229600   2.300   5.163   7.286  1.3128  1.8922  0.8538
 9607SOL     OW29601   1.855   3.692   2.808  0.2339  0.5194 -0.3253
 9607SOL    HW129602   1.906   3.767   2.777 -0.0104  0.2616 -1.3635
 9607SOL    HW229603   1.868   3.693   2.903  2.9999 -0.1382 -0.6107
 9608SOL     OW29604   2.997   2.537   7.128 -0.6102 -0.1127 -0.3186
 9608SOL    HW129605   3.029   2.472   7.191 -1.0912 -0.2162 -0.1768
 9608SOL    HW229606   2.902   2.535   7.137 -0.6130  1.0320  0.1117
 9609SOL     OW29607   0.263   3.944   1.568  0.2083 -0.0511 -0.2941
 9609SOL    HW129608   0.299   3.862   1.603  1.2718  0.1014 -0.9665
 9609SOL    HW229609   0.175   3.920   1.537 -0.6033 -0.2716  2.0017
 9610SOL     OW29610   4.151   3.348   7.753  0.0432  0.0289 -0.4390
 9610SOL    HW129611   4.127   3.357   7.661 -0.6622  0.4245 -0.2266
 9610SOL    HW229612   4.079   3.390   7.801  0.8530  0.6802  0.2533
 9611SOL     OW29613   6.491   1.755   4.229  0.0267  0.3394 -0.9402
 9611SOL    HW129614   6.408   1.799   4.247 -1.0726 -1.7781 -0.5838
 9611SOL    HW229615   6.537   1.756   4.313 -0.4622 -0.1140 -0.6623
 9612SOL     OW29616   8.260   4.225   2.234 -1.0351 -0.3507  0.1597
 9612SOL    HW129617   8.213   4.271   2.164 -1.5527 -0.1247  0.6461
 9612SOL    HW229618   8.308   4.294   2.280  0.7480 -0.7171 -1.0375
 9613SOL     OW29619   0.150   2.079   4.317 -0.4198 -0.4744  0.0413
 9613SOL    HW129620   0.187   2.051   4.400  0.1199  0.3461  0.0840
 9613SOL    HW229621   0.109   2.000   4.282 -0.2279 -0.9468  0.8513
 9614SOL     OW29622   0.637   6.142   2.953  0.2441  0.4265 -0.2087
 9614SOL    HW129623   0.691   6.131   3.031 -1.0653 -1.2711  0.5221
 9614SOL    HW229624   0.686   6.098   2.884  1.2927  1.7282 -0.3428
 9615SOL     OW29625   0.636   1.562   2.454 -0.3341  0.8022  0.3431
 9615SOL    HW129626   0.725   1.583   2.482 -0.7038  0.6305  1.6933
 9615SOL    HW229627   0.582   1.573   2.532 -1.3484 -0.0983 -0.1912
 9616SOL     OW29628   0.680   2.402   3.683  0.0450 -0.5267 -0.1946
 9616SOL    HW129629   0.705   2.401   3.775 -0.1327  1.0753 -0.1021
 9616SOL    HW229630   0.586   2.383   3.683 -0.1316  0.3135  0.0365
 9617SOL     OW29631   0.751   7.422   3.235 -0.2137  0.3920 -0.1919
 9617SOL    HW129632   0.721   7.418   3.144 -0.3179 -1.6704 -0.1104
 9617SOL    HW229633   0.677   7.389   3.286  1.7302 -4.4935  0.0523
 9618SOL     OW29634   7.664   7.237   3.956  0.4468  0.0900 -0.0993
 9618SOL    HW129635   7.655   7.249   4.050  1.9043  1.6468 -0.1114
 9618SOL    HW229636   7.757   7.218   3.943  0.2778 -0.0202 -1.2290
 9619SOL     OW29637   0.190   7.630   5.870  0.2842  0.2194 -0.7870
 9619SOL    HW129638   0.107   7.638   5.824 -0.2596 -0.4173  0.0529
 9619SOL    HW229639   0.179   7.555   5.928  1.4383  0.1342 -0.6437
 9620SOL     OW29640   0.836   6.097   1.548 -0.3208  0.3986  0.2312
 9620SOL    HW129641   0.744   6.116   1.532 -0.7937 -0.2861  2.0147
 9620SOL    HW229642   0.860   6.155   1.620  1.4454  2.5991 -1.9488
 9621SOL     OW29643   5.388   3.891   4.511  0.2871 -0.1425 -0.0922
 9621SOL    HW129644   5.295   3.914   4.505  0.4388  0.2721 -0.8955
 9621SOL    HW229645   5.417   3.934   4.592 -0.2957 -0.5883  0.3707
 9622SOL     OW29646   0.992   0.444   3.638 -0.3998 -0.3476 -0.1819
 9622SOL    HW129647   0.956   0.434   3.550 -0.0059 -2.0908 -0.1946
 9622SOL    HW229648   1.084   0.466   3.626 -0.6631  0.8200 -0.1727
 9623SOL     OW29649   3.738   7.586   6.470  0.3517 -0.0480 -0.6107
 9623SOL    HW129650   3.753   7.671   6.512  0.3472 -0.3626  0.0236
 9623SOL    HW229651   3.660   7.551   6.513 -0.7585  0.4200 -2.1069
 9624SOL     OW29652   4.988   4.398   7.324  0.6023 -0.2271 -0.2350
 9624SOL    HW129653   5.002   4.428   7.235  1.3743  0.8172  0.2201
 9624SOL    HW229654   4.894   4.408   7.338  0.5750  0.2407 -0.7124
 9625SOL     OW29655   1.988   5.486   1.215 -0.4316  0.0255  0.2103
 9625SOL    HW129656   2.082   5.469   1.224 -0.1407  1.8981  1.1862
 9625SOL    HW229657   1.982   5.557   1.152 -1.3107 -0.8257 -0.7069
 9626SOL     OW29658   5.138   2.591   4.794  0.0586  0.1561 -0.1672
 9626SOL    HW129659   5.083   2.515   4.771 -0.0442  0.0930  0.2801
 9626SOL    HW229660   5.102   2.622   4.877 -0.3366  1.1191 -0.6851
 9627SOL     OW29661   5.564   7.915   0.310  0.7525 -0.0334 -0.2096
 9627SOL    HW129662   5.535   7.987   0.254 -2.2442 -1.0022 -0.0382
 9627SOL    HW229663   5.533   7.836   0.267 -0.0806 -0.9145  1.8705
 9628SOL     OW29664   2.180   5.162   5.581 -0.0153 -0.4874 -0.2430
 9628SOL    HW129665   2.141   5.174   5.667  0.1536  0.8767 -0.3329
 9628SOL    HW229666   2.247   5.094   5.593  0.7796  0.4708  0.9644
 9629SOL     OW29667   0.266   5.978   7.854 -0.6377  0.0822  0.1388
 9629SOL    HW129668   0.176   5.954   7.874 -0.7298 -0.0366 -0.4057
 9629SOL    HW229669   0.263   6.072   7.838 -0.3840  0.3770  1.6611
 9630SOL     OW29670   1.153   2.137   4.840 -0.3381  0.2057  0.1133
 9630SOL    HW129671   1.139   2.128   4.746  1.3451  0.5390 -0.2114
 9630SOL    HW229672   1.100   2.068   4.879 -1.2106  0.1806 -1.0609
 9631SOL     OW29673   0.192   7.088   7.744 -0.2294  0.0782  0.3875
 9631SOL    HW129674   0.219   7.003   7.709 -3.9756 -1.2349  0.1993
 9631SOL    HW229675   0.157   7.068   7.830  1.5041  2.0202  1.6399
 9632SOL     OW29676   4.913   3.724   1.054 -0.5437  0.0296 -0.6043
 9632SOL    HW129677   4.930   3.642   1.007  0.3985 -0.0819 -0.0926
 9632SOL    HW229678   4.871   3.781   0.989 -2.9619 -1.4496 -0.4934
 9633SOL     OW29679   8.149   7.421   5.213 -0.4834  0.1356 -0.4800
 9633SOL    HW129680   8.193   7.409   5.129  1.2566 -0.4126  0.4429
 9633SOL    HW229681   8.115   7.511   5.209  0.2655  0.3984 -1.4771
 9634SOL     OW29682   7.211   7.202   7.395  0.4486 -0.1729 -0.1282
 9634SOL    HW129683   7.267   7.280   7.403  0.7659 -0.4738  0.7953
 9634SOL    HW229684   7.204   7.170   7.485 -3.1583  1.1725  0.2180
 9635SOL     OW29685   6.581   1.284   4.049  0.3809 -0.3078 -0.0444
 9635SOL    HW129686   6.660   1.247   4.089  1.1883  0.5714 -0.7651
 9635SOL    HW229687   6.582   1.376   4.073  0.5250  0.0949 -1.4896
 9636SOL     OW29688   8.127   5.943   4.488 -0.5410 -0.1669 -0.0583
 9636SOL    HW129689   8.135   5.942   4.392 -2.7052  1.7824 -0.3367
 9636SOL    HW229690   8.217   5.931   4.519  0.1828 -1.2153 -2.2937
 9637SOL     OW29691   7.189   0.860   6.847  0.1646  0.1898  0.2343
 9637SOL    HW129692   7.273   0.904   6.835 -0.3058  0.9165 -0.5199
 9637SOL    HW229693   7.146   0.867   6.762  0.5343 -2.8195 -0.2830
 9638SOL     OW29694   0.326   2.782   0.393  0.1940  0.0450  0.7825
 9638SOL    HW129695   0.236   2.802   0.365  0.7585  0.5241 -0.8338
 9638SOL    HW229696   0.329   2.686   0.396 -0.2741  0.0139  0.4854
 9639SOL     OW29697   2.272   6.566   6.419 -0.1397  0.2798  0.9111
 9639SOL    HW129698   2.207   6.545   6.486 -1.0012  1.2615  0.4167
 9639SOL    HW229699   2.352   6.523   6.449 -1.0498 -1.1485  1.4340
 9640SOL     OW29700   5.291   3.826   6.888 -0.0088  0.1009  0.0499
 9640SOL    HW129701   5.207   3.867   6.868 -0.8761 -1.3306  0.6024
 9640SOL    HW229702   5.310   3.771   6.812  0.9029  1.0941 -0.4711
 9641SOL     OW29703   0.985   0.370   0.642 -0.3708 -0.1672  0.1039
 9641SOL    HW129704   0.927   0.423   0.696  1.1168  1.3509  0.2960
 9641SOL    HW229705   1.066   0.420   0.638  0.1831 -1.1152 -2.0226
 9642SOL     OW29706   0.202   4.785   5.593  0.4500  0.2261  0.4024
 9642SOL    HW129707   0.259   4.768   5.518  1.2044 -0.2288  1.0609
 9642SOL    HW229708   0.184   4.879   5.589  0.4155  0.1944 -0.3823
 9643SOL     OW29709   5.442   3.583   6.730  0.4014 -0.3521  0.1397
 9643SOL    HW129710   5.538   3.581   6.730  0.4433 -1.2236 -2.1940
 9643SOL    HW229711   5.419   3.657   6.676 -0.3394  0.9380  2.1044
 9644SOL     OW29712   6.024   3.197   7.734 -0.0043 -0.3936 -0.1236
 9644SOL    HW129713   6.045   3.167   7.645 -0.3788 -0.3970 -0.2107
 9644SOL    HW229714   6.042   3.291   7.733  1.4401 -0.6344  0.2265
 9645SOL     OW29715   4.265   4.205   6.670 -0.2341 -0.0956  0.2761
 9645SOL    HW129716   4.186   4.217   6.617  0.2706  0.8247 -0.2952
 9645SOL    HW229717   4.324   4.275   6.641  1.0310 -1.1354  0.2628
 9646SOL     OW29718   6.457   8.308   2.216  0.0759 -0.3846 -0.1626
 9646SOL    HW129719   6.382   8.297   2.274 -0.1971  0.7438 -0.2796
 9646SOL    HW229720   6.446   8.396   2.179  1.6718 -0.0429  0.1290
 9647SOL     OW29721   1.728   8.257   6.952 -0.3769 -0.0665  0.3890
 9647SOL    HW129722   1.684   8.321   6.896 -0.5610 -0.3915  0.1638
 9647SOL    HW229723   1.717   8.292   7.041  1.1267  1.1844  0.1267
 9648SOL     OW29724   2.884   6.994   5.746  0.3127 -0.0419  0.3735
 9648SOL    HW129725   2.873   6.933   5.673 -1.5111  1.0867 -0.3577
 9648SOL    HW229726   2.979   7.003   5.755  0.6581 -2.6543  0.2893
 9649SOL     OW29727   5.304   6.584   8.050 -0.0169  0.2976  0.6782
 9649SOL    HW129728   5.243   6.534   7.996 -0.0801  1.3253 -0.2160
 9649SOL    HW229729   5.369   6.519   8.078 -1.4084 -0.7762  1.5321
 9650SOL     OW29730   2.853   3.363   7.383  0.0032  0.0286  0.0376
 9650SOL    HW129731   2.924   3.427   7.382  1.5342 -1.5028  1.7678
 9650SOL    HW229732   2.848   3.331   7.293  0.1432  1.5202 -0.5395
 9651SOL     OW29733   5.913   5.018   7.132 -0.2065  0.0640 -0.4380
 9651SOL    HW129734   5.967   4.942   7.111 -1.0752 -0.7272  0.1456
 9651SOL    HW229735   5.823   4.985   7.129 -0.5141  0.4346  2.2280
 9652SOL     OW29736   7.867   7.816   4.647  0.1618 -0.0879  0.7630
 9652SOL    HW129737   7.882   7.722   4.637 -1.0700 -0.2454  0.2141
 9652SOL    HW229738   7.948   7.857   4.617  1.2876 -1.0036  2.4282
 9653SOL     OW29739   6.775   1.326   0.568 -0.5752 -0.1801 -0.9696
 9653SOL    HW129740   6.718   1.371   0.631  0.4408 -0.4895  0.2196
 9653SOL    HW229741   6.828   1.395   0.529 -0.4898 -0.1015 -0.7175
 9654SOL     OW29742   7.818   5.781   3.084 -0.3027 -0.1366  0.0018
 9654SOL    HW129743   7.822   5.811   3.175 -3.2225 -1.0729  0.5408
 9654SOL    HW229744   7.824   5.861   3.032  0.8936  0.4609  1.0070
 9655SOL     OW29745   5.018   6.595   6.016 -0.1858 -0.3455  0.1516
 9655SOL    HW129746   4.927   6.621   6.001 -0.2318 -1.0866 -0.9553
 9655SOL    HW229747   5.065   6.677   6.026 -0.8192  0.0684 -0.2183
 9656SOL     OW29748   5.333   0.187   3.285 -0.1440 -0.3465 -0.4027
 9656SOL    HW129749   5.267   0.254   3.303 -3.1404 -3.5574  1.7546
 9656SOL    HW229750   5.379   0.176   3.368  0.5022 -0.7732 -0.8164
 9657SOL     OW29751   2.414   4.437   6.159 -0.1351 -0.1995  0.1839
 9657SOL    HW129752   2.334   4.435   6.106  0.4910 -1.2732 -0.7681
 9657SOL    HW229753   2.436   4.346   6.175  1.4094  0.0268 -0.3994
 9658SOL     OW29754   2.612   3.110   1.406 -0.1697  0.1169  0.3132
 9658SOL    HW129755   2.518   3.113   1.387 -0.0572  1.5926 -0.1313
 9658SOL    HW229756   2.654   3.116   1.320  0.3611 -1.4997  0.4238
 9659SOL     OW29757   8.314   3.176   3.177  0.2203  1.2704 -0.2604
 9659SOL    HW129758   8.313   3.187   3.082 -1.1910 -4.1838 -1.2141
 9659SOL    HW229759   8.398   3.134   3.195 -0.8794 -0.8706  0.2133
 9660SOL     OW29760   3.665   7.439   4.966  0.6375  0.5336 -0.3580
 9660SOL    HW129761   3.588   7.399   5.006  0.9257  0.2452 -0.0821
 9660SOL    HW229762   3.664   7.530   4.995  1.8321 -0.0817  1.8496
 9661SOL     OW29763   0.993   0.183   0.027 -0.1297  0.6940 -0.0527
 9661SOL    HW129764   0.957   0.271   0.038 -2.8115 -0.2459 -0.4597
 9661SOL    HW229765   0.978   0.140   0.112  1.1711  0.5957  0.1501
 9662SOL     OW29766   5.262   4.785   2.302 -0.5904  0.4781 -0.4668
 9662SOL    HW129767   5.250   4.829   2.387 -0.6831  0.0789 -0.2717
 9662SOL    HW229768   5.341   4.824   2.266  0.2842 -0.4013  0.4683
 9663SOL     OW29769   5.449   5.348   8.275 -0.4516  0.5836 -0.7500
 9663SOL    HW129770   5.401   5.272   8.308  1.0402  1.2009  3.3615
 9663SOL    HW229771   5.533   5.312   8.245 -0.0837  0.4521  0.3883
 9664SOL     OW29772   4.503   5.548   2.576  0.0332 -0.4259 -0.4784
 9664SOL    HW129773   4.492   5.586   2.663  1.7581 -0.6143 -0.1406
 9664SOL    HW229774   4.477   5.618   2.516 -0.2416  0.0384  0.1698
 9665SOL     OW29775   5.962   6.914   0.609 -0.9017 -0.4081  0.0633
 9665SOL    HW129776   6.046   6.929   0.566 -0.1979 -0.6420  1.3179
 9665SOL    HW229777   5.897   6.941   0.544  0.1545  0.7872 -0.5446
 9666SOL     OW29778   2.029   0.589   3.561  0.1289 -0.3116  0.0040
 9666SOL    HW129779   2.035   0.494   3.568 -0.1529 -0.2607  1.1074
 9666SOL    HW229780   2.116   0.620   3.586  0.6015 -0.3081 -1.5344
 9667SOL     OW29781   6.767   1.952   6.634  0.1132 -0.1072  0.2326
 9667SOL    HW129782   6.708   1.950   6.559  0.2864 -1.2299  0.1011
 9667SOL    HW229783   6.708   1.946   6.710  0.0023 -0.2987  0.1339
 9668SOL     OW29784   5.757   0.027   1.354 -0.3683  0.2239 -0.0313
 9668SOL    HW129785   5.748   0.015   1.260  1.3030  1.9234 -0.4576
 9668SOL    HW229786   5.831   0.087   1.364 -1.4883  1.3422  2.2815
 9669SOL     OW29787   4.116   1.504   5.182  0.1612  0.2361 -0.3437
 9669SOL    HW129788   4.183   1.509   5.250  1.9376  1.5304 -2.0797
 9669SOL    HW229789   4.035   1.528   5.226  1.6352  3.5306  0.8708
 9670SOL     OW29790   2.331   3.298   2.606  0.1585  0.4311 -0.6958
 9670SOL    HW129791   2.361   3.354   2.678  2.1770  0.4639 -1.5191
 9670SOL    HW229792   2.286   3.226   2.651 -1.8246  2.2187  0.4112
 9671SOL     OW29793   3.769   2.488   5.645 -0.3222 -0.1403  0.2680
 9671SOL    HW129794   3.768   2.572   5.691 -0.7221 -0.5688  1.0596
 9671SOL    HW229795   3.682   2.452   5.659  0.6108 -1.8578  2.1318
 9672SOL     OW29796   2.393   4.782   2.640  0.2206  0.2211  0.1443
 9672SOL    HW129797   2.483   4.751   2.644  0.5121  0.4510 -2.6227
 9672SOL    HW229798   2.399   4.877   2.653  0.1179  0.0388  1.7386
 9673SOL     OW29799   0.104   7.299   6.069  0.6153  0.0700 -0.5817
 9673SOL    HW129800   0.040   7.368   6.083  1.5453  1.1536 -1.4744
 9673SOL    HW229801   0.052   7.218   6.066 -0.6449  0.8604 -0.7848
 9674SOL     OW29802   3.620   5.565   0.580 -0.0905 -0.2481 -0.3038
 9674SOL    HW129803   3.617   5.650   0.625 -1.4664  0.9586 -2.4972
 9674SOL    HW229804   3.687   5.576   0.513  1.3543 -1.7407  0.8244
 9675SOL     OW29805   5.899   1.012   4.251  0.5203 -0.1145 -0.2305
 9675SOL    HW129806   5.879   0.979   4.163  1.6213 -0.6355 -0.3050
 9675SOL    HW229807   5.947   1.094   4.235 -2.9723  2.1701 -0.0447
 9676SOL     OW29808   3.687   7.537   7.651  0.2820 -0.0662  0.0909
 9676SOL    HW129809   3.760   7.588   7.614  0.6616 -1.0621 -0.5674
 9676SOL    HW229810   3.669   7.580   7.735  1.6243  0.2113  0.2710
 9677SOL     OW29811   5.079   4.625   3.992  0.1239  0.0154  0.0778
 9677SOL    HW129812   5.066   4.719   3.979  2.2783  0.4926  0.8408
 9677SOL    HW229813   5.052   4.609   4.082  2.3493  0.5636  0.9270
 9678SOL     OW29814   2.594   3.241   6.510 -0.1978 -0.1180  0.1771
 9678SOL    HW129815   2.554   3.293   6.579 -2.4264  2.3152 -2.6868
 9678SOL    HW229816   2.658   3.300   6.469  0.2557 -1.1050 -0.5876
 9679SOL     OW29817   4.766   6.519   5.407  0.0477  0.7006  0.2725
 9679SOL    HW129818   4.711   6.536   5.483  0.0601 -1.2476  0.7607
 9679SOL    HW229819   4.839   6.467   5.441 -0.6626 -1.4517 -1.2596
 9680SOL     OW29820   0.481   7.332   8.256 -0.2852  0.0338  0.2547
 9680SOL    HW129821   0.527   7.410   8.222 -0.8107  0.4424  0.4648
 9680SOL    HW229822   0.540   7.296   8.322 -0.6979  1.1539  1.2694
 9681SOL     OW29823   6.694   2.030   0.323 -0.1553 -0.0371 -0.3273
 9681SOL    HW129824   6.726   2.024   0.413  0.8280 -0.5894 -0.7122
 9681SOL    HW229825   6.629   1.960   0.316 -0.7613  0.4586  0.1508
 9682SOL     OW29826   8.022   4.985   5.807  0.1786 -0.0977 -0.4779
 9682SOL    HW129827   7.987   4.941   5.885  1.3382  0.2845  0.2757
 9682SOL    HW229828   7.953   4.974   5.742 -1.3971  0.6858  0.9581
 9683SOL     OW29829   1.227   6.629   4.014  0.6269  0.4172  0.4336
 9683SOL    HW129830   1.224   6.725   4.013  0.4886  0.4648  2.0979
 9683SOL    HW229831   1.320   6.608   4.015  0.6584  0.5235 -0.0429
 9684SOL     OW29832   4.190   6.144   6.415  0.4514  0.4176 -0.1423
 9684SOL    HW129833   4.254   6.173   6.480 -1.2712  0.1386  1.7697
 9684SOL    HW229834   4.192   6.212   6.347  1.9515  0.9639  0.4175
 9685SOL     OW29835   1.108   6.621   2.723  0.1897  0.5833 -0.2073
 9685SOL    HW129836   1.076   6.532   2.707 -0.1413  0.2245  2.0223
 9685SOL    HW229837   1.191   6.608   2.769 -0.4785  1.3645  1.2948
 9686SOL     OW29838   3.766   4.371   0.433 -0.0350  0.1666 -0.2852
 9686SOL    HW129839   3.747   4.453   0.478  1.2118 -0.7466  2.1113
 9686SOL    HW229840   3.859   4.355   0.451 -0.6017 -2.5270  0.8075
 9687SOL     OW29841   3.630   5.245   0.311  0.0257 -0.0568 -0.0451
 9687SOL    HW129842   3.560   5.186   0.338  1.2050 -1.6320 -0.2717
 9687SOL    HW229843   3.708   5.211   0.354  0.9896  0.5575 -1.2335
 9688SOL     OW29844   1.928   6.025   3.088 -0.0491  0.1774  0.2038
 9688SOL    HW129845   1.890   6.023   3.000 -0.7703 -0.9547  0.5109
 9688SOL    HW229846   1.911   5.937   3.123  1.4676  0.1638  0.9639
 9689SOL     OW29847   2.530   6.742   2.095 -0.9606  0.1978  0.0036
 9689SOL    HW129848   2.477   6.772   2.020  0.6899  2.1335 -0.4689
 9689SOL    HW229849   2.519   6.647   2.094 -2.6910  0.3398 -1.3761
 9690SOL     OW29850   3.723   3.580   6.543 -0.1929  0.4873  0.1131
 9690SOL    HW129851   3.779   3.655   6.565 -1.5735  1.9685 -1.1590
 9690SOL    HW229852   3.754   3.552   6.457 -0.4066  0.3360  0.0845
 9691SOL     OW29853   6.208   4.665   1.287 -0.0563  0.2973  0.3828
 9691SOL    HW129854   6.160   4.654   1.205 -0.9723  0.9121  0.8174
 9691SOL    HW229855   6.162   4.608   1.349  0.4732  0.0322  0.5335
 9692SOL     OW29856   2.513   7.391   7.960 -0.5318 -0.1020 -0.3845
 9692SOL    HW129857   2.566   7.360   7.887  0.5879 -0.1144  0.4148
 9692SOL    HW229858   2.522   7.487   7.956 -0.2746 -0.1144 -0.1234
 9693SOL     OW29859   5.709   0.036   2.100  0.2180 -0.1120  0.4115
 9693SOL    HW129860   5.614   0.027   2.108  0.1126  0.4407 -0.1197
 9693SOL    HW229861   5.729   0.003   2.013  0.2429  1.6021 -0.2615
 9694SOL     OW29862   1.430   0.287   3.054 -0.6729 -0.1516  0.0699
 9694SOL    HW129863   1.407   0.208   3.005  0.2787 -0.3532 -0.0807
 9694SOL    HW229864   1.526   0.287   3.055 -0.6251 -0.8561  3.0251
 9695SOL     OW29865   4.160   7.215   2.940  0.0048  0.1149  0.0245
 9695SOL    HW129866   4.175   7.169   2.858  0.8517  0.3264  0.0452
 9695SOL    HW229867   4.065   7.229   2.943  0.0221  0.7092 -1.2524
 9696SOL     OW29868   0.045   0.217   0.321 -0.0925  0.5863  0.4882
 9696SOL    HW129869   0.098   0.154   0.272  0.4894  1.3412  0.1304
 9696SOL    HW229870   0.061   0.194   0.413  0.7849  0.7374  0.3851
 9697SOL     OW29871   6.414   6.569   8.071 -0.1390  0.7384 -0.2703
 9697SOL    HW129872   6.371   6.491   8.105  1.7640 -1.2364 -2.0747
 9697SOL    HW229873   6.388   6.572   7.979  1.5887  0.8734 -0.7846
 9698SOL     OW29874   5.185   3.357   7.548  0.6881  0.5678 -0.2647
 9698SOL    HW129875   5.092   3.351   7.526  0.3119 -1.5647  1.5526
 9698SOL    HW229876   5.207   3.450   7.537 -1.6966  1.1531 -0.5099
 9699SOL     OW29877   0.502   7.070   0.453  0.3488 -0.1336  0.4116
 9699SOL    HW129878   0.535   7.069   0.363 -1.0142  1.0413 -0.1396
 9699SOL    HW229879   0.408   7.057   0.445  0.1836  0.1423  1.6595
 9700SOL     OW29880   0.909   6.282   1.749 -0.1572  0.2619 -0.0738
 9700SOL    HW129881   0.871   6.341   1.815 -0.3645  0.6358 -0.5178
 9700SOL    HW229882   1.003   6.283   1.767 -0.4168 -1.3347  1.5684
 9701SOL     OW29883   3.672   2.824   3.145 -1.1410 -0.3977  0.6464
 9701SOL    HW129884   3.740   2.818   3.212 -1.5226 -1.1944  0.9770
 9701SOL    HW229885   3.694   2.755   3.082 -0.7169  0.4226 -0.1208
 9702SOL     OW29886   2.388   2.923   0.257 -0.5906  0.4118 -0.1908
 9702SOL    HW129887   2.443   2.879   0.191  0.3212  0.4177  0.5498
 9702SOL    HW229888   2.301   2.925   0.218 -0.6003 -1.7932 -0.3730
 9703SOL     OW29889   6.651   4.396   1.001  0.0501  0.1108 -0.3481
 9703SOL    HW129890   6.570   4.371   1.044  0.7599  1.5269  2.0321
 9703SOL    HW229891   6.705   4.317   1.001 -0.8308 -0.4984 -0.7679
 9704SOL     OW29892   0.409   4.598   1.277 -0.3309 -0.0757  0.1926
 9704SOL    HW129893   0.501   4.599   1.304 -0.1466 -1.9903 -0.2312
 9704SOL    HW229894   0.391   4.506   1.259 -2.5784  0.1493  1.0596
 9705SOL     OW29895   6.292   6.332   8.144  0.1370  0.0813  0.1737
 9705SOL    HW129896   6.339   6.266   8.195 -1.4430 -0.2006  1.3422
 9705SOL    HW229897   6.257   6.284   8.069  2.9026  0.5990 -1.6001
 9706SOL     OW29898   3.311   5.598   1.782 -0.3115 -0.1693  0.0396
 9706SOL    HW129899   3.284   5.585   1.873 -0.0251 -0.4783  0.0842
 9706SOL    HW229900   3.321   5.693   1.774  5.2953 -0.1514  2.0940
 9707SOL     OW29901   8.006   0.585   6.130 -0.0459 -0.0337 -0.2487
 9707SOL    HW129902   8.030   0.519   6.195  1.6709 -2.7255 -3.3558
 9707SOL    HW229903   7.912   0.599   6.143 -0.4088 -2.8494  0.7236
 9708SOL     OW29904   0.094   2.282   7.767  0.2288  0.6320 -1.0743
 9708SOL    HW129905   0.029   2.353   7.768  0.5145  0.9337  0.8818
 9708SOL    HW229906   0.088   2.244   7.854  1.7773 -0.1896 -1.3021
 9709SOL     OW29907   8.202   7.776   7.686 -0.3550 -0.7219  0.2161
 9709SOL    HW129908   8.113   7.810   7.694  0.1399  0.3921  1.4255
 9709SOL    HW229909   8.191   7.683   7.667 -1.7711 -0.6337  0.5058
 9710SOL     OW29910   2.110   7.871   7.239 -0.3630  0.3996 -0.2364
 9710SOL    HW129911   2.195   7.881   7.196  0.1702  2.0771  1.1463
 9710SOL    HW229912   2.048   7.915   7.180 -0.1196  0.0854 -0.7307
 9711SOL     OW29913   8.199   3.119   3.755 -0.7002  0.1111  0.1472
 9711SOL    HW129914   8.177   3.143   3.665 -1.2864 -0.1255  0.2240
 9711SOL    HW229915   8.217   3.202   3.799  2.6283  0.1123 -0.9300
 9712SOL     OW29916   1.936   1.726   2.183 -0.0724 -0.2574  0.4494
 9712SOL    HW129917   1.997   1.796   2.159 -0.4585  0.1654  0.6761
 9712SOL    HW229918   1.987   1.668   2.240 -0.0370  0.4090  1.1224
 9713SOL     OW29919   7.340   3.756   0.754 -0.0196 -0.3872  0.1534
 9713SOL    HW129920   7.371   3.764   0.844  0.3799 -1.7079  0.1538
 9713SOL    HW229921   7.244   3.756   0.762 -0.0312  1.4670  0.3639
 9714SOL     OW29922   3.113   1.677   5.150  0.2510 -0.2855  0.2674
 9714SOL    HW129923   3.031   1.650   5.107 -1.1043  2.8214  0.6716
 9714SOL    HW229924   3.092   1.673   5.244  0.7285  0.0749  0.3868
 9715SOL     OW29925   2.053   2.971   4.559  0.3809  0.3704  0.0947
 9715SOL    HW129926   2.048   2.954   4.464 -0.4646  0.8583  0.0384
 9715SOL    HW229927   2.135   3.018   4.570  1.3611 -1.1784 -0.1384
 9716SOL     OW29928   7.829   6.386   3.131 -0.0102 -0.0545 -0.5087
 9716SOL    HW129929   7.826   6.328   3.054  0.6774  0.4913 -0.9608
 9716SOL    HW229930   7.818   6.474   3.094 -0.3748  0.1552  0.1006
 9717SOL     OW29931   4.773   4.488   1.997  0.4869 -0.6755  0.3820
 9717SOL    HW129932   4.797   4.408   1.950  1.2708  0.7226 -1.7813
 9717SOL    HW229933   4.815   4.558   1.947 -1.9216  1.2882  0.8966
 9718SOL     OW29934   4.239   7.030   5.959  0.0438  0.6361 -0.0333
 9718SOL    HW129935   4.152   7.036   5.921 -0.4957 -1.1696  0.7719
 9718SOL    HW229936   4.230   7.064   6.048  0.2900  0.9548 -0.1288
 9719SOL     OW29937   1.466   3.882   5.287  0.1528  0.3468  0.0244
 9719SOL    HW129938   1.447   3.823   5.215  1.7359  0.0143 -0.1574
 9719SOL    HW229939   1.380   3.911   5.318 -0.6131 -1.1044 -0.6536
 9720SOL     OW29940   2.685   0.248   5.761 -0.3533 -0.2807  0.8678
 9720SOL    HW129941   2.718   0.213   5.678  1.9913  0.8243  1.2645
 9720SOL    HW229942   2.591   0.260   5.745 -0.2523 -1.5112 -1.0903
 9721SOL     OW29943   8.112   1.897   1.024 -0.0101  0.1030  0.0220
 9721SOL    HW129944   8.046   1.965   1.037  1.0987  1.2590 -0.1689
 9721SOL    HW229945   8.184   1.922   1.082 -0.0956 -1.6667  0.9606
 9722SOL     OW29946   6.697   5.859   7.238 -0.0546 -0.6599 -0.0334
 9722SOL    HW129947   6.608   5.833   7.214 -0.1209 -1.5032  1.0320
 9722SOL    HW229948   6.689   5.892   7.328  1.1000 -3.3209  1.1358
 9723SOL     OW29949   1.376   1.082   7.239  0.4185 -0.1982  0.0172
 9723SOL    HW129950   1.408   1.168   7.213 -3.4267  0.9462 -1.6386
 9723SOL    HW229951   1.413   1.022   7.175  0.3725  0.8076 -0.9806
 9724SOL     OW29952   2.833   1.472   4.316 -0.0443  0.7669 -0.6428
 9724SOL    HW129953   2.912   1.418   4.315 -0.9750 -0.6525 -0.9784
 9724SOL    HW229954   2.841   1.525   4.396  2.3553  2.4584 -1.8726
 9725SOL     OW29955   0.331   0.112   1.519  0.1700  0.4658 -0.1187
 9725SOL    HW129956   0.300   0.043   1.577 -0.8935 -0.7902 -2.0871
 9725SOL    HW229957   0.289   0.094   1.435  1.7358  2.1434 -1.3377
 9726SOL     OW29958   8.181   6.586   2.662 -0.6986 -0.5428  0.1401
 9726SOL    HW129959   8.143   6.670   2.637 -1.1025 -0.7424  0.0885
 9726SOL    HW229960   8.166   6.529   2.587  1.3137 -0.1274 -0.6492
 9727SOL     OW29961   7.928   4.741   3.455  0.0256  0.5737 -0.2575
 9727SOL    HW129962   7.936   4.810   3.389 -0.7496  0.8619 -0.0635
 9727SOL    HW229963   8.007   4.688   3.444  0.9167  1.8038 -0.0457
 9728SOL     OW29964   7.954   1.336   4.615  0.0664  0.0705  0.3266
 9728SOL    HW129965   8.014   1.334   4.689 -1.1216  0.1982  1.3190
 9728SOL    HW229966   7.905   1.417   4.626 -0.0039  0.1861 -0.7156
 9729SOL     OW29967   0.834   2.807   6.755  0.4998  0.4194 -0.3576
 9729SOL    HW129968   0.852   2.862   6.678 -1.9682  0.6066 -0.8973
 9729SOL    HW229969   0.754   2.760   6.732  0.1218 -0.1037  1.8216
 9730SOL     OW29970   6.446   0.736   1.788 -0.3254  0.0667 -0.2693
 9730SOL    HW129971   6.469   0.824   1.760 -0.3277 -0.2149 -1.1610
 9730SOL    HW229972   6.382   0.706   1.724  1.2871 -1.4088 -1.2504
 9731SOL     OW29973   6.036   0.725   3.097  0.3528  0.1033  0.1967
 9731SOL    HW129974   6.001   0.677   3.172 -1.6256 -0.3399 -0.9363
 9731SOL    HW229975   5.960   0.771   3.060  1.4004  0.8389 -1.1502
 9732SOL     OW29976   3.384   6.586   7.582 -0.2257  0.3406  0.8439
 9732SOL    HW129977   3.347   6.634   7.508  0.4392  1.4373  1.2167
 9732SOL    HW229978   3.388   6.495   7.551 -1.4461  0.5060  0.1194
 9733SOL     OW29979   4.996   8.028   5.008  0.1571 -1.3484  0.1446
 9733SOL    HW129980   4.951   8.110   5.031 -0.7656 -1.4108 -1.3401
 9733SOL    HW229981   4.973   7.968   5.079  0.8498 -0.3462  1.2638
 9734SOL     OW29982   1.531   4.470   4.006  0.0483 -0.0214  0.1957
 9734SOL    HW129983   1.568   4.386   4.034 -1.4298 -0.4614  0.9208
 9734SOL    HW229984   1.553   4.476   3.912  0.3127 -1.1346  0.1764
 9735SOL     OW29985   3.661   2.141   4.178  0.5026 -0.6622 -0.0976
 9735SOL    HW129986   3.568   2.148   4.156  0.6025 -0.0932 -0.3728
 9735SOL    HW229987   3.699   2.094   4.104 -0.0609 -3.8126  1.4504
 9736SOL     OW29988   2.405   2.285   5.089 -0.1463 -0.4848 -0.1170
 9736SOL    HW129989   2.364   2.224   5.150  0.9895 -1.5361 -0.3718
 9736SOL    HW229990   2.332   2.323   5.040 -1.0209 -0.1919  1.3375
 9737SOL     OW29991   2.403   3.344   1.154 -0.0045 -0.4674 -0.2085
 9737SOL    HW129992   2.327   3.374   1.104 -1.2701 -1.3210  1.1086
 9737SOL    HW229993   2.466   3.315   1.088 -1.4113 -1.0896 -1.3237
 9738SOL     OW29994   5.081   2.277   0.062 -0.0906 -0.9615 -0.1618
 9738SOL    HW129995   5.059   2.362   0.024 -0.2660 -0.9507 -0.0352
 9738SOL    HW229996   5.101   2.221  -0.013 -0.4719 -0.9510 -0.2703
 9739SOL     OW29997   2.162   4.384   8.253  0.3843 -0.6355 -0.3195
 9739SOL    HW129998   2.180   4.439   8.329 -0.9285 -0.3644 -0.1748
 9739SOL    HW229999   2.101   4.437   8.200 -2.2034 -2.5223  0.5847
 9740SOL     OW30000   4.882   3.864   1.267 -0.3089  0.3439 -0.6059
 9740SOL    HW130001   4.900   3.814   1.188  0.7930 -0.2985  0.0273
 9740SOL    HW230002   4.920   3.950   1.252 -0.7586  0.4645 -1.0587
 9741SOL     OW30003   0.344   7.733   2.433  0.7837 -0.2607 -0.0973
 9741SOL    HW130004   0.293   7.660   2.468 -0.5575  1.1718  1.0587
 9741SOL    HW230005   0.316   7.738   2.341 -0.5549 -0.0292  0.2997
 9742SOL     OW30006   7.532   7.136   1.865 -0.5516  0.2708  0.9817
 9742SOL    HW130007   7.582   7.189   1.803 -1.0001 -1.5352 -1.0470
 9742SOL    HW230008   7.440   7.153   1.843 -0.7251 -0.1850  1.3301
 9743SOL     OW30009   3.295   5.275   0.853  0.0806 -0.5802  0.2678
 9743SOL    HW130010   3.346   5.321   0.920  2.0309 -0.1236 -1.4586
 9743SOL    HW230011   3.260   5.345   0.798 -2.7327 -0.8596  1.5163
 9744SOL     OW30012   5.764   0.669   7.313  0.0544 -0.0435 -0.3935
 9744SOL    HW130013   5.846   0.688   7.359  0.4669 -0.1827 -1.0582
 9744SOL    HW230014   5.730   0.590   7.355  0.3747 -0.1128 -0.2638
 9745SOL     OW30015   4.501   6.061   2.661  0.5619  0.1799 -0.1815
 9745SOL    HW130016   4.523   6.083   2.752 -0.2696  1.3503 -0.2459
 9745SOL    HW230017   4.586   6.046   2.619  1.0799  1.6504  0.2939
 9746SOL     OW30018   4.044   4.830   3.268 -0.4118  0.4471 -0.4782
 9746SOL    HW130019   4.087   4.885   3.333 -1.4506  0.0804  0.5567
 9746SOL    HW230020   4.046   4.742   3.306 -0.6004  0.1397 -1.1646
 9747SOL     OW30021   3.053   8.088   2.844 -0.0016 -0.2865 -0.1101
 9747SOL    HW130022   2.987   8.147   2.808 -0.0377  0.8099  1.6378
 9747SOL    HW230023   3.133   8.108   2.795 -0.5065 -0.2438 -0.9222
 9748SOL     OW30024   6.665   6.836   2.375 -0.2280 -0.0564 -0.5699
 9748SOL    HW130025   6.671   6.898   2.302  0.3333 -1.7793 -2.0576
 9748SOL    HW230026   6.741   6.857   2.430  0.2027  0.3014 -1.2797
 9749SOL     OW30027   5.524   7.632   3.891  0.1051 -0.0176 -0.1029
 9749SOL    HW130028   5.510   7.552   3.942 -0.1773  0.0974  0.0023
 9749SOL    HW230029   5.479   7.700   3.940  0.0658  0.1454 -0.3623
 9750SOL     OW30030   0.503   4.161   0.881  0.1188  0.1640 -0.6255
 9750SOL    HW130031   0.511   4.255   0.895 -0.5293  0.1306  0.0776
 9750SOL    HW230032   0.563   4.122   0.945 -2.4364  0.0260  1.9064
 9751SOL     OW30033   3.811   7.363   0.634  0.3397 -0.1755 -0.5810
 9751SOL    HW130034   3.782   7.322   0.553  0.7092 -2.9502  0.6002
 9751SOL    HW230035   3.904   7.341   0.640  0.3972  0.2782  0.4479
 9752SOL     OW30036   5.992   4.532   0.520  0.5329 -0.2016  0.3849
 9752SOL    HW130037   5.930   4.548   0.449  1.6576  1.4896 -0.2722
 9752SOL    HW230038   5.952   4.462   0.571 -1.6009  0.3740 -0.3890
 9753SOL     OW30039   3.134   4.641   1.682 -0.2889 -0.9611 -0.0461
 9753SOL    HW130040   3.137   4.682   1.595 -0.8109  0.0666  0.3955
 9753SOL    HW230041   3.041   4.642   1.705 -0.1201 -0.9087  0.6619
 9754SOL     OW30042   6.772   1.473   3.370 -0.2697 -0.2549  0.5970
 9754SOL    HW130043   6.850   1.511   3.411 -0.5114 -0.0493  0.8730
 9754SOL    HW230044   6.798   1.383   3.348  0.5833  0.3036 -0.8254
 9755SOL     OW30045   1.478   7.094   2.613 -0.0241 -0.3692 -0.0051
 9755SOL    HW130046   1.400   7.070   2.664 -0.2283 -0.5017 -0.3724
 9755SOL    HW230047   1.468   7.045   2.531 -0.9320  1.6485 -1.1644
 9756SOL     OW30048   3.853   6.913   5.003  0.6897  0.4728 -0.2795
 9756SOL    HW130049   3.900   6.997   5.003 -1.1035  1.5343  0.4874
 9756SOL    HW230050   3.909   6.854   4.953  2.4823  1.8515 -0.0020
 9757SOL     OW30051   4.458   5.022   4.908 -0.1700 -0.1634  1.0161
 9757SOL    HW130052   4.394   5.030   4.837  1.3226  0.1209 -0.3547
 9757SOL    HW230053   4.478   5.112   4.933 -0.9124 -0.2626  2.0598
 9758SOL     OW30054   8.019   0.649   5.364 -0.0608 -0.9306 -0.5710
 9758SOL    HW130055   8.070   0.730   5.370 -1.3603 -0.1243  0.2645
 9758SOL    HW230056   8.059   0.591   5.428 -0.4381 -0.1435  0.4143
 9759SOL     OW30057   0.394   5.262   0.140  0.3488 -0.4181 -0.7387
 9759SOL    HW130058   0.308   5.302   0.123 -0.1821 -1.3776 -0.3676
 9759SOL    HW230059   0.421   5.300   0.224 -1.5632 -3.0255  1.2118
 9760SOL     OW30060   0.695   3.650   6.695  0.1842  0.0918 -0.1111
 9760SOL    HW130061   0.673   3.658   6.788  1.4097  2.4757  0.0608
 9760SOL    HW230062   0.687   3.557   6.675 -0.2968 -0.4353  2.3253
 9761SOL     OW30063   0.742   1.026   5.317 -0.1230  0.2944 -0.1386
 9761SOL    HW130064   0.732   1.089   5.246 -0.0867 -0.9480 -1.2781
 9761SOL    HW230065   0.678   1.053   5.383 -1.1270  0.6650 -1.2466
 9762SOL     OW30066   5.759   8.039   1.165 -0.4893  0.2800  0.4339
 9762SOL    HW130067   5.809   7.959   1.152 -1.1613 -0.0524 -0.2090
 9762SOL    HW230068   5.757   8.051   1.260 -0.0055 -0.2172  0.5092
 9763SOL     OW30069   3.770   3.243   6.250  0.0796 -0.7590 -0.3390
 9763SOL    HW130070   3.708   3.305   6.213 -0.3366 -1.2790 -0.5321
 9763SOL    HW230071   3.716   3.177   6.294  0.4203 -1.7357 -1.3117
 9764SOL     OW30072   5.669   2.321   4.520  1.0192 -0.3841  0.1989
 9764SOL    HW130073   5.640   2.292   4.433  0.7848  0.5515 -0.0541
 9764SOL    HW230074   5.699   2.411   4.506  1.1017 -0.2674  1.0658
 9765SOL     OW30075   1.739   6.584   1.021 -0.1013  0.2089  0.0327
 9765SOL    HW130076   1.744   6.679   1.021  0.8926  0.1808  1.1972
 9765SOL    HW230077   1.811   6.556   0.964  1.6085  0.1374  2.1148
 9766SOL     OW30078   5.990   6.679   3.656  0.0874  0.1910 -0.1388
 9766SOL    HW130079   5.956   6.760   3.618  1.1088  0.3755 -0.7186
 9766SOL    HW230080   5.952   6.675   3.744  0.4939  1.6175  0.1256
 9767SOL     OW30081   3.671   4.522   8.154  0.0990 -0.2739 -0.2146
 9767SOL    HW130082   3.674   4.456   8.085  1.6382  1.0867 -1.5113
 9767SOL    HW230083   3.723   4.595   8.121 -1.2017  1.4606  1.3387
 9768SOL     OW30084   5.490   0.089   0.127 -0.2682  0.6598 -0.3497
 9768SOL    HW130085   5.414   0.050   0.171 -0.4744  1.8089  0.3498
 9768SOL    HW230086   5.477   0.184   0.136  1.0730  0.8803 -0.5384
 9769SOL     OW30087   6.506   8.250   5.321  0.1543 -0.1793 -0.1579
 9769SOL    HW130088   6.507   8.345   5.308 -0.2151 -0.0979  0.3905
 9769SOL    HW230089   6.517   8.214   5.233 -1.6112  0.3575 -0.6446
 9770SOL     OW30090   3.913   0.927   8.048  0.2804  0.6342  1.0967
 9770SOL    HW130091   3.938   1.017   8.069  0.2749  1.2366 -1.2073
 9770SOL    HW230092   3.958   0.908   7.966  1.0521 -1.8505  2.0242
 9771SOL     OW30093   1.557   5.780   2.655  0.3414  0.5211 -0.1134
 9771SOL    HW130094   1.512   5.698   2.637  2.1097 -0.5914  0.3522
 9771SOL    HW230095   1.610   5.762   2.733 -0.4696  2.5998  1.0070
 9772SOL     OW30096   3.424   2.416   0.439 -0.1558  0.4792  0.3084
 9772SOL    HW130097   3.517   2.438   0.431  0.4196 -1.2700  1.4769
 9772SOL    HW230098   3.378   2.484   0.390  1.8778  0.0721 -2.3374
 9773SOL     OW30099   6.697   7.048   2.197 -0.2244  0.2995  0.2095
 9773SOL    HW130100   6.715   7.133   2.157  0.2149 -0.1187 -0.4930
 9773SOL    HW230101   6.772   6.993   2.174 -0.1965 -0.1052  1.1898
 9774SOL     OW30102   1.584   1.435   2.930 -0.1891 -0.2558 -0.5077
 9774SOL    HW130103   1.639   1.451   3.007 -0.3114  0.6773 -0.5956
 9774SOL    HW230104   1.501   1.402   2.966 -0.3932  0.5662 -0.1896
 9775SOL     OW30105   5.062   2.184   2.688  0.2578 -0.7479  0.3146
 9775SOL    HW130106   5.088   2.183   2.596  0.5814 -0.0760  0.3960
 9775SOL    HW230107   5.136   2.222   2.734 -0.2725 -0.2036  0.7375
 9776SOL     OW30108   0.373   1.966   4.770 -0.0635 -0.2340 -0.0003
 9776SOL    HW130109   0.424   1.885   4.772 -1.2961 -1.0544  2.5097
 9776SOL    HW230110   0.292   1.942   4.725  0.9976  0.6545 -2.5590
 9777SOL     OW30111   3.612   3.179   8.215  0.5995 -0.4424 -0.1489
 9777SOL    HW130112   3.613   3.092   8.257 -0.9071  0.1082  1.1383
 9777SOL    HW230113   3.546   3.171   8.146 -0.0229 -0.1474  0.4053
 9778SOL     OW30114   0.280   6.942   6.797  0.0782  0.1076  0.1182
 9778SOL    HW130115   0.189   6.953   6.827 -0.6150 -2.4775 -0.7738
 9778SOL    HW230116   0.326   6.909   6.875  0.2974  1.4079  0.5680
 9779SOL     OW30117   1.350   6.559   6.779 -0.4924 -0.3859 -0.1005
 9779SOL    HW130118   1.444   6.567   6.768 -0.5248 -0.5457 -0.5100
 9779SOL    HW230119   1.313   6.594   6.698 -0.8845  1.9059  1.0000
 9780SOL     OW30120   5.370   8.287   6.975 -0.1314 -0.9162 -0.9151
 9780SOL    HW130121   5.413   8.284   6.889 -1.8720 -1.9931 -1.8134
 9780SOL    HW230122   5.426   8.343   7.028  1.7956 -1.4141 -2.3068
 9781SOL     OW30123   4.125   2.331   1.188  0.1052  0.4103 -0.6539
 9781SOL    HW130124   4.184   2.383   1.134  0.7697  0.5600  0.1912
 9781SOL    HW230125   4.169   2.326   1.273  0.1732 -1.7370 -0.7732
 9782SOL     OW30126   4.877   5.412   5.627  0.0545 -0.4152 -0.4874
 9782SOL    HW130127   4.940   5.404   5.699  0.9059 -1.6855 -1.3314
 9782SOL    HW230128   4.817   5.339   5.641  0.4901 -0.9378 -1.2999
 9783SOL     OW30129   5.376   0.466   1.731 -0.1090 -0.0748  0.2473
 9783SOL    HW130130   5.354   0.543   1.783  2.8894  1.0925  0.0451
 9783SOL    HW230131   5.355   0.392   1.787 -1.5558  0.9490  1.1175
 9784SOL     OW30132   2.739   6.008   1.493 -0.5184 -0.4422 -0.2467
 9784SOL    HW130133   2.700   6.050   1.570  0.3456 -0.9883  0.5030
 9784SOL    HW230134   2.727   5.915   1.508  0.9741 -0.6204 -0.0462
 9785SOL     OW30135   5.652   0.615   0.296  0.3162 -0.5946  0.6025
 9785SOL    HW130136   5.652   0.543   0.359 -0.2809 -0.6942  0.4946
 9785SOL    HW230137   5.710   0.681   0.334 -1.3469  0.0792  2.0946
 9786SOL     OW30138   4.905   2.478   7.203 -0.0405  0.0081  0.1196
 9786SOL    HW130139   4.973   2.495   7.269 -0.4815 -0.1284  0.6236
 9786SOL    HW230140   4.867   2.563   7.185  0.1383  0.0578 -0.0208
 9787SOL     OW30141   6.522   0.196   5.257  0.0987 -0.1025  0.3922
 9787SOL    HW130142   6.474   0.244   5.325 -0.8916  1.1499 -1.1050
 9787SOL    HW230143   6.524   0.256   5.182  3.0181 -0.5864 -0.0396
 9788SOL     OW30144   3.038   0.086   5.441 -0.2828 -0.0814  0.0702
 9788SOL    HW130145   3.087   0.030   5.502  0.1157  0.0511 -0.1242
 9788SOL    HW230146   3.066   0.175   5.463  0.3921 -0.0802 -0.7700
 9789SOL     OW30147   1.621   4.802   4.585 -0.2251  0.2711 -0.1085
 9789SOL    HW130148   1.601   4.796   4.679  0.7548  1.6461  0.2264
 9789SOL    HW230149   1.555   4.748   4.543 -1.9280  1.1948  1.2392
 9790SOL     OW30150   5.731   0.398   3.318  1.0908 -0.0913  0.2524
 9790SOL    HW130151   5.769   0.320   3.277  2.7397  0.4426  0.6973
 9790SOL    HW230152   5.643   0.403   3.282  1.9298 -0.5368 -2.0279
 9791SOL     OW30153   1.883   2.593   3.412  0.3637  0.3225 -0.3643
 9791SOL    HW130154   1.877   2.680   3.452  1.0380 -0.2095  0.9658
 9791SOL    HW230155   1.804   2.548   3.443 -1.0118  1.0362 -2.6292
 9792SOL     OW30156   3.644   6.026   4.819 -0.1509 -0.0890 -0.3628
 9792SOL    HW130157   3.686   6.022   4.733  0.3971  2.0277 -0.2400
 9792SOL    HW230158   3.556   6.059   4.802 -0.3725 -0.5755 -0.1894
 9793SOL     OW30159   0.246   1.742   6.167  0.0992  0.2680 -0.5098
 9793SOL    HW130160   0.313   1.761   6.102  1.2461 -1.1903  0.2078
 9793SOL    HW230161   0.285   1.677   6.225 -0.7649  1.7067  1.8487
 9794SOL     OW30162   7.415   2.215   3.926 -0.3942  0.5259  0.2600
 9794SOL    HW130163   7.359   2.205   4.003 -1.2926 -0.4826 -0.4930
 9794SOL    HW230164   7.414   2.129   3.884  0.7832  0.8183 -0.4192
 9795SOL     OW30165   5.868   5.735   0.166  0.2562 -0.1997  0.5914
 9795SOL    HW130166   5.946   5.763   0.118 -0.8653 -0.5833 -1.5763
 9795SOL    HW230167   5.865   5.640   0.154 -1.9977  0.0520 -1.8790
 9796SOL     OW30168   3.635   7.326   5.271  0.2892  0.1688 -0.0587
 9796SOL    HW130169   3.549   7.357   5.301 -0.0161 -1.1447  0.5368
 9796SOL    HW230170   3.697   7.361   5.334 -0.1170 -0.8712  0.9685
 9797SOL     OW30171   4.525   7.784   1.942  0.2794  0.1755 -0.0497
 9797SOL    HW130172   4.600   7.743   1.985  0.2051 -0.4760 -0.5144
 9797SOL    HW230173   4.562   7.823   1.862 -0.1839 -2.0165 -1.4100
 9798SOL     OW30174   1.324   6.708   3.695 -0.5004  0.7665  0.7368
 9798SOL    HW130175   1.313   6.759   3.775  0.7283  2.4583 -0.0856
 9798SOL    HW230176   1.236   6.681   3.671 -0.7649 -1.2351  3.4787
 9799SOL     OW30177   1.771   4.562   4.840 -0.3143  0.4196 -0.0035
 9799SOL    HW130178   1.866   4.566   4.826 -0.0813  1.5422  1.5592
 9799SOL    HW230179   1.757   4.477   4.881 -0.1228 -0.1132 -1.0130
 9800SOL     OW30180   7.384   0.856   7.351  0.2349  0.6213  1.1642
 9800SOL    HW130181   7.464   0.832   7.399  0.0995  1.2661  1.7427
 9800SOL    HW230182   7.343   0.773   7.330  0.5511  0.3019  1.7554
 9801SOL     OW30183   1.596   3.971   1.747  0.0681 -0.1707  0.5178
 9801SOL    HW130184   1.668   4.023   1.711 -1.5094  1.1851 -0.8835
 9801SOL    HW230185   1.580   3.904   1.680 -0.1134 -0.3332  0.7228
 9802SOL     OW30186   6.601   8.315   3.762  0.3441  0.0951 -0.0575
 9802SOL    HW130187   6.541   8.363   3.705 -0.5017 -0.6955  0.1415
 9802SOL    HW230188   6.551   8.302   3.843  0.7333 -0.6702  0.0713
 9803SOL     OW30189   7.344   1.481   2.970 -0.8400 -0.9731  0.0512
 9803SOL    HW130190   7.305   1.494   2.884 -1.5608 -1.4251  0.3024
 9803SOL    HW230191   7.363   1.569   3.001 -1.1326 -0.7781 -0.3131
 9804SOL     OW30192   4.890   2.938   1.678  0.8257 -0.2542 -0.0640
 9804SOL    HW130193   4.936   2.945   1.761  0.5320  0.6355  0.0346
 9804SOL    HW230194   4.956   2.961   1.612  0.3045  2.1030  0.1461
 9805SOL     OW30195   1.774   7.777   5.420 -0.0101 -0.4272 -0.6154
 9805SOL    HW130196   1.784   7.690   5.382  2.9897 -0.0680 -0.8364
 9805SOL    HW230197   1.802   7.837   5.351 -1.1036  0.7034 -0.1214
 9806SOL     OW30198   5.355   2.735   2.774 -0.2022 -0.3013  0.2369
 9806SOL    HW130199   5.354   2.661   2.834 -2.2968 -1.7934 -1.5016
 9806SOL    HW230200   5.307   2.804   2.820  0.4128 -0.5211  1.2419
 9807SOL     OW30201   4.415   1.603   2.987 -0.6874 -0.1176 -0.3260
 9807SOL    HW130202   4.470   1.681   2.992 -0.7361 -0.1326  0.9588
 9807SOL    HW230203   4.368   1.602   3.071 -2.3884 -0.2870 -1.2288
 9808SOL     OW30204   0.204   0.526   5.285  0.0999 -0.0998 -0.0489
 9808SOL    HW130205   0.141   0.478   5.339 -1.0491 -0.7186 -1.8326
 9808SOL    HW230206   0.264   0.567   5.348 -1.9107  0.3023  1.7109
 9809SOL     OW30207   0.839   2.706   7.654 -0.4591  0.3955  0.3168
 9809SOL    HW130208   0.928   2.736   7.636 -0.9614  1.0363 -1.3135
 9809SOL    HW230209   0.794   2.783   7.688 -1.3498  1.2375 -2.4634
 9810SOL     OW30210   4.654   4.573   2.865 -0.2427 -0.4077  0.3508
 9810SOL    HW130211   4.641   4.624   2.945 -0.6901 -0.9342  0.6225
 9810SOL    HW230212   4.741   4.535   2.874  0.7151  1.4426 -0.5117
 9811SOL     OW30213   5.528   4.835   5.509 -0.4204  0.3386 -0.0459
 9811SOL    HW130214   5.507   4.753   5.465 -0.0019  0.4169 -0.3940
 9811SOL    HW230215   5.487   4.827   5.595  0.3170 -0.5793  0.2329
 9812SOL     OW30216   7.014   3.131   1.225  0.2918 -0.2506 -0.0050
 9812SOL    HW130217   7.076   3.204   1.235  0.9827 -0.7123 -0.8459
 9812SOL    HW230218   6.975   3.121   1.312  2.1864 -0.6531  0.8474
 9813SOL     OW30219   3.252   0.821   4.265  0.2422 -0.6975 -0.1928
 9813SOL    HW130220   3.182   0.839   4.328  1.0018  1.2731  0.1659
 9813SOL    HW230221   3.280   0.732   4.286 -1.2672 -1.0430  0.5117
 9814SOL     OW30222   7.522   6.259   4.210  0.7665  0.0087 -0.4512
 9814SOL    HW130223   7.512   6.342   4.164 -0.2034  0.6260  0.8084
 9814SOL    HW230224   7.590   6.212   4.161  2.9132  2.4041  0.0290
 9815SOL     OW30225   7.116   2.815   7.703 -0.0004 -0.0783  0.0811
 9815SOL    HW130226   7.175   2.740   7.699  1.5082  1.1086 -3.2297
 9815SOL    HW230227   7.162   2.879   7.756 -0.8947 -1.0722  2.1586
 9816SOL     OW30228   6.946   4.001   5.969  0.2905  0.1852  0.7969
 9816SOL    HW130229   6.961   3.907   5.979  1.5469  0.1588 -0.8190
 9816SOL    HW230230   6.856   4.008   5.939  0.3754 -0.5630  0.3349
 9817SOL     OW30231   4.059   1.514   6.608  0.0969  0.3246 -0.1903
 9817SOL    HW130232   4.100   1.522   6.694  0.5333 -1.2954 -0.2094
 9817SOL    HW230233   3.985   1.456   6.623 -1.3993  2.0857 -0.4416
 9818SOL     OW30234   1.835   3.690   8.315  0.3905 -0.5307 -0.1796
 9818SOL    HW130235   1.796   3.610   8.351 -0.5633  0.0321  0.0822
 9818SOL    HW230236   1.911   3.707   8.370  0.8599 -1.4929 -0.5130
 9819SOL     OW30237   3.768   0.495   2.015  0.6666  0.1281  0.3164
 9819SOL    HW130238   3.696   0.431   2.006 -1.4028  2.5007 -1.6338
 9819SOL    HW230239   3.818   0.486   1.934 -0.4552  1.7827 -0.6207
 9820SOL     OW30240   0.856   5.182   2.044  0.5567  0.0396 -0.3704
 9820SOL    HW130241   0.864   5.090   2.070  2.5478  0.3236  0.1889
 9820SOL    HW230242   0.853   5.230   2.127 -1.3337  0.4728 -0.6427
 9821SOL     OW30243   4.145   7.595   7.206  0.2096 -0.2049  0.2684
 9821SOL    HW130244   4.226   7.544   7.206  0.3729  0.0465 -0.1163
 9821SOL    HW230245   4.175   7.686   7.209 -0.0380 -0.0800 -0.7854
 9822SOL     OW30246   7.884   4.958   5.014 -0.1258 -0.5294  0.1801
 9822SOL    HW130247   7.884   5.043   5.060  0.2711 -0.4927  0.1135
 9822SOL    HW230248   7.953   4.908   5.057 -0.1293 -0.6957 -0.0093
 9823SOL     OW30249   5.931   6.552   0.070  0.5561  0.0704  0.0342
 9823SOL    HW130250   5.978   6.596   0.141  0.8124  0.1208 -0.1656
 9823SOL    HW230251   5.956   6.460   0.078 -1.2284 -0.3422  1.4512
 9824SOL     OW30252   3.370   2.802   4.013  0.0096  0.0030  0.1310
 9824SOL    HW130253   3.410   2.773   4.095 -0.9023 -2.1405 -0.1185
 9824SOL    HW230254   3.417   2.882   3.990  1.4681 -0.3114  1.8418
 9825SOL     OW30255   8.005   1.901   4.452  0.0793 -0.3757 -0.1038
 9825SOL    HW130256   7.920   1.857   4.450  0.3090 -0.8316 -0.0648
 9825SOL    HW230257   8.069   1.830   4.439  0.3859  0.1793 -2.0054
 9826SOL     OW30258   2.808   2.452   2.087  0.3499 -0.0863 -0.2175
 9826SOL    HW130259   2.835   2.536   2.050  1.2199  0.3385  1.2892
 9826SOL    HW230260   2.883   2.423   2.139  0.4097 -2.2360 -1.3595
 9827SOL     OW30261   5.713   5.017   4.803 -0.2530  0.4299  0.6529
 9827SOL    HW130262   5.788   4.958   4.814 -0.1351  0.8160  2.2463
 9827SOL    HW230263   5.662   5.005   4.883 -1.2397  1.0997  0.1402
 9828SOL     OW30264   4.222   5.556   1.793  0.0685  0.3445  0.1138
 9828SOL    HW130265   4.145   5.527   1.743  0.2216 -0.9055  0.5635
 9828SOL    HW230266   4.235   5.647   1.767 -1.3078  0.4468 -0.2948
 9829SOL     OW30267   4.698   3.287   5.106 -0.2630 -0.1950  0.0912
 9829SOL    HW130268   4.767   3.222   5.095 -0.1643  0.0842 -1.0290
 9829SOL    HW230269   4.733   3.348   5.172  0.5421 -0.0888 -0.4185
 9830SOL     OW30270   0.358   4.654   7.803 -0.3594 -0.5460 -0.3902
 9830SOL    HW130271   0.308   4.710   7.743  1.0996  0.7356 -0.4531
 9830SOL    HW230272   0.291   4.615   7.860 -1.5436  0.1264 -1.2592
 9831SOL     OW30273   4.546   6.286   3.259 -0.1433 -0.7301  0.0641
 9831SOL    HW130274   4.505   6.199   3.251  0.2992 -1.0264  0.9311
 9831SOL    HW230275   4.473   6.345   3.277 -0.6323 -0.6827 -1.8410
 9832SOL     OW30276   5.278   4.852   0.124 -0.1681  0.3649 -0.0589
 9832SOL    HW130277   5.288   4.914   0.196 -1.4042  0.1248  0.3374
 9832SOL    HW230278   5.285   4.766   0.164  0.2486  0.2281 -0.4112
 9833SOL     OW30279   2.236   3.261   3.229  0.2186  0.0712  0.1392
 9833SOL    HW130280   2.272   3.199   3.165 -1.0719 -0.0817 -0.4684
 9833SOL    HW230281   2.145   3.234   3.239  0.4528 -0.0906  2.2833
 9834SOL     OW30282   1.683   1.837   6.570 -0.4611 -0.2584 -0.7328
 9834SOL    HW130283   1.710   1.921   6.531 -0.6844 -0.5395 -1.4977
 9834SOL    HW230284   1.631   1.795   6.503  1.7651 -2.1607 -1.3868
 9835SOL     OW30285   7.716   4.533   5.484 -0.0316 -0.2589 -0.1332
 9835SOL    HW130286   7.756   4.609   5.441 -0.3432 -0.6931 -1.2201
 9835SOL    HW230287   7.759   4.457   5.444  0.6198 -0.6658  1.2833
 9836SOL     OW30288   3.702   2.124   1.570  0.1032  0.2782 -0.2592
 9836SOL    HW130289   3.721   2.217   1.577  0.9953 -0.0145  1.5857
 9836SOL    HW230290   3.780   2.087   1.528  0.3856  0.1609  0.3618
 9837SOL     OW30291   4.937   0.034   8.204 -0.0191 -0.5221  0.2513
 9837SOL    HW130292   4.908  -0.053   8.176 -0.7869  0.3481 -1.7935
 9837SOL    HW230293   4.857   0.079   8.230  0.1810  0.0590 -0.1226
 9838SOL     OW30294   4.478   1.299   5.053 -0.1220 -0.1591  0.3539
 9838SOL    HW130295   4.406   1.316   4.992  0.8329 -1.3626 -1.2082
 9838SOL    HW230296   4.449   1.336   5.136 -1.5629  1.4055 -0.7751
 9839SOL     OW30297   5.235   6.403   4.300 -0.2037  0.3565  0.1012
 9839SOL    HW130298   5.228   6.497   4.318 -0.0285  0.2812  0.5744
 9839SOL    HW230299   5.327   6.389   4.279 -0.6084  0.6580 -2.1829
 9840SOL     OW30300   3.750   4.748   3.871 -0.1152 -0.4290  0.0632
 9840SOL    HW130301   3.727   4.832   3.832  1.8120 -0.7287 -1.9177
 9840SOL    HW230302   3.812   4.770   3.941 -0.1154 -0.1678 -0.0177
 9841SOL     OW30303   3.557   4.940   0.360  0.1753  0.0857  0.0655
 9841SOL    HW130304   3.518   4.982   0.437  0.7977  0.1534  0.3511
 9841SOL    HW230305   3.639   4.988   0.346 -0.3915  0.7096 -1.2333
 9842SOL     OW30306   6.205   1.621   2.480 -0.7997 -0.2019  0.2340
 9842SOL    HW130307   6.268   1.583   2.541 -0.7594 -0.8767 -0.2194
 9842SOL    HW230308   6.248   1.617   2.395 -0.9031  0.6252  0.1347
 9843SOL     OW30309   6.576   6.142   6.103 -0.1256 -0.1459  0.1567
 9843SOL    HW130310   6.618   6.118   6.021  0.6282  3.7970 -0.8108
 9843SOL    HW230311   6.638   6.114   6.171  0.4829 -1.1190 -0.7798
 9844SOL     OW30312   4.214   0.821   5.520 -0.5018 -0.4957 -0.2532
 9844SOL    HW130313   4.129   0.809   5.477 -2.2531  0.8819  2.5432
 9844SOL    HW230314   4.221   0.916   5.533  0.9474 -0.6856  0.5947
 9845SOL     OW30315   3.139   2.487   1.964  0.5857 -0.0222 -0.1865
 9845SOL    HW130316   3.118   2.464   1.873  0.5337 -2.2215  0.3249
 9845SOL    HW230317   3.226   2.526   1.959  0.1422  0.9072 -1.2843
 9846SOL     OW30318   6.568   0.545   0.192 -0.1260 -1.1080 -0.1881
 9846SOL    HW130319   6.560   0.519   0.100  0.4260 -0.7636 -0.3362
 9846SOL    HW230320   6.500   0.611   0.205 -0.2857 -1.2473 -0.3098
 9847SOL     OW30321   1.845   3.493   0.304  0.1119 -0.6469 -0.0086
 9847SOL    HW130322   1.921   3.442   0.334  1.2131 -0.3171 -2.1032
 9847SOL    HW230323   1.882   3.574   0.269 -1.5688  1.5501  2.8318
 9848SOL     OW30324   0.453   0.503   1.194 -0.5876 -0.1359  0.2532
 9848SOL    HW130325   0.523   0.443   1.218  1.6330  1.8296 -0.8868
 9848SOL    HW230326   0.391   0.498   1.266  1.4186 -0.9530  2.0155
 9849SOL     OW30327   2.915   2.973   6.089  0.3629 -0.2440 -0.4236
 9849SOL    HW130328   2.837   3.021   6.119  0.9051  1.1720 -1.1919
 9849SOL    HW230329   2.913   2.892   6.140 -2.0365 -0.6234 -0.9879
 9850SOL     OW30330   3.468   1.350   3.906 -0.1556 -0.0432 -0.2016
 9850SOL    HW130331   3.557   1.383   3.897 -0.5453  1.6620  1.4834
 9850SOL    HW230332   3.477   1.255   3.911  1.4432  0.0366 -0.9789
 9851SOL     OW30333   3.725   2.410   7.378 -0.2413 -0.0630  0.3171
 9851SOL    HW130334   3.632   2.432   7.387 -0.4979  0.4592 -2.6467
 9851SOL    HW230335   3.727   2.340   7.313  1.2812 -2.5460  2.8023
 9852SOL     OW30336   3.778   6.319   4.622 -0.2373 -0.3170  0.5301
 9852SOL    HW130337   3.698   6.368   4.641  0.9113  1.0824  2.1251
 9852SOL    HW230338   3.808   6.354   4.539 -0.6410  0.0460  0.5322
 9853SOL     OW30339   0.448   7.827   6.676 -0.0605 -0.4901  0.1106
 9853SOL    HW130340   0.385   7.848   6.746 -0.0188 -0.0073  0.0118
 9853SOL    HW230341   0.508   7.764   6.716 -0.6547 -1.0204  0.1796
 9854SOL     OW30342   3.063   2.873   2.961  0.4986 -0.3132  0.0418
 9854SOL    HW130343   3.049   2.862   2.867 -1.4961  3.1896 -0.2201
 9854SOL    HW230344   3.119   2.950   2.969 -1.2639  0.8719  1.7125
 9855SOL     OW30345   2.138   7.586   1.456  0.1534  0.8374  0.3138
 9855SOL    HW130346   2.205   7.593   1.388 -0.6622 -0.1418 -0.6170
 9855SOL    HW230347   2.057   7.615   1.414 -0.2364  0.9481  1.1059
 9856SOL     OW30348   1.088   5.309   0.039  0.0748  0.1058  0.1763
 9856SOL    HW130349   1.060   5.337   0.126 -1.0900  2.5452 -0.8736
 9856SOL    HW230350   1.037   5.363  -0.021  2.9837  0.7434 -1.9864
 9857SOL     OW30351   6.087   1.306   6.440  0.3747  0.1531 -0.2646
 9857SOL    HW130352   6.049   1.389   6.468  0.0548 -0.3228  0.7412
 9857SOL    HW230353   6.170   1.331   6.399  0.4991  0.9290  0.4334
 9858SOL     OW30354   7.441   3.872   5.652 -0.2306  0.0771  0.1633
 9858SOL    HW130355   7.441   3.838   5.562 -1.9005 -0.1110  0.2012
 9858SOL    HW230356   7.412   3.797   5.705  1.9905 -0.2196  1.0720
 9859SOL     OW30357   7.709   8.113   1.583  0.0642  0.4514  0.0930
 9859SOL    HW130358   7.623   8.126   1.623 -0.1327  0.1970 -0.2444
 9859SOL    HW230359   7.768   8.168   1.635 -0.2516  0.4100  0.5029
 9860SOL     OW30360   0.868   6.457   4.685 -0.1338  0.7089  0.0957
 9860SOL    HW130361   0.856   6.488   4.595 -1.7983  0.5367  0.2258
 9860SOL    HW230362   0.962   6.439   4.691  0.0795  1.0630 -1.4903
 9861SOL     OW30363   4.371   2.697   2.051  0.3298 -0.4772 -0.3691
 9861SOL    HW130364   4.326   2.680   1.968  2.5738  3.2246 -2.6759
 9861SOL    HW230365   4.305   2.738   2.106 -1.0116 -2.2667 -0.5845
 9862SOL     OW30366   0.974   3.528   2.003 -0.4312 -0.3707  0.4537
 9862SOL    HW130367   0.953   3.491   1.918  0.8530 -1.2090  0.4816
 9862SOL    HW230368   0.959   3.622   1.992 -1.4083 -0.6012 -0.3275
 9863SOL     OW30369   2.415   1.227   4.374 -0.5477  0.2970 -0.0741
 9863SOL    HW130370   2.343   1.177   4.412 -0.2580  0.8739  1.3098
 9863SOL    HW230371   2.399   1.225   4.280 -1.7353 -0.5344  0.1215
 9864SOL     OW30372   7.189   8.156   5.643 -0.1029 -0.3764 -0.0528
 9864SOL    HW130373   7.110   8.116   5.681 -0.5783  0.4053 -0.1876
 9864SOL    HW230374   7.250   8.162   5.716 -1.0862  1.3216  0.7030
 9865SOL     OW30375   5.735   5.189   2.345 -0.7461  0.3104 -0.1202
 9865SOL    HW130376   5.653   5.237   2.355 -1.7486 -1.5153  1.1416
 9865SOL    HW230377   5.760   5.167   2.435 -0.1627 -1.1738 -0.6246
 9866SOL     OW30378   0.969   4.292   2.293  0.1115  0.0936  1.2159
 9866SOL    HW130379   0.918   4.352   2.239  1.3531 -1.5060 -1.9894
 9866SOL    HW230380   1.057   4.330   2.294  0.7436 -1.1982 -0.2806
 9867SOL     OW30381   3.657   7.166   5.834  0.1359 -0.0425  0.0388
 9867SOL    HW130382   3.620   7.242   5.880  0.6738  0.9385 -1.1106
 9867SOL    HW230383   3.740   7.150   5.878 -0.3899 -0.5596  0.8755
 9868SOL     OW30384   4.059   2.408   5.746  0.2622  0.1092  0.0296
 9868SOL    HW130385   4.000   2.474   5.783 -0.4424  0.2839 -1.3330
 9868SOL    HW230386   4.136   2.410   5.802 -0.3135  1.1235  0.8184
 9869SOL     OW30387   1.792   6.221   0.855  0.2445 -0.3841 -0.1491
 9869SOL    HW130388   1.866   6.166   0.832  0.3584 -0.2890 -0.0132
 9869SOL    HW230389   1.734   6.165   0.906  1.2806  0.1348  1.6788
 9870SOL     OW30390   6.353   0.228   5.911 -0.0125 -0.1388  0.4442
 9870SOL    HW130391   6.376   0.176   5.834 -0.6232 -0.3600  0.4005
 9870SOL    HW230392   6.435   0.241   5.958  0.5335  0.8190 -0.7338
 9871SOL     OW30393   1.710   6.513   2.806 -0.1582 -0.2045  0.3869
 9871SOL    HW130394   1.645   6.553   2.864  2.0079  1.1938  1.9433
 9871SOL    HW230395   1.695   6.419   2.816 -0.3845  0.0256  2.5855
 9872SOL     OW30396   5.501   6.369   4.258  0.5499  0.0024 -0.8914
 9872SOL    HW130397   5.517   6.462   4.248 -0.2845  0.2792  0.1647
 9872SOL    HW230398   5.571   6.338   4.315 -0.9963  0.6846  1.5280
 9873SOL     OW30399   4.753   6.992   4.547  0.2697 -0.3584 -0.0394
 9873SOL    HW130400   4.800   7.073   4.561  0.6039 -0.7058  0.9026
 9873SOL    HW230401   4.818   6.932   4.511  0.7167 -0.9882  1.7233
 9874SOL     OW30402   4.172   4.376   5.538  0.3682  0.1261 -0.1251
 9874SOL    HW130403   4.173   4.359   5.632 -1.6259 -0.9342 -0.2174
 9874SOL    HW230404   4.258   4.348   5.507  1.0499  0.4846  1.3761
 9875SOL     OW30405   2.511   2.048   5.336 -0.5776 -0.2926  0.2897
 9875SOL    HW130406   2.550   2.018   5.254 -2.6625 -1.6851 -0.2702
 9875SOL    HW230407   2.429   2.091   5.310 -0.4555  0.7578  1.5250
 9876SOL     OW30408   2.071   7.466   0.392 -0.0198  0.5760  0.0424
 9876SOL    HW130409   2.140   7.433   0.449 -0.7581  0.8197  1.0965
 9876SOL    HW230410   2.108   7.546   0.354 -0.1344  1.3275  1.4825
 9877SOL     OW30411   6.124   1.352   7.731  0.6623 -0.4851  0.3372
 9877SOL    HW130412   6.112   1.292   7.657 -0.3140  0.7920 -0.5736
 9877SOL    HW230413   6.173   1.426   7.694  0.0476  0.2332  0.9276
 9878SOL     OW30414   1.056   7.221   0.519  1.0635  0.0021 -0.2130
 9878SOL    HW130415   0.968   7.187   0.506  0.6702  0.3286  1.4056
 9878SOL    HW230416   1.111   7.143   0.528  0.9895 -0.2015 -1.3883
 9879SOL     OW30417   2.771   3.520   0.015  0.1462  0.0337  0.4695
 9879SOL    HW130418   2.726   3.475  -0.057 -0.3134 -2.0819  1.9791
 9879SOL    HW230419   2.747   3.613   0.003 -0.0577 -0.2547 -1.9440
 9880SOL     OW30420   6.135   2.221   2.520 -0.3091 -0.3024  0.3736
 9880SOL    HW130421   6.190   2.163   2.572  0.0069  0.8660  1.4010
 9880SOL    HW230422   6.046   2.199   2.546 -0.3116 -1.6069 -0.6560
 9881SOL     OW30423   6.360   1.445   2.710  0.2726 -0.4629 -0.5635
 9881SOL    HW130424   6.391   1.457   2.800  1.2040 -0.4189 -0.8740
 9881SOL    HW230425   6.274   1.405   2.719  1.0078 -1.9663  0.3487
 9882SOL     OW30426   2.637   5.791   7.223  0.5423  0.9554 -0.5765
 9882SOL    HW130427   2.673   5.726   7.283 -0.2163  0.3030 -0.8085
 9882SOL    HW230428   2.550   5.810   7.258 -0.1517  0.1317 -1.7475
 9883SOL     OW30429   3.056   6.827   0.760 -0.0598 -0.3722 -0.1898
 9883SOL    HW130430   2.964   6.802   0.769 -0.0183 -1.7060 -2.6433
 9883SOL    HW230431   3.106   6.750   0.786  0.4422  0.4595  1.4821
 9884SOL     OW30432   1.681   2.464   0.336 -0.1886  0.1595  0.3258
 9884SOL    HW130433   1.598   2.479   0.381 -0.6537  0.3976 -0.5692
 9884SOL    HW230434   1.742   2.439   0.405 -0.7436  0.9912  1.1510
 9885SOL     OW30435   3.869   7.131   2.933 -0.1748 -0.9138 -0.1971
 9885SOL    HW130436   3.832   7.149   2.847  2.8416  1.7803 -1.1153
 9885SOL    HW230437   3.902   7.042   2.927 -3.0128 -2.0297 -0.5535
 9886SOL     OW30438   4.533   0.902   4.273  0.5490  0.1616  0.1960
 9886SOL    HW130439   4.569   0.988   4.292  0.3244  0.7026 -1.6464
 9886SOL    HW230440   4.465   0.918   4.207 -1.0044 -1.1826  1.3645
 9887SOL     OW30441   7.989   3.008   0.257 -0.1094  0.7973  0.1084
 9887SOL    HW130442   7.934   2.930   0.247 -1.5621  1.5082  1.9718
 9887SOL    HW230443   8.007   3.013   0.351  2.3601  1.1736 -0.3231
 9888SOL     OW30444   0.298   1.526   5.197 -0.1966  0.5465 -0.0835
 9888SOL    HW130445   0.281   1.498   5.287  1.3946  0.1932  0.1436
 9888SOL    HW230446   0.243   1.469   5.144 -0.2754 -0.0536  0.6143
 9889SOL     OW30447   0.271   3.086   5.568  0.0397 -0.4684  0.1610
 9889SOL    HW130448   0.217   3.142   5.513 -1.8975 -1.5608  0.8521
 9889SOL    HW230449   0.287   3.138   5.647 -2.8689 -1.2537  1.3744
 9890SOL     OW30450   6.414   1.082   8.176 -1.0202 -0.3223 -0.8844
 9890SOL    HW130451   6.458   1.079   8.091 -0.6095  0.0878 -0.6933
 9890SOL    HW230452   6.465   1.146   8.226 -0.0411 -2.0213  0.3646
 9891SOL     OW30453   3.732   4.810   5.763 -0.2735 -0.3048  0.1591
 9891SOL    HW130454   3.817   4.787   5.726 -0.8226 -0.9555 -0.7310
 9891SOL    HW230455   3.734   4.775   5.852 -0.2989 -1.9867 -0.4767
 9892SOL     OW30456   8.036   0.775   5.748  0.5268  0.0756 -0.0457
 9892SOL    HW130457   7.982   0.813   5.817 -1.5360 -0.1776 -1.4362
 9892SOL    HW230458   8.057   0.687   5.779  0.2837  0.2315  0.5770
 9893SOL     OW30459   8.219   5.954   6.701 -0.2818 -0.5648  0.7322
 9893SOL    HW130460   8.305   5.936   6.663 -1.0181 -3.4063  0.1554
 9893SOL    HW230461   8.237   6.001   6.782  1.7134 -0.1383  0.0919
 9894SOL     OW30462   5.319   4.305   7.952 -0.4982  0.2798 -0.5068
 9894SOL    HW130463   5.376   4.255   7.894 -0.5608 -0.0400 -0.2924
 9894SOL    HW230464   5.371   4.321   8.030 -0.4704  0.5703 -0.5829
 9895SOL     OW30465   6.763   2.356   0.537 -0.5855  0.2028 -0.6441
 9895SOL    HW130466   6.741   2.441   0.498 -1.1389 -0.5240 -1.9815
 9895SOL    HW230467   6.754   2.370   0.631 -1.8140  1.3359 -0.8935
 9896SOL     OW30468   8.082   1.886   8.003  0.3825 -0.0822  0.5634
 9896SOL    HW130469   8.140   1.863   8.076  1.2981 -1.0359 -0.4190
 9896SOL    HW230470   8.037   1.804   7.983  0.2633  0.1309 -0.0460
 9897SOL     OW30471   0.824   0.769   1.956  0.4045  0.4248  0.1719
 9897SOL    HW130472   0.872   0.714   2.018 -0.0391 -0.3970 -0.1986
 9897SOL    HW230473   0.814   0.714   1.878 -0.2942  0.9295 -0.1032
 9898SOL     OW30474   8.130   0.316   1.128 -0.0742 -0.0775  0.6527
 9898SOL    HW130475   8.130   0.237   1.182 -1.5336  0.5998  1.7365
 9898SOL    HW230476   8.171   0.383   1.183 -1.0430  0.4767  0.7351
 9899SOL     OW30477   8.236   1.073   7.476 -1.0397  0.4319  0.3964
 9899SOL    HW130478   8.246   1.044   7.385  2.7486  0.3817  0.6871
 9899SOL    HW230479   8.287   1.011   7.527 -1.2542  1.7392  2.3082
 9900SOL     OW30480   3.960   2.869   2.980 -0.5052 -0.0371 -0.4440
 9900SOL    HW130481   4.023   2.857   2.909 -0.0940  0.7950 -0.2270
 9900SOL    HW230482   3.904   2.791   2.975 -0.1924 -0.2201 -1.3752
 9901SOL     OW30483   6.126   2.654   0.015  0.1362  0.2945 -0.1400
 9901SOL    HW130484   6.149   2.572  -0.027 -0.1972 -0.3023  0.8092
 9901SOL    HW230485   6.169   2.721  -0.037 -0.6744 -0.3667 -1.7357
 9902SOL     OW30486   3.168   4.826   2.817  0.1420 -0.5137 -0.3600
 9902SOL    HW130487   3.245   4.834   2.760  0.1162  0.3279 -0.2783
 9902SOL    HW230488   3.202   4.842   2.905  0.0147 -0.9503 -0.2271
 9903SOL     OW30489   2.451   8.237   0.337  0.2204  0.2585 -0.8050
 9903SOL    HW130490   2.404   8.213   0.257  0.3071 -1.0762 -0.4747
 9903SOL    HW230491   2.503   8.160   0.358 -0.9116  0.0247  1.3691
 9904SOL     OW30492   7.034   5.514   4.316 -0.3593 -0.0182 -0.5045
 9904SOL    HW130493   7.099   5.560   4.262  1.2361 -1.9436 -0.3356
 9904SOL    HW230494   6.976   5.472   4.253  0.4198 -0.7872 -0.7260
 9905SOL     OW30495   5.173   0.017   3.540  0.2034  0.2942  0.2014
 9905SOL    HW130496   5.204  -0.050   3.600 -0.3602  0.3671  0.5774
 9905SOL    HW230497   5.189   0.099   3.585  0.8861  0.4247 -0.2559
 9906SOL     OW30498   1.933   2.803   5.277 -0.4840 -0.1499  0.5944
 9906SOL    HW130499   1.871   2.737   5.246 -0.5162 -0.7810  1.9203
 9906SOL    HW230500   2.003   2.752   5.319  0.8143  0.5536 -0.6256
 9907SOL     OW30501   4.975   1.068   2.841 -0.3404  0.5115 -0.0382
 9907SOL    HW130502   4.901   1.012   2.818 -0.8641  0.8285  0.8226
 9907SOL    HW230503   4.936   1.148   2.875  0.3892  0.6993  0.4003
 9908SOL     OW30504   3.694   1.386   0.088 -0.3353  0.0583  0.1827
 9908SOL    HW130505   3.692   1.298   0.051 -0.3266  0.1478 -0.0324
 9908SOL    HW230506   3.783   1.395   0.123  0.4394  0.8004 -1.8235
 9909SOL     OW30507   5.332   5.861   2.504  0.2594 -0.5964 -0.1131
 9909SOL    HW130508   5.274   5.785   2.514 -0.3740 -0.2301 -0.8417
 9909SOL    HW230509   5.280   5.925   2.455 -0.2644  1.4628  2.8583
 9910SOL     OW30510   6.863   6.826   3.356  0.3819 -0.1822 -0.2224
 9910SOL    HW130511   6.872   6.862   3.444  3.2970 -0.7446 -0.2128
 9910SOL    HW230512   6.833   6.899   3.302 -1.0290  0.2716  1.1160
 9911SOL     OW30513   5.431   7.222   5.657  0.4692  0.3995  0.0578
 9911SOL    HW130514   5.367   7.184   5.598  0.0297  0.7021  0.3362
 9911SOL    HW230515   5.511   7.171   5.642 -1.1517 -3.8844  3.7163
 9912SOL     OW30516   0.497   5.877   1.328 -0.1827  0.2678  0.0702
 9912SOL    HW130517   0.540   5.836   1.253 -0.6112  1.6524 -0.9754
 9912SOL    HW230518   0.406   5.887   1.302 -0.2865  1.0057  0.6643
 9913SOL     OW30519   4.869   5.176   2.014 -0.5309  0.8503 -0.2150
 9913SOL    HW130520   4.890   5.154   2.104  1.9126 -0.3311 -1.0107
 9913SOL    HW230521   4.937   5.238   1.988 -1.7069  1.8565 -1.0217
 9914SOL     OW30522   7.853   7.902   5.052  0.2496 -0.0501 -0.3058
 9914SOL    HW130523   7.780   7.861   5.005  0.3748 -0.6413  0.0129
 9914SOL    HW230524   7.909   7.936   4.983  0.6263 -1.2499 -0.6141
 9915SOL     OW30525   7.519   7.657   1.564  0.3644  0.3659  0.6973
 9915SOL    HW130526   7.498   7.570   1.531 -1.2198  0.3952  1.5322
 9915SOL    HW230527   7.479   7.717   1.501  1.6126  0.5340  0.0190
 9916SOL     OW30528   5.183   4.818   7.776 -0.1935  0.8508 -0.3372
 9916SOL    HW130529   5.238   4.743   7.753  0.1313  0.7199  0.7834
 9916SOL    HW230530   5.190   4.877   7.702 -1.8711 -0.9847 -2.0900
 9917SOL     OW30531   6.066   0.017   7.859 -0.3457 -0.1545  0.0332
 9917SOL    HW130532   6.119  -0.050   7.902 -1.2183 -0.6110  0.4398
 9917SOL    HW230533   5.995   0.035   7.921 -0.4404  0.7381 -0.3158
 9918SOL     OW30534   5.129   3.299   7.847  0.1573  0.3969 -0.2413
 9918SOL    HW130535   5.121   3.286   7.753  0.5556 -0.7714 -0.1294
 9918SOL    HW230536   5.184   3.376   7.856  2.3196 -0.9493 -1.0055
 9919SOL     OW30537   6.439   0.327   1.247 -0.4762 -0.3868 -0.4888
 9919SOL    HW130538   6.441   0.250   1.303 -2.4736  0.4173  0.7981
 9919SOL    HW230539   6.404   0.297   1.164  0.6106 -1.2025 -0.6744
 9920SOL     OW30540   4.024   1.008   7.181  0.1087 -0.0179 -0.6024
 9920SOL    HW130541   3.972   0.995   7.101 -1.5616  1.6941  0.1408
 9920SOL    HW230542   4.110   1.036   7.149 -0.3071 -0.0700 -1.8214
 9921SOL     OW30543   0.094   6.095   3.161 -1.0390  0.0307  0.1207
 9921SOL    HW130544   0.183   6.125   3.176 -0.5172  0.3957 -3.1066
 9921SOL    HW230545   0.050   6.169   3.119 -1.2307 -1.8099 -3.2328
 9922SOL     OW30546   0.948   6.537   6.984 -0.1088  0.0155  0.4219
 9922SOL    HW130547   0.878   6.584   7.031  0.5929  0.3498  1.1470
 9922SOL    HW230548   1.005   6.606   6.950  0.9657 -0.2898  1.5483
 9923SOL     OW30549   6.066   1.712   4.876  0.0717 -0.1236  0.5470
 9923SOL    HW130550   5.984   1.729   4.922 -0.3154 -3.1955  1.2185
 9923SOL    HW230551   6.055   1.753   4.790 -1.6499  0.5914  1.0756
 9924SOL     OW30552   0.962   7.174   4.610  0.3271  0.1839  0.2061
 9924SOL    HW130553   0.923   7.090   4.633  0.8704  0.1742  1.1689
 9924SOL    HW230554   0.927   7.235   4.676  0.8163  0.4763  0.1957
 9925SOL     OW30555   2.003   2.332   5.571  0.2678  0.5517  0.0061
 9925SOL    HW130556   2.049   2.301   5.649  0.4785  1.2816  0.1813
 9925SOL    HW230557   2.063   2.314   5.499 -0.2362 -0.8202 -0.1061
 9926SOL     OW30558   8.118   0.660   1.793 -0.4429 -0.2126  0.2608
 9926SOL    HW130559   8.150   0.658   1.703  2.7922  1.0408  1.2322
 9926SOL    HW230560   8.109   0.754   1.812 -0.4224 -0.4430  1.4290
 9927SOL     OW30561   1.486   3.829   8.031 -0.0271 -0.1812  0.5137
 9927SOL    HW130562   1.441   3.889   8.091 -0.0820 -0.1067  0.3987
 9927SOL    HW230563   1.435   3.835   7.950  0.5157  0.3226  0.2029
 9928SOL     OW30564   2.781   0.204   5.181  0.3982  0.4348 -0.6159
 9928SOL    HW130565   2.858   0.253   5.154  2.3119 -1.0684  1.7014
 9928SOL    HW230566   2.811   0.114   5.189 -2.4312 -0.8027 -2.5535
 9929SOL     OW30567   2.052   5.144   2.206  0.6323  0.0851  0.1481
 9929SOL    HW130568   2.104   5.224   2.212  0.4700  0.2179 -0.1724
 9929SOL    HW230569   2.081   5.103   2.124 -1.1282  1.1503 -1.0814
 9930SOL     OW30570   4.266   7.867   7.524  0.7470  0.3489 -0.4584
 9930SOL    HW130571   4.320   7.842   7.599  1.3120  2.6141 -0.0363
 9930SOL    HW230572   4.176   7.863   7.557  0.9706  1.0072  0.2648
 9931SOL     OW30573   5.623   7.173   7.739 -0.7228 -0.0142 -0.0971
 9931SOL    HW130574   5.573   7.254   7.728  0.3270  0.5152 -1.2787
 9931SOL    HW230575   5.571   7.121   7.800 -2.3327  0.8043 -0.6970
 9932SOL     OW30576   2.630   1.960   5.096  0.4476 -0.0794 -0.3668
 9932SOL    HW130577   2.657   1.885   5.043 -0.4987 -0.7067  0.0156
 9932SOL    HW230578   2.685   2.032   5.065  0.2290 -0.5346 -1.8931
 9933SOL     OW30579   6.205   2.541   0.672 -0.2341 -0.2557  0.1115
 9933SOL    HW130580   6.193   2.477   0.602  0.3464  0.1507 -0.3710
 9933SOL    HW230581   6.300   2.548   0.682 -0.3063 -0.0464  0.7014
 9934SOL     OW30582   3.119   3.588   7.850 -0.3369  0.0157  0.0960
 9934SOL    HW130583   3.027   3.583   7.826 -0.6205 -0.2317  1.1967
 9934SOL    HW230584   3.149   3.672   7.814  0.1580 -1.6625 -4.0106
 9935SOL     OW30585   0.635   0.415   3.248  0.5509 -0.3047  0.6276
 9935SOL    HW130586   0.617   0.493   3.195 -1.1772 -0.1747  1.3493
 9935SOL    HW230587   0.574   0.349   3.214 -0.3303 -0.3243  2.1642
 9936SOL     OW30588   3.116   3.476   0.961 -0.1607 -0.0949 -0.3598
 9936SOL    HW130589   3.172   3.428   0.900  1.7481 -0.4055  1.5552
 9936SOL    HW230590   3.174   3.504   1.031 -2.4553 -0.7849  1.9574
 9937SOL     OW30591   0.633   7.029   1.457 -0.2997  0.0063 -0.6896
 9937SOL    HW130592   0.585   7.033   1.374 -0.3999  0.2652 -0.6215
 9937SOL    HW230593   0.575   6.982   1.517 -2.2371  3.5578  0.5293
 9938SOL     OW30594   2.233   2.035   7.920  1.0926 -0.5349 -0.3685
 9938SOL    HW130595   2.309   2.038   7.979  0.2429  2.3697  0.7391
 9938SOL    HW230596   2.181   1.962   7.952  2.3547 -1.2170  0.2245
 9939SOL     OW30597   3.161   7.781   3.549 -0.4466 -0.6631 -0.0491
 9939SOL    HW130598   3.203   7.866   3.557  1.4964 -1.5481 -0.2176
 9939SOL    HW230599   3.158   7.764   3.455  3.3656 -2.6114 -0.0288
 9940SOL     OW30600   6.057   5.634   3.483  0.2426 -0.3215 -0.4368
 9940SOL    HW130601   5.991   5.568   3.462 -0.7247  0.2945  0.5284
 9940SOL    HW230602   6.135   5.584   3.506 -1.1610 -1.3392  2.7055
 9941SOL     OW30603   1.283   4.783   8.030 -0.6898 -0.3712  0.0886
 9941SOL    HW130604   1.266   4.827   7.947 -0.6015  0.9296  0.7348
 9941SOL    HW230605   1.343   4.712   8.008 -1.1430 -0.4202 -1.0480
 9942SOL     OW30606   6.030   4.115   6.926  0.5673  0.3891 -0.6294
 9942SOL    HW130607   6.036   4.054   7.000  1.5301 -0.6232 -1.4914
 9942SOL    HW230608   6.081   4.191   6.954  0.8894  0.0355 -0.2231
 9943SOL     OW30609   2.142   5.341   3.455  0.0372 -0.9066 -0.2989
 9943SOL    HW130610   2.139   5.367   3.547 -1.4465  1.7107 -0.9661
 9943SOL    HW230611   2.213   5.391   3.417 -1.4627  0.6775 -1.1813
 9944SOL     OW30612   5.706   4.383   5.552  0.0052  0.0859 -0.2042
 9944SOL    HW130613   5.715   4.469   5.509  1.4909  0.7742  1.3391
 9944SOL    HW230614   5.656   4.402   5.631 -0.9676 -0.7917 -0.5914
 9945SOL     OW30615   3.063   3.918   2.296 -0.0529  0.2244  0.3327
 9945SOL    HW130616   3.140   3.971   2.316  0.0477  0.9284 -1.6527
 9945SOL    HW230617   2.991   3.981   2.289  0.0426  0.1895 -1.9066
 9946SOL     OW30618   2.896   8.118   5.583 -0.5784 -0.1125  0.2694
 9946SOL    HW130619   2.992   8.124   5.581 -0.6058  0.1778 -0.7519
 9946SOL    HW230620   2.866   8.197   5.538 -1.3129 -0.0065  0.9337
 9947SOL     OW30621   4.882   7.528   7.247 -0.0136  0.2678 -0.1202
 9947SOL    HW130622   4.894   7.570   7.162  1.8193 -1.0772 -0.5704
 9947SOL    HW230623   4.843   7.443   7.228  0.1852  0.0533  0.3898
 9948SOL     OW30624   5.853   3.395   2.556 -0.2572  0.4635  0.4838
 9948SOL    HW130625   5.800   3.368   2.631  0.8257 -1.2495  0.6943
 9948SOL    HW230626   5.935   3.424   2.594  0.5668 -1.0738 -0.0059
 9949SOL     OW30627   0.509   3.488   1.259 -0.4768 -0.6812 -0.4384
 9949SOL    HW130628   0.468   3.536   1.330 -0.4347 -1.3281  0.0316
 9949SOL    HW230629   0.496   3.543   1.182  0.5992  0.6492  0.2843
 9950SOL     OW30630   6.938   2.368   5.560  0.1758 -0.1352 -0.1668
 9950SOL    HW130631   6.986   2.441   5.598  1.6893 -1.1436 -0.0595
 9950SOL    HW230632   6.978   2.355   5.474 -1.5329  0.5181 -1.1045
 9951SOL     OW30633   4.455   0.934   5.679 -0.3237  0.4993  0.2605
 9951SOL    HW130634   4.482   0.848   5.646  0.9097  0.7663  0.5344
 9951SOL    HW230635   4.506   0.997   5.628  0.2249  0.9889  1.3647
 9952SOL     OW30636   4.389   4.772   2.476 -0.2604 -0.0608 -0.4278
 9952SOL    HW130637   4.313   4.716   2.492 -1.0234  1.4423  1.7755
 9952SOL    HW230638   4.360   4.833   2.409 -1.0414  0.4631  0.3504
 9953SOL     OW30639   7.791   5.348   0.306 -0.8029  0.0389 -0.4508
 9953SOL    HW130640   7.822   5.261   0.328  0.5607  0.4585 -0.6240
 9953SOL    HW230641   7.730   5.334   0.233 -1.2159 -0.8213  0.0440
 9954SOL     OW30642   3.756   6.180   1.428 -0.5441 -0.2029 -0.2350
 9954SOL    HW130643   3.754   6.275   1.425 -0.5151 -0.2233 -2.7872
 9954SOL    HW230644   3.737   6.152   1.338 -0.6779 -2.6077  0.4646
 9955SOL     OW30645   5.995   5.408   1.935  0.0165 -0.7500 -0.7927
 9955SOL    HW130646   6.010   5.500   1.913 -0.2783 -0.6015 -0.3964
 9955SOL    HW230647   5.985   5.364   1.851 -0.6860 -0.2648 -0.9727
 9956SOL     OW30648   1.621   0.444   0.158  0.3126 -0.2285  0.3867
 9956SOL    HW130649   1.624   0.463   0.252 -0.8777 -0.7786  0.5511
 9956SOL    HW230650   1.695   0.387   0.142  1.4473  1.1107  0.6847
 9957SOL     OW30651   5.155   0.825   4.825 -0.6697 -0.0104 -0.3767
 9957SOL    HW130652   5.136   0.896   4.886  0.9972 -0.2152  0.4475
 9957SOL    HW230653   5.119   0.747   4.867 -1.0827  0.1001 -0.5182
 9958SOL     OW30654   3.912   7.696   2.054 -0.2874 -0.8048  0.2551
 9958SOL    HW130655   3.860   7.649   2.119  1.2040 -2.5115  0.2932
 9958SOL    HW230656   3.878   7.666   1.970  0.4588 -1.7550  0.2800
 9959SOL     OW30657   3.945   2.160   5.772  0.3006 -0.1611 -0.1279
 9959SOL    HW130658   3.970   2.249   5.745  0.9401 -0.4579 -0.5554
 9959SOL    HW230659   3.948   2.163   5.868 -1.0547  0.6448 -0.0802
 9960SOL     OW30660   4.195   7.785   2.926 -0.5549  0.3944 -0.4169
 9960SOL    HW130661   4.201   7.875   2.960  0.6769  0.3550 -0.4724
 9960SOL    HW230662   4.131   7.791   2.855 -2.4371  0.6729  1.2125
 9961SOL     OW30663   1.185   4.226   2.594  0.5429  0.1701 -0.3324
 9961SOL    HW130664   1.274   4.190   2.590  1.2301  1.8350 -1.3263
 9961SOL    HW230665   1.146   4.203   2.509  0.9571  1.6143 -0.9368
 9962SOL     OW30666   4.407   1.014   0.937 -0.1331  0.1868  0.1132
 9962SOL    HW130667   4.407   0.920   0.922 -0.3834 -0.0200  1.3425
 9962SOL    HW230668   4.315   1.037   0.949  0.0162  0.3931  0.9236
 9963SOL     OW30669   3.129   3.579   5.242  0.0315 -0.2726  0.3044
 9963SOL    HW130670   3.144   3.495   5.284  3.3291  0.0325 -0.0190
 9963SOL    HW230671   3.059   3.562   5.179  0.6706 -2.8019  0.1919
 9964SOL     OW30672   4.646   1.870   6.241 -0.3183  0.1290  0.5004
 9964SOL    HW130673   4.646   1.855   6.147  1.9836 -1.6846  0.7063
 9964SOL    HW230674   4.619   1.786   6.278  0.5651  0.2568  1.4799
 9965SOL     OW30675   4.710   3.333   3.221  0.3764  0.0285  0.7530
 9965SOL    HW130676   4.623   3.359   3.189  0.1928  0.6197  1.6883
 9965SOL    HW230677   4.706   3.349   3.315  0.8519 -1.8132  1.1133
 9966SOL     OW30678   3.064   7.232   6.585  0.1928 -0.1020 -0.4786
 9966SOL    HW130679   3.097   7.143   6.574 -1.4602 -0.6033 -1.9661
 9966SOL    HW230680   3.109   7.266   6.662  0.5828 -2.3675  0.3555
 9967SOL     OW30681   6.974   1.604   3.511 -0.1560 -0.0512 -0.2911
 9967SOL    HW130682   6.982   1.671   3.578  1.1965  0.2905 -0.7748
 9967SOL    HW230683   7.001   1.647   3.430  0.9616 -1.2306 -0.5738
 9968SOL     OW30684   2.889   1.787   3.252 -0.2067  1.0885  0.3292
 9968SOL    HW130685   2.957   1.729   3.217  0.6548  2.6019 -0.6205
 9968SOL    HW230686   2.810   1.734   3.253  0.4840 -0.0165 -0.7969
 9969SOL     OW30687   6.674   3.424   3.986  0.0718 -0.9753  0.2614
 9969SOL    HW130688   6.737   3.401   4.054  1.5911  2.3301  0.1606
 9969SOL    HW230689   6.603   3.469   4.033 -0.4720 -1.5260 -0.0150
 9970SOL     OW30690   5.341   5.099   0.845  0.2075  0.0959  0.0885
 9970SOL    HW130691   5.292   5.169   0.802 -0.4238 -0.0818  0.5082
 9970SOL    HW230692   5.301   5.018   0.812 -1.0390 -0.0436  1.8407
 9971SOL     OW30693   2.116   6.550   5.347  0.0057 -0.3671 -0.2926
 9971SOL    HW130694   2.055   6.483   5.318 -1.2888  1.1274 -1.1570
 9971SOL    HW230695   2.199   6.503   5.360 -1.2368 -2.4162  0.7667
 9972SOL     OW30696   1.004   6.994   5.396  0.3774 -0.2465  0.4098
 9972SOL    HW130697   0.978   6.906   5.425 -0.5510  0.1906  0.9668
 9972SOL    HW230698   1.090   7.008   5.434 -0.6354  0.1606  2.7293
 9973SOL     OW30699   7.292   0.300   8.078  0.3159  0.2990 -0.3623
 9973SOL    HW130700   7.321   0.222   8.126 -0.1123  0.2083 -0.2545
 9973SOL    HW230701   7.349   0.302   8.000  1.2767  0.6624  0.3233
 9974SOL     OW30702   4.900   2.912   6.898  0.1838  0.3818 -0.2496
 9974SOL    HW130703   4.872   2.983   6.955  0.4403  0.2243  0.0723
 9974SOL    HW230704   4.865   2.935   6.812 -1.8934 -0.3511  0.3349
 9975SOL     OW30705   5.633   4.883   3.892 -0.4386  0.4918  0.3443
 9975SOL    HW130706   5.580   4.940   3.836  0.8752  2.1174  0.7049
 9975SOL    HW230707   5.722   4.893   3.859  0.2358  0.8338  2.1745
 9976SOL     OW30708   0.064   7.089   2.567  0.6157 -0.2700  0.6275
 9976SOL    HW130709   0.017   7.094   2.484 -1.8451 -3.3938  1.6416
 9976SOL    HW230710   0.065   6.996   2.589  1.7766  0.3488  3.7518
 9977SOL     OW30711   1.111   5.200   4.790  0.0824 -0.5243  0.0414
 9977SOL    HW130712   1.121   5.109   4.819  0.7540 -0.0375  1.4392
 9977SOL    HW230713   1.167   5.206   4.712 -0.2982 -1.4054 -0.3166
 9978SOL     OW30714   4.920   4.932   7.483  0.3391  0.2276 -0.2118
 9978SOL    HW130715   4.836   4.972   7.505  0.4968  0.5622 -0.2213
 9978SOL    HW230716   4.899   4.839   7.469  0.2929 -0.0958  1.7468
 9979SOL     OW30717   2.810   2.606   5.994  0.1152  0.8025  0.0279
 9979SOL    HW130718   2.735   2.666   5.995 -0.9518 -0.4567  1.8240
 9979SOL    HW230719   2.886   2.664   6.001 -0.6321  2.1191 -1.8603
 9980SOL     OW30720   7.333   3.067   7.024 -0.1008 -0.5254 -0.6809
 9980SOL    HW130721   7.382   3.071   6.942  2.1988  1.3514  0.6699
 9980SOL    HW230722   7.325   3.158   7.052 -0.9124 -1.1120  1.1636
 9981SOL     OW30723   2.777   0.192   1.445 -0.4331 -0.1066 -0.1558
 9981SOL    HW130724   2.848   0.131   1.428 -0.2335  0.0800 -0.0083
 9981SOL    HW230725   2.718   0.146   1.505  1.3679  0.9601  2.6324
 9982SOL     OW30726   0.134   7.933   5.818  0.8433 -0.3460 -0.0394
 9982SOL    HW130727   0.054   7.970   5.856  0.6236 -0.7037 -0.1485
 9982SOL    HW230728   0.161   7.867   5.882  0.0420 -1.5031 -0.8470
 9983SOL     OW30729   1.387   1.485   8.300  0.5602  0.0802  0.3330
 9983SOL    HW130730   1.429   1.406   8.268 -2.0869 -1.9655  1.5142
 9983SOL    HW230731   1.409   1.488   8.393 -0.3737 -0.0225  0.5684
 9984SOL     OW30732   3.902   1.163   5.261 -0.0165  0.5006  0.1361
 9984SOL    HW130733   3.990   1.137   5.233  0.0754  4.2942 -4.2770
 9984SOL    HW230734   3.916   1.224   5.333  0.6199 -1.1520  1.4772
 9985SOL     OW30735   4.414   0.560   4.032  0.3834  0.1011  0.0338
 9985SOL    HW130736   4.470   0.483   4.023  0.3721  0.0435  0.4163
 9985SOL    HW230737   4.443   0.619   3.963 -1.2467 -1.2214 -1.9259
 9986SOL     OW30738   6.530   7.328   6.971  0.4203  0.3145 -0.2045
 9986SOL    HW130739   6.452   7.321   6.916 -1.1618  0.5780  1.8679
 9986SOL    HW230740   6.498   7.369   7.052  2.7717  0.6110  0.6457
 9987SOL     OW30741   5.679   6.136   3.722 -0.2099 -0.1917  0.3067
 9987SOL    HW130742   5.667   6.229   3.703  0.5389 -0.2541 -0.5410
 9987SOL    HW230743   5.592   6.106   3.750 -0.2407  0.9585  1.5142
 9988SOL     OW30744   7.297   2.613   3.327 -0.2179 -0.0164  0.4111
 9988SOL    HW130745   7.313   2.595   3.235  1.7509  0.0602  0.6938
 9988SOL    HW230746   7.266   2.703   3.330 -1.9721 -0.5625 -0.2909
 9989SOL     OW30747   1.077   3.138   5.569 -0.4351  0.0933  0.1259
 9989SOL    HW130748   1.127   3.107   5.645 -0.0418 -1.6053 -0.7863
 9989SOL    HW230749   1.062   3.060   5.516  0.5497  1.4292 -2.2922
 9990SOL     OW30750   1.994   5.222   7.306 -0.2936 -0.1892  0.7012
 9990SOL    HW130751   1.988   5.138   7.259  0.7220  1.2943 -2.3331
 9990SOL    HW230752   1.923   5.275   7.270  1.5565  1.5795 -0.5773
 9991SOL     OW30753   8.019   5.314   7.489  0.2219 -0.4181  0.2232
 9991SOL    HW130754   8.084   5.295   7.557  0.7309 -1.0457 -0.4299
 9991SOL    HW230755   7.984   5.228   7.465 -2.0944  0.0060  1.7460
 9992SOL     OW30756   1.061   2.568   2.016  0.1350 -0.0701  0.0744
 9992SOL    HW130757   1.145   2.612   2.030  0.2342 -0.4718  0.7778
 9992SOL    HW230758   1.064   2.492   2.074 -0.3461 -0.5870 -0.5622
 9993SOL     OW30759   6.279   8.195   5.603  0.0883  0.0443  0.0374
 9993SOL    HW130760   6.299   8.253   5.676 -1.4890  1.4993 -0.6078
 9993SOL    HW230761   6.365   8.173   5.565  0.7521  1.9493  0.3400
 9994SOL     OW30762   3.811   5.964   5.076  1.0652  0.5862 -0.7241
 9994SOL    HW130763   3.733   5.962   5.131  2.1831  2.4483  1.1088
 9994SOL    HW230764   3.787   6.019   5.002  1.3362  3.7014  1.2843
 9995SOL     OW30765   4.961   0.624   8.175 -0.1432  0.4092 -0.1195
 9995SOL    HW130766   4.979   0.554   8.238  0.3129 -0.0113 -0.7057
 9995SOL    HW230767   4.866   0.622   8.164 -0.0201 -1.0146 -1.1301
 9996SOL     OW30768   1.848   6.579   5.127 -0.4267  0.2780 -0.1220
 9996SOL    HW130769   1.887   6.497   5.158 -1.8838 -0.1969  0.5203
 9996SOL    HW230770   1.923   6.630   5.095  0.4059 -1.6775 -1.4891
 9997SOL     OW30771   8.096   4.542   7.960  0.2802 -0.3136  0.0367
 9997SOL    HW130772   8.164   4.477   7.937 -1.2248 -2.3452  1.0264
 9997SOL    HW230773   8.108   4.557   8.053 -0.9196 -1.1304  0.3492
 9998SOL     OW30774   5.128   2.148   6.746 -0.1829  0.4923  0.1843
 9998SOL    HW130775   5.056   2.196   6.704  0.1025 -0.9461 -2.1615
 9998SOL    HW230776   5.084   2.083   6.801 -0.7059 -0.0779 -0.8768
 9999SOL     OW30777   5.699   1.274   0.637 -0.3265 -0.2390 -0.5674
 9999SOL    HW130778   5.773   1.263   0.577 -0.8556 -1.8131 -0.9719
 9999SOL    HW230779   5.651   1.191   0.632 -0.7690 -0.1782  1.5121
10000SOL     OW30780   1.519   5.173   0.639 -0.1758  0.3045  0.2711
10000SOL    HW130781   1.518   5.259   0.598 -0.7262 -1.0147 -2.8000
10000SOL    HW230782   1.611   5.157   0.659 -0.0338  1.4501  0.6122
10001SOL     OW30783   3.208   1.226   3.546  0.3722  0.3090  0.3439
10001SOL    HW130784   3.123   1.269   3.550  0.0573 -0.1846 -0.6670
10001SOL    HW230785   3.270   1.292   3.579 -0.4137  0.5840  1.3160
10002SOL     OW30786   7.988   3.345   6.005  0.0310  0.2467  0.3024
10002SOL    HW130787   7.914   3.307   6.052 -1.3024  0.8746 -1.2215
10002SOL    HW230788   8.065   3.311   6.051 -1.0909 -3.1246 -0.0542
10003SOL     OW30789   7.249   0.251   1.942 -0.1586 -0.2856  0.6649
10003SOL    HW130790   7.183   0.191   1.909 -0.8975  2.1439 -2.8724
10003SOL    HW230791   7.209   0.289   2.021 -1.8785 -0.7704  0.0790
10004SOL     OW30792   4.730   7.822   4.198  0.1920  0.6657  0.2701
10004SOL    HW130793   4.744   7.899   4.143 -0.7190 -0.7263 -2.0198
10004SOL    HW230794   4.818   7.791   4.218  0.5677  0.4700 -1.5233
10005SOL     OW30795   6.548   8.201   8.064 -0.3914 -0.1834  0.0752
10005SOL    HW130796   6.566   8.235   7.976 -0.6473 -0.4782 -0.0969
10005SOL    HW230797   6.613   8.132   8.077 -0.9289 -0.7702 -0.2629
10006SOL     OW30798   3.171   7.124   5.919  0.0403  0.2571 -0.5297
10006SOL    HW130799   3.181   7.078   6.003  0.7102 -0.0692 -0.7835
10006SOL    HW230800   3.215   7.208   5.932  1.3333 -0.3245 -0.9642
10007SOL     OW30801   1.550   2.909   5.720 -0.0680  0.0249 -0.2339
10007SOL    HW130802   1.640   2.939   5.711 -0.3182  0.5822 -0.9556
10007SOL    HW230803   1.516   2.955   5.797 -0.1460  0.8746 -0.7604
10008SOL     OW30804   5.476   5.329   6.807  0.0054  0.2670 -0.3032
10008SOL    HW130805   5.496   5.292   6.721  1.6626 -0.3843  0.3176
10008SOL    HW230806   5.550   5.388   6.825 -0.2902  0.3507  0.6893
10009SOL     OW30807   5.848   5.707   1.609  0.1999  0.0344  0.2812
10009SOL    HW130808   5.848   5.630   1.551 -2.3432 -0.8627  1.3328
10009SOL    HW230809   5.767   5.753   1.586  0.0895  0.6462  1.8527
10010SOL     OW30810   4.786   2.191   2.266  0.6194 -0.2429  0.0769
10010SOL    HW130811   4.751   2.211   2.353 -0.3662 -0.0725 -0.3426
10010SOL    HW230812   4.734   2.245   2.206  0.9210 -0.7573 -0.6671
10011SOL     OW30813   4.507   4.181   1.933 -0.8132 -0.2084  0.4999
10011SOL    HW130814   4.598   4.197   1.911 -0.5709  0.1293  1.7121
10011SOL    HW230815   4.457   4.238   1.875 -0.2956 -0.8175 -0.5727
10012SOL     OW30816   6.729   0.926   3.912  0.2756 -0.3334 -0.2953
10012SOL    HW130817   6.680   0.960   3.837  2.3044  1.1081 -1.0573
10012SOL    HW230818   6.707   0.985   3.984  0.8774  0.3542 -0.6554
10013SOL     OW30819   1.309   2.011   6.224 -0.6346  0.5321 -0.0168
10013SOL    HW130820   1.269   1.957   6.292  0.7220  0.6200  0.8875
10013SOL    HW230821   1.340   2.089   6.270  0.6034  0.4417 -0.6760
10014SOL     OW30822   2.903   0.828   3.049 -0.2569 -0.2296  0.1893
10014SOL    HW130823   2.841   0.764   3.085 -1.9255  2.1812  1.9796
10014SOL    HW230824   2.852   0.878   2.985  0.6518  0.0537 -0.3265
10015SOL     OW30825   7.330   6.998   1.441 -0.4559 -0.2146  0.0377
10015SOL    HW130826   7.294   7.042   1.518 -0.0161 -0.5439  0.4392
10015SOL    HW230827   7.424   7.010   1.448 -0.3907 -0.4987 -0.2962
10016SOL     OW30828   7.766   7.463   7.234  1.2845  0.0278  0.2197
10016SOL    HW130829   7.759   7.394   7.299  0.5635 -1.1547 -1.0641
10016SOL    HW230830   7.860   7.474   7.220  1.3978 -0.9987  0.1314
10017SOL     OW30831   3.436   0.728   3.850  0.1345  0.2197  1.1227
10017SOL    HW130832   3.437   0.786   3.773  3.7982 -0.1477  0.7205
10017SOL    HW230833   3.430   0.640   3.814 -1.1649  0.1133  1.5187
10018SOL     OW30834   8.172   7.859   3.181 -0.0716  0.1325  0.0207
10018SOL    HW130835   8.120   7.847   3.260  0.2998  0.8650  0.3819
10018SOL    HW230836   8.120   7.819   3.111 -0.5942 -0.1357  0.5606
10019SOL     OW30837   7.394   7.074   5.039  0.1168 -0.1377  0.3989
10019SOL    HW130838   7.358   7.042   4.956  0.4721 -1.1809  0.6339
10019SOL    HW230839   7.381   7.169   5.036 -0.8590 -0.2773 -0.3773
10020SOL     OW30840   3.120   1.028   7.755  0.5236 -0.2650 -0.6176
10020SOL    HW130841   3.028   1.055   7.750  0.8209  0.6528 -1.2783
10020SOL    HW230842   3.156   1.079   7.827  0.3006 -1.3390  0.2892
10021SOL     OW30843   3.545   4.310   0.281 -0.3094 -0.3852 -0.2032
10021SOL    HW130844   3.489   4.389   0.282  0.6278  0.4602 -3.4700
10021SOL    HW230845   3.619   4.333   0.337 -1.0810  0.1752  0.6305
10022SOL     OW30846   4.628   1.972   0.238 -0.3729 -0.2771  0.3391
10022SOL    HW130847   4.586   2.041   0.187  1.6772 -0.2961 -1.5411
10022SOL    HW230848   4.557   1.932   0.288 -2.0546  1.4377 -0.5658
10023SOL     OW30849   5.048   5.030   4.276  0.4894  0.4311  0.3609
10023SOL    HW130850   4.992   4.975   4.331  2.3260 -0.1996  1.7134
10023SOL    HW230851   4.987   5.075   4.217 -1.2701 -1.5168  0.5503
10024SOL     OW30852   1.300   4.531   4.943  0.0017  0.3432 -0.1065
10024SOL    HW130853   1.226   4.477   4.969  0.7061 -0.6151 -0.0547
10024SOL    HW230854   1.305   4.600   5.010 -1.9715  1.5539 -1.1079
10025SOL     OW30855   0.593   6.008   3.507 -0.0284 -0.0894 -0.2042
10025SOL    HW130856   0.512   6.053   3.527  0.2006  0.6996 -1.0077
10025SOL    HW230857   0.658   6.049   3.563  0.4377  1.5164 -1.8400
10026SOL     OW30858   6.313   7.244   2.864  0.0383 -0.1908  0.1652
10026SOL    HW130859   6.340   7.251   2.772  1.9685 -1.5265  0.5617
10026SOL    HW230860   6.279   7.155   2.872 -0.1027 -0.0890  0.7533
10027SOL     OW30861   6.887   2.352   3.038 -0.2608  0.1791  0.3045
10027SOL    HW130862   6.904   2.271   2.990 -3.3637  0.2632 -1.1502
10027SOL    HW230863   6.900   2.329   3.130  0.7666 -1.4037 -0.1902
10028SOL     OW30864   7.733   5.572   6.738  0.0487  0.2768  0.2477
10028SOL    HW130865   7.677   5.639   6.776 -1.1487  0.0871 -1.0934
10028SOL    HW230866   7.677   5.526   6.676  1.0038 -1.6138  0.7166
10029SOL     OW30867   7.987   5.575   6.800 -0.1934  0.6103  0.1015
10029SOL    HW130868   7.913   5.563   6.740 -1.6382 -3.9569  2.3079
10029SOL    HW230869   7.948   5.611   6.879  0.7337  1.7281  0.0771
10030SOL     OW30870   0.211   5.661   1.441  0.1571 -0.2401 -0.0895
10030SOL    HW130871   0.161   5.581   1.455 -1.6486  0.6406 -1.1650
10030SOL    HW230872   0.207   5.706   1.525  0.4079 -0.8625  0.2596
10031SOL     OW30873   5.306   0.856   4.336  0.2288  0.5146 -0.0456
10031SOL    HW130874   5.246   0.797   4.290  0.1658  0.4859  0.0732
10031SOL    HW230875   5.388   0.808   4.341  0.4917  0.8686 -0.9105
10032SOL     OW30876   3.860   1.555   5.280 -0.0433 -0.1353  0.0172
10032SOL    HW130877   3.800   1.482   5.282  0.0329 -0.3092 -2.2046
10032SOL    HW230878   3.806   1.631   5.258  0.3276 -0.0678 -0.6943
10033SOL     OW30879   5.960   3.600   7.640 -0.3828  0.1155  0.8136
10033SOL    HW130880   5.990   3.684   7.604  0.9645 -0.5752  0.2574
10033SOL    HW230881   5.937   3.548   7.563  0.4655 -0.6299  1.0478
10034SOL     OW30882   2.076   6.287   1.309  0.4264 -0.0865  0.5556
10034SOL    HW130883   2.158   6.238   1.318  1.2134  0.8649 -1.0042
10034SOL    HW230884   2.020   6.231   1.256  1.2212  0.5230 -0.9866
10035SOL     OW30885   3.877   5.571   4.526  0.2133  0.2563  0.0985
10035SOL    HW130886   3.827   5.625   4.587  0.2351  1.7948 -1.1965
10035SOL    HW230887   3.830   5.577   4.443  0.1266 -1.8805 -0.0682
10036SOL     OW30888   5.818   7.061   2.020  0.6607  0.3432 -0.4239
10036SOL    HW130889   5.779   7.146   2.039 -0.4715 -0.2327 -0.0543
10036SOL    HW230890   5.822   7.057   1.925  0.7862  0.8298 -0.4410
10037SOL     OW30891   1.179   1.545   3.285 -0.0899 -0.5471 -0.1565
10037SOL    HW130892   1.118   1.619   3.278  0.4108 -0.1792 -0.6512
10037SOL    HW230893   1.170   1.516   3.376  1.6038  1.7616  0.8356
10038SOL     OW30894   4.319   4.879   6.737  0.3986  0.3055 -0.3933
10038SOL    HW130895   4.225   4.866   6.726  0.1212  1.9424 -0.1699
10038SOL    HW230896   4.348   4.803   6.787 -1.0149  0.3349  0.5250
10039SOL     OW30897   7.867   1.404   1.496  0.3276  0.4479  0.4487
10039SOL    HW130898   7.844   1.455   1.418  1.0597  1.7646  1.0594
10039SOL    HW230899   7.945   1.448   1.530  0.3660 -0.4791  1.5941
10040SOL     OW30900   7.398   2.186   4.801  0.7896  0.6896 -0.2232
10040SOL    HW130901   7.343   2.263   4.786  1.5370  0.9989 -1.4805
10040SOL    HW230902   7.444   2.206   4.883  1.0717  1.6639 -0.5984
10041SOL     OW30903   8.296   0.493   2.758  0.1472  0.3734 -0.2496
10041SOL    HW130904   8.348   0.460   2.684  0.3903  2.4231 -1.0380
10041SOL    HW230905   8.205   0.483   2.730  0.1195 -1.4990  0.3800
10042SOL     OW30906   4.403   1.611   3.754  0.0279 -0.5417  0.6484
10042SOL    HW130907   4.494   1.613   3.784  0.2786  0.6676 -0.1244
10042SOL    HW230908   4.405   1.555   3.677  0.4201  0.6672 -0.2424
10043SOL     OW30909   4.144   4.710   0.654  0.3091 -0.1297  0.0643
10043SOL    HW130910   4.131   4.803   0.670  1.6764  0.0732  0.1448
10043SOL    HW230911   4.115   4.696   0.564 -0.8081  0.1618  0.3630
10044SOL     OW30912   5.014   0.901   6.718  0.2911 -0.5039 -0.3530
10044SOL    HW130913   4.971   0.967   6.663 -1.7963 -2.2121 -0.8845
10044SOL    HW230914   4.970   0.819   6.697  2.5235 -2.0442  0.5933
10045SOL     OW30915   3.328   5.472   4.292 -0.2152 -0.3898 -0.0721
10045SOL    HW130916   3.301   5.401   4.351  0.5693 -1.2014 -0.6488
10045SOL    HW230917   3.422   5.457   4.279 -0.1921  0.3264 -0.7899
10046SOL     OW30918   2.598   1.465   5.842  0.5331  0.1586  0.2654
10046SOL    HW130919   2.505   1.444   5.850  0.6332 -0.2595  0.3721
10046SOL    HW230920   2.643   1.387   5.875  0.9387 -0.1755 -1.0312
10047SOL     OW30921   1.874   2.294   7.584 -0.2032  0.3836  0.0534
10047SOL    HW130922   1.931   2.220   7.563  1.4334  1.3717  0.7723
10047SOL    HW230923   1.898   2.317   7.674 -0.8965  1.5859 -0.0506
10048SOL     OW30924   1.250   6.876   4.646  0.4821  0.2185  0.0297
10048SOL    HW130925   1.344   6.883   4.628  0.8747  0.9356  2.0265
10048SOL    HW230926   1.229   6.957   4.691 -1.6627  1.1109 -2.3853
10049SOL     OW30927   5.391   2.424   7.928  0.4851  0.5098  0.1851
10049SOL    HW130928   5.358   2.507   7.962  0.6008  0.2936  0.8305
10049SOL    HW230929   5.486   2.435   7.927  0.4570  1.0483 -1.4601
10050SOL     OW30930   5.322   5.913   5.511 -0.0376  0.4955 -0.1007
10050SOL    HW130931   5.383   5.962   5.455  1.9479 -1.7705 -0.0763
10050SOL    HW230932   5.295   5.839   5.457 -1.1380  0.3100  0.6726
10051SOL     OW30933   6.013   4.018   2.225 -0.8178  0.7090  0.1416
10051SOL    HW130934   6.048   4.056   2.306 -2.0370  0.2726  0.8971
10051SOL    HW230935   5.947   3.956   2.254 -3.2821  2.5224 -1.2234
10052SOL     OW30936   4.848   7.484   0.292  0.6227 -0.2686  0.1470
10052SOL    HW130937   4.943   7.479   0.284  0.7324 -1.0976  1.5438
10052SOL    HW230938   4.814   7.416   0.234  0.7603  1.0704 -1.5901
10053SOL     OW30939   1.943   8.070   6.222 -0.0293  0.1634 -0.0070
10053SOL    HW130940   1.937   7.978   6.248  0.3408  0.3245  0.6771
10053SOL    HW230941   2.028   8.077   6.180 -0.7767 -0.1766 -1.6568
10054SOL     OW30942   0.804   4.586   1.226  0.2320 -0.0910  0.0714
10054SOL    HW130943   0.887   4.632   1.210  0.0187  0.0171 -0.7553
10054SOL    HW230944   0.737   4.645   1.192 -0.1905 -0.2024  0.6925
10055SOL     OW30945   3.578   5.796   3.189 -0.4893 -0.1350  0.2866
10055SOL    HW130946   3.503   5.832   3.142  0.1389  1.5809  0.4915
10055SOL    HW230947   3.654   5.830   3.142  0.1462 -0.5970  0.9535
10056SOL     OW30948   1.535   2.460   2.322  0.6088 -0.5159 -0.6276
10056SOL    HW130949   1.516   2.372   2.352  1.0564 -0.3409  0.1969
10056SOL    HW230950   1.453   2.491   2.284  0.5531 -1.4100 -1.2560
10057SOL     OW30951   0.994   5.574   3.938 -0.0092  0.0836 -0.5224
10057SOL    HW130952   0.969   5.549   3.849  0.4774  0.2861 -0.7236
10057SOL    HW230953   0.946   5.514   3.994 -1.0470  0.5434 -0.8800
10058SOL     OW30954   2.589   5.317   6.149  0.2525 -0.4779 -1.8502
10058SOL    HW130955   2.514   5.259   6.162  1.7587 -2.3673 -1.2446
10058SOL    HW230956   2.658   5.260   6.115  2.6426  0.3128  1.2135
10059SOL     OW30957   0.807   0.162   2.974 -0.3403 -0.2475 -0.3058
10059SOL    HW130958   0.886   0.209   2.999 -0.0992 -0.4920 -0.6138
10059SOL    HW230959   0.800   0.175   2.880 -0.6128 -0.3125 -0.2973
10060SOL     OW30960   4.876   6.009   1.497  0.1554 -0.5261 -0.0844
10060SOL    HW130961   4.945   6.009   1.430 -1.5039 -2.4777 -1.9381
10060SOL    HW230962   4.920   5.980   1.577  1.9427  0.6422 -0.5888
10061SOL     OW30963   6.660   7.651   3.628  0.3255 -0.3058 -0.1246
10061SOL    HW130964   6.669   7.744   3.646 -0.7702 -0.2487  0.1792
10061SOL    HW230965   6.620   7.614   3.706  1.7049 -1.2416  0.1949
10062SOL     OW30966   1.421   4.713   6.900 -0.8066  0.1231 -0.1007
10062SOL    HW130967   1.453   4.744   6.985 -0.2149 -1.7765  0.4092
10062SOL    HW230968   1.326   4.720   6.906 -0.9958 -2.6234  1.8727
10063SOL     OW30969   4.966   6.941   6.914 -0.4822  0.2362 -0.3835
10063SOL    HW130970   4.900   6.874   6.894 -1.7371  2.0032 -2.6754
10063SOL    HW230971   5.020   6.946   6.835 -0.6490  2.1064 -0.4220
10064SOL     OW30972   5.980   1.509   3.624  0.7798 -0.1546 -0.1182
10064SOL    HW130973   5.923   1.472   3.691 -0.2163  0.8718 -0.3546
10064SOL    HW230974   6.065   1.516   3.666  0.5666 -1.0556  0.4878
10065SOL     OW30975   7.523   3.728   2.275  0.0121  0.4471 -0.2903
10065SOL    HW130976   7.527   3.638   2.243 -1.0166  0.6422 -1.0193
10065SOL    HW230977   7.568   3.780   2.208  0.6315  0.4836  0.1437
10066SOL     OW30978   8.159   4.304   4.191  0.1633  0.3989  0.1587
10066SOL    HW130979   8.104   4.371   4.234  1.1793  1.0002  0.5548
10066SOL    HW230980   8.245   4.344   4.186  0.3618 -0.1714 -1.3166
10067SOL     OW30981   5.029   3.742   3.101  0.0596  0.0486  0.3730
10067SOL    HW130982   4.959   3.706   3.156 -0.7280 -1.4158 -1.4931
10067SOL    HW230983   5.010   3.836   3.098 -0.0275  0.1247  2.3408
10068SOL     OW30984   4.042   8.130   0.189  0.2728  0.1103  0.1513
10068SOL    HW130985   3.949   8.151   0.201  0.4116 -0.0449  1.6733
10068SOL    HW230986   4.082   8.212   0.161 -0.4854 -0.0696 -1.5392
10069SOL     OW30987   3.270   6.611   1.248 -0.1630 -0.4272  0.1610
10069SOL    HW130988   3.276   6.578   1.338  0.8112  0.0429  0.2914
10069SOL    HW230989   3.292   6.536   1.193 -0.5946 -0.6726  0.3178
10070SOL     OW30990   7.496   2.444   3.810  0.3892 -0.6529 -0.2372
10070SOL    HW130991   7.497   2.352   3.837  0.6903 -0.5348  0.1673
10070SOL    HW230992   7.581   2.458   3.770  0.0966 -0.7182 -0.8909
10071SOL     OW30993   3.515   0.074   0.638 -0.6386  0.0193 -0.2084
10071SOL    HW130994   3.522   0.119   0.722 -0.5999  1.5407 -0.9933
10071SOL    HW230995   3.587   0.011   0.637 -0.3665  0.3130  0.6979
10072SOL     OW30996   6.104   5.982   4.839  0.3778 -0.2815  0.2295
10072SOL    HW130997   6.010   5.994   4.828  0.6460  0.0568 -2.2559
10072SOL    HW230998   6.138   5.976   4.750  2.7255 -0.4196  1.0632
10073SOL     OW30999   6.819   2.468   1.326  0.1993 -0.0017 -0.2276
10073SOL    HW131000   6.744   2.527   1.329  1.1298  1.2109 -0.0694
10073SOL    HW231001   6.812   2.415   1.406 -1.9668 -1.8526 -1.5243
10074SOL     OW31002   6.120   2.318   0.179  0.0058 -0.0175 -0.2025
10074SOL    HW131003   6.114   2.223   0.171 -0.3514 -0.0247  0.1476
10074SOL    HW231004   6.203   2.340   0.137  1.6318 -0.8243  2.3526
10075SOL     OW31005   6.699   7.360   3.855  0.0759 -0.5254 -0.0149
10075SOL    HW131006   6.770   7.301   3.829  0.3212 -0.9328  1.5095
10075SOL    HW231007   6.740   7.421   3.916 -0.6076  0.0624 -0.1324
10076SOL     OW31008   7.974   0.354   2.151 -0.5038 -0.4390  0.2693
10076SOL    HW131009   7.942   0.264   2.152 -1.4816 -0.1162 -0.7674
10076SOL    HW231010   8.032   0.358   2.074  0.9190 -0.6194  1.2880
10077SOL     OW31011   4.758   6.702   7.410  0.1107  0.3267 -0.0283
10077SOL    HW131012   4.756   6.725   7.318  1.0563 -0.2174 -0.1914
10077SOL    HW231013   4.848   6.716   7.437 -0.1725  0.5651  0.8451
10078SOL     OW31014   5.984   1.014   0.739 -0.2116  0.5818  0.1229
10078SOL    HW131015   6.007   1.031   0.830  0.4918 -0.1301  0.0898
10078SOL    HW231016   6.049   1.063   0.688  0.9803 -1.0454  0.0253
10079SOL     OW31017   1.973   6.941   0.639  0.1005 -0.3355  0.1775
10079SOL    HW131018   1.931   7.019   0.676 -0.0797 -0.8035  0.9715
10079SOL    HW231019   1.911   6.911   0.571  0.6862  0.8301 -0.9092
10080SOL     OW31020   7.182   4.497   7.382 -0.1075 -0.1941  0.2636
10080SOL    HW131021   7.192   4.429   7.449 -1.3729  0.8969  1.6287
10080SOL    HW231022   7.093   4.529   7.393  0.4605  1.7356 -0.2981
10081SOL     OW31023   0.737   0.136   6.840  0.4243 -0.6255 -0.5072
10081SOL    HW131024   0.674   0.140   6.767 -0.0486 -0.2585 -0.0877
10081SOL    HW231025   0.694   0.080   6.905  0.3138  0.0317 -0.0120
10082SOL     OW31026   0.300   1.939   4.012  0.5596  0.0008  0.2774
10082SOL    HW131027   0.280   1.861   4.063 -1.3449  0.1121 -0.2310
10082SOL    HW231028   0.278   2.012   4.070 -1.1183  0.1249 -0.4618
10083SOL     OW31029   7.370   2.168   3.122  0.1412  0.3510 -0.3014
10083SOL    HW131030   7.300   2.125   3.073  0.4970  0.1959 -0.6710
10083SOL    HW231031   7.451   2.135   3.084  0.4451 -0.7252  1.2083
10084SOL     OW31032   3.610   6.178   1.909  0.0238 -0.2033 -0.1485
10084SOL    HW131033   3.541   6.141   1.854 -0.5299  0.5071  0.0539
10084SOL    HW231034   3.573   6.178   1.998  0.9722 -1.5042  0.2793
10085SOL     OW31035   1.486   3.151   1.188 -0.0604  0.4101 -0.2076
10085SOL    HW131036   1.512   3.206   1.115 -0.9799  0.2354 -0.6810
10085SOL    HW231037   1.391   3.143   1.180 -0.1775  0.3613  0.9851
10086SOL     OW31038   0.805   3.199   0.077 -0.7657 -0.0904  0.0332
10086SOL    HW131039   0.741   3.128   0.068 -1.3327  0.5724 -1.4887
10086SOL    HW231040   0.883   3.157   0.114 -1.4614 -1.2731  0.2148
10087SOL     OW31041   0.046   3.319   2.263 -0.1173 -0.0786  0.0377
10087SOL    HW131042   0.121   3.346   2.317 -0.1012  0.5213 -0.2762
10087SOL    HW231043   0.081   3.252   2.205  0.1357  0.0751  0.0100
10088SOL     OW31044   2.425   0.266   2.034  1.0419 -0.2670  0.5100
10088SOL    HW131045   2.368   0.264   1.957  0.6624 -1.8360  0.8002
10088SOL    HW231046   2.474   0.348   2.026  0.2538  0.0950 -0.8435
10089SOL     OW31047   3.099   5.407   3.516  0.0908  0.1883 -0.0768
10089SOL    HW131048   3.147   5.383   3.436  1.5589 -1.2563  1.1568
10089SOL    HW231049   3.007   5.398   3.492  0.5091 -1.3192 -1.3383
10090SOL     OW31050   2.393   1.991   4.938 -0.3856  0.3115  0.1565
10090SOL    HW131051   2.425   2.065   4.887  2.1072 -0.8903 -0.1237
10090SOL    HW231052   2.466   1.967   4.995 -1.0064 -2.0873  0.0545
10091SOL     OW31053   5.814   6.696   7.537  0.2239 -0.2951  0.4530
10091SOL    HW131054   5.833   6.737   7.621  1.1387 -3.2280  1.8072
10091SOL    HW231055   5.722   6.715   7.521  0.8543  3.2933  0.2465
10092SOL     OW31056   4.118   3.697   1.295  0.5391  0.0523 -0.3190
10092SOL    HW131057   4.194   3.726   1.244  0.7293 -1.1248 -0.7261
10092SOL    HW231058   4.047   3.755   1.267  0.8697  0.0349 -1.2229
10093SOL     OW31059   8.002   6.870   7.178 -0.5355 -0.1248  0.0283
10093SOL    HW131060   7.921   6.905   7.143  0.4071  0.3965 -1.7188
10093SOL    HW231061   7.998   6.776   7.160 -0.7302 -0.0933 -0.0915
10094SOL     OW31062   1.031   6.485   0.230 -0.8414 -0.7998 -0.5078
10094SOL    HW131063   1.047   6.561   0.174 -0.3554 -0.0210  0.6518
10094SOL    HW231064   1.089   6.417   0.196 -2.4336 -1.2258 -2.5679
10095SOL     OW31065   2.729   1.396   3.474  0.4164  0.4232 -0.2287
10095SOL    HW131066   2.716   1.463   3.541  0.0790 -0.2977  0.4385
10095SOL    HW231067   2.671   1.324   3.500  0.6222 -0.0518 -1.0449
10096SOL     OW31068   3.342   4.111   5.912  0.1708  0.0612 -0.4079
10096SOL    HW131069   3.312   4.131   5.824  0.8140  0.6423 -0.5049
10096SOL    HW231070   3.293   4.033   5.937  1.3594 -1.2692 -2.0016
10097SOL     OW31071   3.366   5.748   6.677 -0.1640 -0.3158  0.5079
10097SOL    HW131072   3.411   5.818   6.630 -1.9218 -0.1743 -1.0831
10097SOL    HW231073   3.433   5.710   6.733  2.5781 -1.5258 -3.1840
10098SOL     OW31074   3.988   7.026   5.831 -0.6481  0.2880 -0.4717
10098SOL    HW131075   3.965   7.108   5.874  0.0426  0.1080  0.2668
10098SOL    HW231076   4.045   7.052   5.758  0.0585  0.4333  0.1191
10099SOL     OW31077   5.375   5.313   7.918 -0.0505  0.1474  0.1944
10099SOL    HW131078   5.340   5.283   8.002  0.1961 -0.4208  0.1022
10099SOL    HW231079   5.470   5.308   7.928 -0.0119  0.5688  0.0528
10100SOL     OW31080   0.067   6.516   1.233  0.2238 -0.1293  0.1297
10100SOL    HW131081   0.108   6.508   1.147 -0.6266  0.3122 -0.3397
10100SOL    HW231082   0.034   6.429   1.253 -1.8477  0.2635 -1.2109
10101SOL     OW31083   5.194   6.245   5.709  0.2876  0.4291  0.0605
10101SOL    HW131084   5.159   6.333   5.724  0.6787  0.9768 -2.0585
10101SOL    HW231085   5.283   6.248   5.743 -0.1454  0.3884  1.2746
10102SOL     OW31086   1.635   0.172   5.959 -0.1137 -0.0125  0.1488
10102SOL    HW131087   1.582   0.129   5.892  1.0706 -1.0855 -0.1396
10102SOL    HW231088   1.596   0.144   6.042 -0.4841 -0.1335 -0.0630
10103SOL     OW31089   7.433   6.768   7.915 -0.0159 -0.5910  0.6218
10103SOL    HW131090   7.443   6.692   7.973 -1.1236 -0.9181  0.4202
10103SOL    HW231091   7.520   6.783   7.880  0.4248 -1.1582  1.4203
10104SOL     OW31092   1.445   3.434   3.234  0.2701 -0.7565  0.1627
10104SOL    HW131093   1.538   3.414   3.240  0.3853 -0.5342 -0.6699
10104SOL    HW231094   1.439   3.527   3.258  0.3778 -0.5543 -0.5801
10105SOL     OW31095   3.310   6.346   2.790  0.5475  0.1255  0.5320
10105SOL    HW131096   3.245   6.322   2.723  0.0491  1.6168  0.4386
10105SOL    HW231097   3.376   6.277   2.785  0.1231 -0.2165 -0.9760
10106SOL     OW31098   0.897   1.897   0.865 -0.2836 -0.4017  0.0747
10106SOL    HW131099   0.924   1.818   0.912 -0.2997 -1.9205 -2.2834
10106SOL    HW231100   0.829   1.936   0.920  1.4432 -0.5918  2.5021
10107SOL     OW31101   2.794   8.068   4.544 -0.0460  0.4208  0.1810
10107SOL    HW131102   2.825   8.095   4.458  0.4379 -1.0781 -0.1496
10107SOL    HW231103   2.707   8.107   4.552  0.4384  1.6774 -0.4036
10108SOL     OW31104   6.777   5.440   1.033 -0.2536 -0.3021  0.2248
10108SOL    HW131105   6.761   5.507   1.100 -0.0232 -2.0422  2.1459
10108SOL    HW231106   6.691   5.399   1.020  0.0658 -1.3042  1.0517
10109SOL     OW31107   7.324   5.347   1.683 -0.1374 -0.4310  0.8120
10109SOL    HW131108   7.367   5.361   1.767  0.8960  2.7402 -0.1107
10109SOL    HW231109   7.388   5.379   1.618 -2.3167  0.7365 -0.8837
10110SOL     OW31110   2.576   7.142   3.304 -0.3381 -0.7587 -0.8052
10110SOL    HW131111   2.559   7.061   3.352 -0.5223 -0.6546 -0.6956
10110SOL    HW231112   2.523   7.208   3.349 -0.4365 -0.6430 -1.0943
10111SOL     OW31113   2.014   5.689   3.429 -0.1976 -0.3300 -0.5887
10111SOL    HW131114   2.028   5.691   3.523 -0.3408 -1.1423 -0.5385
10111SOL    HW231115   1.991   5.598   3.410  0.7174 -0.3865 -1.5335
10112SOL     OW31116   7.651   0.823   5.896  0.2005  0.8496 -0.3801
10112SOL    HW131117   7.614   0.750   5.847  0.5650  1.3394 -1.4031
10112SOL    HW231118   7.575   0.865   5.937 -0.3640  1.6353 -2.1685
10113SOL     OW31119   0.353   1.483   6.792  0.5106  0.1606  0.3815
10113SOL    HW131120   0.350   1.405   6.847  0.0556  0.2727  0.5222
10113SOL    HW231121   0.345   1.556   6.853 -0.4558  0.2734  0.1407
10114SOL     OW31122   3.066   0.395   2.017  0.4147 -0.1021 -0.2543
10114SOL    HW131123   3.115   0.335   2.073 -0.6641  0.2203  1.0947
10114SOL    HW231124   2.976   0.361   2.019  0.2683  0.1724 -1.4547
10115SOL     OW31125   4.169   5.203   0.136  0.1432 -0.1187  0.4879
10115SOL    HW131126   4.086   5.250   0.139 -1.3018 -2.4494 -0.0334
10115SOL    HW231127   4.185   5.177   0.226  0.0361 -0.0545  0.5256
10116SOL     OW31128   1.580   3.374   6.755 -0.3081  0.2630 -0.1839
10116SOL    HW131129   1.564   3.365   6.661 -3.9807  0.9481  0.2557
10116SOL    HW231130   1.571   3.468   6.771  1.5286  0.3353  0.7586
10117SOL     OW31131   3.201   1.809   0.233 -0.7074  0.0133  0.3587
10117SOL    HW131132   3.209   1.898   0.199  0.5080  0.2799  1.2693
10117SOL    HW231133   3.167   1.758   0.159 -0.2425  0.9894 -0.5600
10118SOL     OW31134   4.558   5.221   3.401  0.2508 -0.2328  0.1736
10118SOL    HW131135   4.492   5.165   3.360  0.5525 -0.4081 -0.0828
10118SOL    HW231136   4.613   5.160   3.450 -0.4067  0.0309  1.2653
10119SOL     OW31137   0.562   4.814   6.061  0.2209  0.1532 -0.0594
10119SOL    HW131138   0.657   4.804   6.050  0.6547  0.7186  2.5165
10119SOL    HW231139   0.530   4.724   6.073  0.7603  0.0914  1.0404
10120SOL     OW31140   1.362   5.145   4.204  0.4272  0.7575  0.1487
10120SOL    HW131141   1.346   5.205   4.277  1.3319 -1.5033  2.3953
10120SOL    HW231142   1.328   5.190   4.127 -0.2775  3.4491  1.8935
10121SOL     OW31143   5.428   0.887   2.975 -0.0712  0.3795  0.5064
10121SOL    HW131144   5.407   0.927   2.891  1.1360  1.2355  0.5869
10121SOL    HW231145   5.343   0.867   3.015 -0.6973 -1.4817 -1.5447
10122SOL     OW31146   7.389   1.679   4.510 -0.2862  0.0594  0.1420
10122SOL    HW131147   7.342   1.759   4.533 -0.6362  0.3579 -1.4346
10122SOL    HW231148   7.436   1.701   4.429  1.1729 -0.7637  0.7304
10123SOL     OW31149   3.653   6.479   1.489  0.0393 -0.1993 -0.9390
10123SOL    HW131150   3.614   6.564   1.471  0.0952  0.3275  1.1748
10123SOL    HW231151   3.604   6.445   1.563 -0.0848 -2.1140 -1.8266
10124SOL     OW31152   5.420   1.629   8.024  0.4787  0.1169  0.4823
10124SOL    HW131153   5.371   1.712   8.022  1.7868  0.9152 -0.0523
10124SOL    HW231154   5.459   1.627   8.111  1.4725  0.7112  0.0674
10125SOL     OW31155   3.706   5.979   8.309  0.5290  0.3395  0.2684
10125SOL    HW131156   3.780   6.016   8.260  0.2087 -1.3141 -1.6038
10125SOL    HW231157   3.695   6.038   8.383  3.0241  1.2548  0.0198
10126SOL     OW31158   7.268   4.063   0.276 -0.6384 -0.1642  0.4906
10126SOL    HW131159   7.242   4.036   0.187  0.4465 -0.5341  0.2755
10126SOL    HW231160   7.235   3.992   0.332 -1.2378  0.0197  0.3868
10127SOL     OW31161   3.341   3.509   4.789 -0.1409 -0.2559  0.2081
10127SOL    HW131162   3.310   3.568   4.858  0.8168  1.0493 -0.4478
10127SOL    HW231163   3.392   3.443   4.835  1.0073  0.9510  0.7192
10128SOL     OW31164   5.043   2.995   4.408 -0.8139  0.0130 -0.0177
10128SOL    HW131165   5.128   3.026   4.376 -0.5620  0.8716  1.3931
10128SOL    HW231166   5.006   2.947   4.334  0.3842  0.6154 -1.0550
10129SOL     OW31167   5.934   6.253   8.315 -0.5224  0.0763  0.5032
10129SOL    HW131168   6.009   6.234   8.371 -0.8282 -0.8885  0.5977
10129SOL    HW231169   5.929   6.180   8.254 -0.5247  0.8486 -0.4508
10130SOL     OW31170   2.345   0.223   1.295 -0.3752  0.0105 -0.0349
10130SOL    HW131171   2.308   0.274   1.223 -0.3561 -1.3900 -1.0590
10130SOL    HW231172   2.404   0.285   1.339 -0.4027  0.8969 -1.1874
10131SOL     OW31173   1.104   1.883   6.369  0.0376 -0.0733 -0.1121
10131SOL    HW131174   1.113   1.843   6.455  1.5777  0.1841 -0.1358
10131SOL    HW231175   1.095   1.810   6.309  0.6893 -0.3185  0.0834
10132SOL     OW31176   2.742   5.210   6.674 -0.2288 -0.2148 -0.5239
10132SOL    HW131177   2.826   5.167   6.660  0.0497 -0.8370  2.5211
10132SOL    HW231178   2.763   5.302   6.686 -0.2001 -0.1098 -1.2900
10133SOL     OW31179   7.206   6.080   6.987 -0.2824 -1.0849  0.3575
10133SOL    HW131180   7.273   6.140   7.017 -0.1249 -1.6870  1.2452
10133SOL    HW231181   7.177   6.116   6.903  0.8095 -0.5668  0.1901
10134SOL     OW31182   4.891   3.155   4.561  0.3650 -0.2778 -0.1929
10134SOL    HW131183   4.940   3.091   4.509 -2.4599 -1.8068 -1.1823
10134SOL    HW231184   4.849   3.103   4.629  0.7289  1.1164  1.1571
10135SOL     OW31185   1.061   6.237   4.890  0.1652 -0.3775  0.0089
10135SOL    HW131186   1.038   6.219   4.981 -0.4185 -0.6800 -0.1932
10135SOL    HW231187   0.983   6.213   4.841  0.3085  0.2458 -0.5267
10136SOL     OW31188   7.219   7.114   1.693  0.5263  0.3991  0.3251
10136SOL    HW131189   7.155   7.154   1.752 -0.9179 -0.3692 -0.6379
10136SOL    HW231190   7.254   7.039   1.742  0.5680  0.7351  0.8083
10137SOL     OW31191   1.961   6.530   4.578 -0.0250  0.5847  0.2708
10137SOL    HW131192   1.981   6.538   4.671 -0.6792  0.8396  0.3954
10137SOL    HW231193   1.880   6.480   4.575 -0.3111  1.0579 -0.1302
10138SOL     OW31194   6.230   6.972   5.235 -0.2086 -0.6951 -0.2256
10138SOL    HW131195   6.322   6.958   5.256 -0.2529 -0.5789  0.0543
10138SOL    HW231196   6.229   6.990   5.141  0.0362 -0.8523 -0.2572
10139SOL     OW31197   0.899   3.291   4.583 -0.1012  0.1377 -0.0272
10139SOL    HW131198   0.911   3.201   4.553  3.0903  0.1814  0.7652
10139SOL    HW231199   0.903   3.343   4.503  0.8549 -0.2538 -0.2533
10140SOL     OW31200   0.562   0.198   7.527 -0.3879 -0.7104  0.3327
10140SOL    HW131201   0.544   0.290   7.507  0.6375 -0.6370 -0.3319
10140SOL    HW231202   0.481   0.152   7.505 -1.0529  0.0722  1.0634
10141SOL     OW31203   4.742   8.312   1.398 -0.2447  0.3395 -0.0346
10141SOL    HW131204   4.671   8.368   1.366  0.8658  0.8379 -1.7851
10141SOL    HW231205   4.711   8.223   1.384 -1.1734  0.5140  0.7917
10142SOL     OW31206   5.113   0.879   3.024  0.1046 -0.0895  0.7351
10142SOL    HW131207   5.121   0.941   2.951  0.6380 -1.1311 -0.1208
10142SOL    HW231208   5.030   0.901   3.065 -1.0571 -0.5749 -1.2581
10143SOL     OW31209   2.361   6.561   7.291 -0.3627  0.1193 -0.0054
10143SOL    HW131210   2.279   6.553   7.340  0.7278 -1.5495  1.6255
10143SOL    HW231211   2.359   6.651   7.258 -2.0568  0.6704  1.4168
10144SOL     OW31212   6.241   7.883   5.953  0.0332  0.3689 -0.0719
10144SOL    HW131213   6.200   7.933   6.024  1.5172  0.9169  0.4520
10144SOL    HW231214   6.212   7.926   5.873 -0.7624  0.4537  0.2515
10145SOL     OW31215   1.345   3.267   2.790  0.2887  0.3244 -0.0526
10145SOL    HW131216   1.367   3.343   2.844  1.1440 -0.4724  0.7602
10145SOL    HW231217   1.401   3.197   2.823  0.6519 -0.2753 -1.8098
10146SOL     OW31218   7.839   1.197   3.403 -1.1177 -0.1404 -0.4931
10146SOL    HW131219   7.797   1.128   3.352 -1.2753  0.1625 -0.7798
10146SOL    HW231220   7.839   1.273   3.345 -0.1092 -0.1508 -0.5222
10147SOL     OW31221   2.885   5.416   2.869  0.1461  0.3006 -0.0903
10147SOL    HW131222   2.888   5.338   2.813 -0.6933 -1.4667  2.1930
10147SOL    HW231223   2.853   5.486   2.811 -1.3497 -1.5819 -1.6544
10148SOL     OW31224   1.588   4.867   8.067  0.0688 -0.1209 -0.7071
10148SOL    HW131225   1.530   4.907   8.131  1.0060  0.9317 -0.4765
10148SOL    HW231226   1.558   4.776   8.059 -1.6816  0.4374 -0.7339
10149SOL     OW31227   6.510   0.415   5.042  0.5449  0.2015 -0.1383
10149SOL    HW131228   6.431   0.462   5.018  0.8742  1.2102  0.6675
10149SOL    HW231229   6.540   0.374   4.961  0.2450  1.4038 -0.8724
10150SOL     OW31230   0.431   4.110   5.625  0.0174 -0.1403 -0.3601
10150SOL    HW131231   0.488   4.053   5.573 -0.6575 -1.3488  0.1912
10150SOL    HW231232   0.355   4.125   5.568 -1.4186 -2.6734  0.7135
10151SOL     OW31233   4.984   3.152   1.401  0.3117 -0.7901 -0.8050
10151SOL    HW131234   5.068   3.196   1.394 -0.2933  1.0690  1.8862
10151SOL    HW231235   4.921   3.215   1.367 -0.5480  0.6094  2.9083
10152SOL     OW31236   3.488   1.511   1.809 -0.3089  0.0337  0.1068
10152SOL    HW131237   3.468   1.468   1.726 -2.8651  0.5067  0.3987
10152SOL    HW231238   3.568   1.561   1.791  0.7000 -1.9296 -1.2603
10153SOL     OW31239   1.441   0.912   7.030 -0.0125 -0.5204 -0.2148
10153SOL    HW131240   1.391   0.836   7.000 -0.2436 -0.4591  0.0122
10153SOL    HW231241   1.430   0.978   6.961  0.0261 -0.6203 -0.3173
10154SOL     OW31242   3.945   1.612   5.603 -0.3473  0.0761  0.5587
10154SOL    HW131243   3.904   1.618   5.517  0.0519  1.1695  0.4298
10154SOL    HW231244   3.886   1.661   5.661  0.0480  0.4499  0.6482
10155SOL     OW31245   1.484   2.922   0.751 -0.3437 -0.1462  0.4015
10155SOL    HW131246   1.469   3.016   0.741 -0.8984 -0.1775  0.9135
10155SOL    HW231247   1.467   2.905   0.844  1.1699 -0.4956  0.6418
10156SOL     OW31248   6.938   7.466   5.955  0.4092 -0.3354 -0.6319
10156SOL    HW131249   6.855   7.437   5.917  0.8292 -1.5647 -0.6764
10156SOL    HW231250   6.988   7.385   5.968  1.2156  0.2846  0.3187
10157SOL     OW31251   5.502   7.826   2.902  0.5748 -0.0176  0.4446
10157SOL    HW131252   5.462   7.878   2.971 -0.2769  2.9289 -2.0174
10157SOL    HW231253   5.436   7.762   2.878 -0.4923  1.1369  0.1959
10158SOL     OW31254   4.195   3.870   5.258  0.1802 -0.3415  0.4708
10158SOL    HW131255   4.262   3.802   5.259  1.1512  0.5527 -0.5019
10158SOL    HW231256   4.208   3.915   5.174 -1.6181 -0.1102  0.2883
10159SOL     OW31257   7.953   3.357   1.368  0.1218  0.0723 -0.4356
10159SOL    HW131258   7.900   3.304   1.308 -0.4349  0.6339 -0.4554
10159SOL    HW231259   7.918   3.336   1.455  0.2253  0.0420 -0.4017
10160SOL     OW31260   4.754   6.913   4.793 -0.1289 -0.0583 -0.3454
10160SOL    HW131261   4.729   6.936   4.704 -0.2860  1.7766  0.1313
10160SOL    HW231262   4.738   6.819   4.799 -1.3595  0.0155 -1.8376
10161SOL     OW31263   2.959   2.376   4.928 -0.5115 -0.2736  0.2850
10161SOL    HW131264   3.036   2.350   4.979  0.5540  2.9770  0.6201
10161SOL    HW231265   2.990   2.377   4.837 -1.0669 -1.6998  0.0547
10162SOL     OW31266   7.449   5.559   0.065  0.0582  0.1999  0.2413
10162SOL    HW131267   7.365   5.579   0.025  0.2397 -0.0593 -0.2804
10162SOL    HW231268   7.452   5.463   0.070 -0.6084  0.2367  2.2880
10163SOL     OW31269   4.430   4.512   1.327 -0.0657  0.3868 -0.2602
10163SOL    HW131270   4.415   4.605   1.343  0.0192  0.1463  1.4097
10163SOL    HW231271   4.345   4.471   1.342  0.2767  0.0146  0.7776
10164SOL     OW31272   8.241   2.916   4.985 -0.7554 -0.2923  0.0864
10164SOL    HW131273   8.177   2.848   4.965 -1.4959  0.4652 -0.1631
10164SOL    HW231274   8.204   2.996   4.948  0.1034  0.2524  0.3708
10165SOL     OW31275   8.270   1.149   4.922 -1.0762 -0.3975 -0.0150
10165SOL    HW131276   8.256   1.075   4.863 -2.4865 -0.2456  0.0958
10165SOL    HW231277   8.252   1.226   4.869 -2.2923 -0.2564  0.5621
10166SOL     OW31278   2.606   3.913   7.284 -0.2376 -0.4814  0.1786
10166SOL    HW131279   2.531   3.859   7.310 -0.1300 -2.2382 -2.7271
10166SOL    HW231280   2.672   3.898   7.352 -1.4927 -1.1377  1.2907
10167SOL     OW31281   5.854   2.359   7.953 -0.1963  0.0335  0.4474
10167SOL    HW131282   5.902   2.441   7.964 -0.5309  0.3363 -0.2446
10167SOL    HW231283   5.767   2.377   7.988 -0.1443 -0.1601  0.6778
10168SOL     OW31284   2.236   5.378   3.730  0.2585  0.6829 -0.2469
10168SOL    HW131285   2.186   5.387   3.811  1.0866  0.7665  0.2702
10168SOL    HW231286   2.245   5.283   3.718  2.9431  0.6013  1.5895
10169SOL     OW31287   7.640   4.883   0.018 -0.0712  0.6079  0.5451
10169SOL    HW131288   7.600   4.902  -0.067  1.3960  0.4794 -0.2080
10169SOL    HW231289   7.599   4.946   0.077 -2.1935 -0.2536  0.0921
10170SOL     OW31290   2.851   5.231   4.744  0.2384  0.0632 -0.1311
10170SOL    HW131291   2.765   5.234   4.786  0.5368  0.1662  0.4790
10170SOL    HW231292   2.848   5.300   4.679 -0.7550 -1.0506 -1.3283
10171SOL     OW31293   2.392   1.967   2.178  0.0145  0.0026 -0.3664
10171SOL    HW131294   2.359   2.000   2.261  1.5978 -1.9948  1.1887
10171SOL    HW231295   2.478   2.008   2.168 -0.7934  1.4652 -1.9218
10172SOL     OW31296   0.822   0.622   7.063 -0.2752 -0.0635  0.0669
10172SOL    HW131297   0.839   0.704   7.015 -2.5811  0.9775  0.8976
10172SOL    HW231298   0.789   0.562   6.996 -2.7277  1.1344  0.0695
10173SOL     OW31299   3.824   8.203   4.012 -0.5176  0.2150  0.0710
10173SOL    HW131300   3.852   8.207   4.103  0.1256  0.3699 -0.1245
10173SOL    HW231301   3.730   8.218   4.014 -0.6691 -0.7208  0.7937
10174SOL     OW31302   8.196   2.675   3.555  0.1278 -0.3805 -0.0519
10174SOL    HW131303   8.131   2.635   3.497 -1.1542  0.7884  0.5274
10174SOL    HW231304   8.280   2.656   3.513 -0.6916 -0.4228 -1.7794
10175SOL     OW31305   5.161   0.556   1.070  0.4783 -0.4134 -0.1644
10175SOL    HW131306   5.248   0.555   1.031  0.6664 -2.1023  0.2140
10175SOL    HW231307   5.176   0.539   1.163 -0.1827  0.6154  0.1565
10176SOL     OW31308   5.298   5.652   4.201 -0.6637 -0.1415  0.3123
10176SOL    HW131309   5.341   5.697   4.274  2.0157 -0.9186 -0.6705
10176SOL    HW231310   5.334   5.564   4.203  0.0375  0.0047 -2.3083
10177SOL     OW31311   4.240   6.099   1.131  0.1087  0.1295  0.1860
10177SOL    HW131312   4.178   6.146   1.187 -1.1286 -0.9964 -0.1779
10177SOL    HW231313   4.319   6.090   1.185 -0.3029  0.9412  0.9405
10178SOL     OW31314   2.369   4.139   1.051  0.3334 -0.7921  0.3223
10178SOL    HW131315   2.329   4.093   0.978  1.5075 -1.6925  0.2292
10178SOL    HW231316   2.304   4.133   1.121 -0.5824 -0.3547 -0.4639
10179SOL     OW31317   7.043   0.706   3.353  0.1145  0.4746  0.2756
10179SOL    HW131318   7.078   0.652   3.282  1.7815  2.4394 -0.5014
10179SOL    HW231319   6.952   0.678   3.362  0.1997 -0.6771 -1.8011
10180SOL     OW31320   4.661   2.946   7.773 -0.0129  0.9881 -0.0343
10180SOL    HW131321   4.651   2.875   7.710 -2.0382  1.6911 -0.5928
10180SOL    HW231322   4.695   3.019   7.721 -1.5931  1.5396 -0.3483
10181SOL     OW31323   1.577   5.749   0.513  0.6226 -0.2033  0.2535
10181SOL    HW131324   1.660   5.790   0.538  0.3452  1.1155 -0.8633
10181SOL    HW231325   1.543   5.712   0.594  0.5759  2.3944  1.5209
10182SOL     OW31326   6.285   8.215   5.940  0.5157 -0.4631  0.3064
10182SOL    HW131327   6.354   8.223   6.006  1.7075 -0.1515 -0.9300
10182SOL    HW231328   6.329   8.178   5.864 -0.7229 -0.3892 -0.4739
10183SOL     OW31329   7.998   6.368   7.334  0.2472  0.0467  0.2260
10183SOL    HW131330   7.907   6.378   7.306 -0.1806 -0.6137  1.3178
10183SOL    HW231331   8.033   6.298   7.278 -0.1954 -0.3407  0.4288
10184SOL     OW31332   3.989   3.314   1.464  0.0506 -0.4212  0.1474
10184SOL    HW131333   4.047   3.387   1.485 -0.8350  0.7682 -1.3293
10184SOL    HW231334   4.037   3.236   1.494  0.5532  0.7904  2.7578
10185SOL     OW31335   3.476   0.515   3.442 -0.7607 -0.0074  0.0537
10185SOL    HW131336   3.443   0.536   3.355 -0.0249 -2.2056 -0.8389
10185SOL    HW231337   3.571   0.506   3.430 -0.3067  1.9745  1.6331
10186SOL     OW31338   0.265   1.824   2.747  1.1655 -0.3647  0.4664
10186SOL    HW131339   0.217   1.750   2.708  0.8377 -0.8482  1.7376
10186SOL    HW231340   0.211   1.901   2.726  0.6851 -0.6939  0.4792
10187SOL     OW31341   4.315   2.619   5.531  0.1747  0.0831  0.5535
10187SOL    HW131342   4.364   2.564   5.469  1.4686  1.5958  0.1740
10187SOL    HW231343   4.228   2.626   5.492  0.3999 -0.5521 -0.1005
10188SOL     OW31344   3.984   2.932   4.393  0.0472  0.2338 -0.1084
10188SOL    HW131345   3.963   2.912   4.484 -0.8996  1.0601 -0.1394
10188SOL    HW231346   3.904   2.969   4.357  0.8504  1.2699 -0.8736
10189SOL     OW31347   1.689   1.396   7.261  0.4528  0.5636 -0.4824
10189SOL    HW131348   1.724   1.360   7.180  2.1360  1.2519 -0.1023
10189SOL    HW231349   1.695   1.324   7.324  0.1286  0.3403 -0.7081
10190SOL     OW31350   7.011   6.931   0.586 -0.2957  0.0027 -0.0128
10190SOL    HW131351   6.963   6.986   0.648 -0.9785 -0.7778  0.1745
10190SOL    HW231352   6.953   6.856   0.570  2.4621 -3.3102  3.5891
10191SOL     OW31353   1.687   0.545   1.426 -0.2062 -0.4565 -0.4858
10191SOL    HW131354   1.596   0.573   1.419 -0.7608 -1.9147  0.4247
10191SOL    HW231355   1.693   0.466   1.372  0.1030 -1.2505  0.6624
10192SOL     OW31356   4.767   7.713   6.430  0.3781 -0.5001  0.6378
10192SOL    HW131357   4.828   7.779   6.398 -1.7951  0.3237 -2.2246
10192SOL    HW231358   4.721   7.756   6.502  1.7511 -0.4162  1.4846
10193SOL     OW31359   7.908   0.997   7.646  0.2036  0.1994 -0.0474
10193SOL    HW131360   7.985   0.943   7.665 -0.1012 -0.6492 -1.1199
10193SOL    HW231361   7.943   1.085   7.634  0.7873  0.1528  1.1326
10194SOL     OW31362   7.718   1.689   5.350  0.3917 -0.4338 -0.5876
10194SOL    HW131363   7.675   1.612   5.389  0.0803 -0.2926 -0.6517
10194SOL    HW231364   7.671   1.764   5.386  1.2894 -0.2334  0.1942
10195SOL     OW31365   0.259   7.337   5.854 -0.2019  0.9455 -0.1104
10195SOL    HW131366   0.207   7.333   5.934 -0.1798  0.2608 -0.1194
10195SOL    HW231367   0.277   7.245   5.833  0.0956  1.1341 -0.7023
10196SOL     OW31368   1.002   7.186   4.897  1.0380 -0.2690  0.0393
10196SOL    HW131369   0.913   7.153   4.910  2.1084 -2.6820  2.0915
10196SOL    HW231370   0.992   7.281   4.897 -1.4376 -0.4347  1.0305
10197SOL     OW31371   5.157   4.397   5.274  0.5281 -0.2871 -0.2532
10197SOL    HW131372   5.221   4.446   5.223 -0.1297  1.3765  0.4160
10197SOL    HW231373   5.112   4.464   5.326  0.0894 -1.7093  1.3098
10198SOL     OW31374   5.981   2.403   4.170 -0.4226 -0.6754 -0.2745
10198SOL    HW131375   5.908   2.454   4.134  0.2220 -0.4929 -1.3524
10198SOL    HW231376   5.941   2.320   4.197 -0.7654 -1.3154 -2.5461
10199SOL     OW31377   7.786   8.136   7.115  0.1007  0.0756 -0.7747
10199SOL    HW131378   7.850   8.206   7.125  0.8795 -0.3111 -2.7339
10199SOL    HW231379   7.720   8.170   7.055 -2.1535  0.8158  1.9230
10200SOL     OW31380   6.660   6.142   2.423 -0.3163  0.2626 -0.8101
10200SOL    HW131381   6.630   6.054   2.445 -0.5942  0.4878 -0.2358
10200SOL    HW231382   6.745   6.150   2.467  1.6418 -1.0780 -4.0610
10201SOL     OW31383   0.436   6.865   3.692  0.0972 -0.2234  0.2730
10201SOL    HW131384   0.503   6.829   3.635 -0.4947  0.4949 -0.9178
10201SOL    HW231385   0.353   6.834   3.655 -0.2664 -1.3046  1.8629
10202SOL     OW31386   5.416   0.340   6.444 -0.1759 -0.0972 -0.0377
10202SOL    HW131387   5.450   0.429   6.451 -0.4563 -0.0574  0.9591
10202SOL    HW231388   5.440   0.312   6.356 -0.8404  1.2779 -0.6834
10203SOL     OW31389   7.364   1.382   6.590 -0.1644  0.3430 -0.6089
10203SOL    HW131390   7.443   1.366   6.537 -0.2547 -0.3191 -0.5592
10203SOL    HW231391   7.312   1.302   6.580 -0.0783  0.1003  0.6543
10204SOL     OW31392   1.511   3.659   4.282 -0.4497 -0.6105 -0.3153
10204SOL    HW131393   1.464   3.710   4.216  1.5668 -2.0373 -3.0598
10204SOL    HW231394   1.576   3.719   4.317  0.1591 -0.5270 -1.5544
10205SOL     OW31395   1.796   5.426   6.775 -0.2549  0.3699 -0.6412
10205SOL    HW131396   1.872   5.369   6.763  0.1774  0.2518  1.9789
10205SOL    HW231397   1.724   5.366   6.794 -0.4522  0.5812 -0.7262
10206SOL     OW31398   7.098   5.446   7.167 -0.0808 -0.0077  0.3408
10206SOL    HW131399   7.148   5.524   7.142 -0.6961  0.7500  1.3969
10206SOL    HW231400   7.007   5.474   7.167 -0.3195 -0.7522  0.6325
10207SOL     OW31401   8.247   1.557   0.678  0.0531  0.3063 -0.1178
10207SOL    HW131402   8.225   1.590   0.765  0.8881  0.8954 -0.1221
10207SOL    HW231403   8.281   1.468   0.694  1.6710  0.9664  0.3549
10208SOL     OW31404   7.919   7.062   5.371 -0.0957  0.4167 -0.0289
10208SOL    HW131405   7.977   7.027   5.439  1.1791 -0.3967 -1.4529
10208SOL    HW231406   7.975   7.123   5.322 -0.6007  0.0341 -1.1064
10209SOL     OW31407   0.570   5.366   4.846  0.9118 -0.1744  0.2678
10209SOL    HW131408   0.517   5.417   4.908 -0.6011 -0.9555 -0.3214
10209SOL    HW231409   0.637   5.324   4.900 -0.2391 -0.6742  1.3652
10210SOL     OW31410   5.126   1.410   0.756  0.6790 -0.1741 -0.5932
10210SOL    HW131411   5.066   1.474   0.795  0.6036 -0.6005  0.0123
10210SOL    HW231412   5.079   1.326   0.764  1.6630 -0.6418  0.6064
10211SOL     OW31413   7.573   7.636   0.076  0.3445 -0.0930  0.0329
10211SOL    HW131414   7.604   7.718   0.037 -0.2146 -0.0118 -0.2603
10211SOL    HW231415   7.567   7.575   0.003  2.2098 -0.8802  0.4773
10212SOL     OW31416   6.126   3.167   2.804 -0.0657  0.0081 -0.2324
10212SOL    HW131417   6.191   3.096   2.800 -0.7016 -0.6645  0.8741
10212SOL    HW231418   6.046   3.128   2.769 -0.1676  0.4922 -0.5419
10213SOL     OW31419   2.874   6.184   4.541  0.9732  0.0103 -0.5280
10213SOL    HW131420   2.967   6.208   4.541  0.8653  0.4531 -0.4842
10213SOL    HW231421   2.829   6.266   4.565  0.4391  0.3618 -2.5288
10214SOL     OW31422   5.519   0.287   5.236 -0.3809 -0.2135 -0.1858
10214SOL    HW131423   5.611   0.314   5.240 -0.5072  0.0472  2.4398
10214SOL    HW231424   5.519   0.207   5.183  1.9049 -2.1012  2.3842
10215SOL     OW31425   6.888   2.081   6.194 -0.1528  0.5483  0.1310
10215SOL    HW131426   6.797   2.076   6.166 -0.0511 -2.2561  0.0457
10215SOL    HW231427   6.885   2.129   6.277 -1.7003  0.4553  0.1602
10216SOL     OW31428   3.907   2.922   5.960  0.5413  0.5426  0.0201
10216SOL    HW131429   3.983   2.874   5.995  1.1366 -0.2817 -2.1931
10216SOL    HW231430   3.934   3.013   5.960  0.9283  0.4361  0.6598
10217SOL     OW31431   2.341   0.407   3.466 -0.0648 -0.0434 -0.1022
10217SOL    HW131432   2.426   0.384   3.428 -0.5485 -1.8670 -0.1551
10217SOL    HW231433   2.351   0.393   3.560  0.0349  0.9309  0.0469
10218SOL     OW31434   3.464   6.555   6.905 -0.0993  0.1859  0.0422
10218SOL    HW131435   3.427   6.486   6.849 -0.6855  0.0203  0.6287
10218SOL    HW231436   3.427   6.538   6.991  2.9046 -1.2598  1.2054
10219SOL     OW31437   2.046   6.910   0.908  0.2851 -0.3398  0.6625
10219SOL    HW131438   2.091   6.992   0.925 -0.6718  0.1857  0.6736
10219SOL    HW231439   2.058   6.894   0.814 -0.9422  0.6828  0.3083
10220SOL     OW31440   6.210   5.062   5.075  0.0415  0.2761 -0.0380
10220SOL    HW131441   6.139   5.090   5.018  0.4670  0.5928 -0.4185
10220SOL    HW231442   6.234   5.140   5.125  0.0318  0.1384  0.1821
10221SOL     OW31443   1.232   0.143   5.584 -0.0252 -0.2198 -0.5182
10221SOL    HW131444   1.204   0.231   5.612  1.7859  0.6319 -1.2054
10221SOL    HW231445   1.160   0.086   5.610 -0.4502  1.1705  1.7324
10222SOL     OW31446   0.863   8.098   5.187  0.2441 -0.1612  0.7070
10222SOL    HW131447   0.777   8.086   5.148 -0.7006  0.8655  2.3642
10222SOL    HW231448   0.846   8.146   5.267  2.4341  0.5333  0.8086
10223SOL     OW31449   0.891   3.655   5.573 -0.2508  0.7248  0.4981
10223SOL    HW131450   0.934   3.605   5.504 -1.3781  0.4245  0.0025
10223SOL    HW231451   0.961   3.670   5.638  0.7412  0.7459 -0.5399
10224SOL     OW31452   1.408   2.550   7.865 -0.2807 -1.0312 -0.0091
10224SOL    HW131453   1.330   2.526   7.916 -0.2904 -1.7836 -0.3582
10224SOL    HW231454   1.417   2.480   7.800  0.5179 -0.8066 -0.1601
10225SOL     OW31455   2.821   2.350   6.098 -0.5373  0.0111 -0.0390
10225SOL    HW131456   2.782   2.434   6.071  0.7854  2.0697  3.7379
10225SOL    HW231457   2.908   2.351   6.058 -1.1395 -0.4840 -1.4338
10226SOL     OW31458   7.046   5.308   5.527  0.6915 -0.3301 -0.3315
10226SOL    HW131459   7.021   5.389   5.571 -2.3038  0.2326 -2.7704
10226SOL    HW231460   7.010   5.238   5.583 -0.4605  0.2286 -0.3568
10227SOL     OW31461   2.249   3.911   2.972  0.0145  0.7137 -0.2019
10227SOL    HW131462   2.154   3.918   2.964  0.1395  2.5877 -0.6073
10227SOL    HW231463   2.280   4.002   2.967  2.0213  0.0213 -2.6886
10228SOL     OW31464   0.148   4.192   7.215  0.0201 -0.3455  0.1917
10228SOL    HW131465   0.180   4.131   7.149  0.4814  1.6146 -1.5045
10228SOL    HW231466   0.053   4.181   7.214  0.0256 -0.3306 -0.8268
10229SOL     OW31467   0.456   0.676   2.310 -0.2117 -0.1104  0.0268
10229SOL    HW131468   0.522   0.633   2.255  0.0551  0.5450 -0.1740
10229SOL    HW231469   0.384   0.613   2.314  0.5041 -0.9426  0.4375
10230SOL     OW31470   2.072   2.684   6.244  0.3291 -0.3729  0.8506
10230SOL    HW131471   2.015   2.691   6.321  0.0171 -3.5132  1.0383
10230SOL    HW231472   2.160   2.679   6.280  0.4705  1.2095  0.7686
10231SOL     OW31473   3.541   6.387   5.912 -0.1119  0.0102  0.0474
10231SOL    HW131474   3.622   6.410   5.867  0.5530 -0.5791  0.9028
10231SOL    HW231475   3.476   6.449   5.878  0.8273  0.8912 -0.2030
10232SOL     OW31476   4.174   0.001   0.076 -0.0152 -0.4267  0.4749
10232SOL    HW131477   4.165   0.022  -0.017 -1.0897 -0.6224  0.5248
10232SOL    HW231478   4.150   0.081   0.122 -0.2653 -0.5667  0.5916
10233SOL     OW31479   6.331   5.701   0.317  0.1817 -0.4102 -0.3165
10233SOL    HW131480   6.243   5.668   0.330 -0.1047  0.1907 -0.6726
10233SOL    HW231481   6.338   5.776   0.376  0.3565 -0.2883 -0.4882
10234SOL     OW31482   7.727   1.797   7.877 -0.0301  0.0409 -0.9701
10234SOL    HW131483   7.770   1.870   7.833  0.9235  0.8601  1.2203
10234SOL    HW231484   7.684   1.836   7.953  0.6111 -1.6755  0.3364
10235SOL     OW31485   7.594   4.330   5.973  0.2116  0.0622 -0.3766
10235SOL    HW131486   7.642   4.363   5.897 -1.4624  2.1607 -0.5917
10235SOL    HW231487   7.557   4.247   5.943  1.6424 -0.4002 -0.9828
10236SOL     OW31488   1.959   6.195   7.462  0.4426  0.2306 -0.1994
10236SOL    HW131489   1.876   6.234   7.433  0.8453  1.7778  0.6022
10236SOL    HW231490   1.943   6.168   7.552  0.1613 -1.5740 -0.7611
10237SOL     OW31491   7.051   6.695   0.308  0.4838  0.2463  0.4481
10237SOL    HW131492   7.028   6.671   0.397  0.3094  0.0082  0.3391
10237SOL    HW231493   6.968   6.712   0.265  0.4102 -1.5761 -0.2261
10238SOL     OW31494   4.254   1.433   4.937  0.2417  0.2295 -0.0530
10238SOL    HW131495   4.186   1.410   4.873  0.7644  1.9717 -1.3124
10238SOL    HW231496   4.206   1.455   5.016 -0.5587 -0.0559 -0.4461
10239SOL     OW31497   1.399   1.570   0.406 -0.2608  0.1119 -0.3055
10239SOL    HW131498   1.479   1.623   0.417  0.1007 -0.7513  1.6152
10239SOL    HW231499   1.427   1.495   0.353 -0.0578  0.3092 -0.4843
10240SOL     OW31500   7.654   6.244   3.281  0.2352 -0.2297  0.0178
10240SOL    HW131501   7.720   6.292   3.231  0.7517 -0.3167  0.6026
10240SOL    HW231502   7.704   6.184   3.336 -0.3802 -1.0973 -0.3443
10241SOL     OW31503   3.107   0.210   0.108  0.1868 -0.4737 -0.4121
10241SOL    HW131504   3.063   0.284   0.067 -0.3732 -1.5812 -1.9372
10241SOL    HW231505   3.185   0.195   0.054  0.8424 -0.3605  0.4963
10242SOL     OW31506   7.140   1.793   0.592  0.1699 -0.1386  0.1866
10242SOL    HW131507   7.051   1.819   0.616  0.2177 -0.2146  0.4595
10242SOL    HW231508   7.152   1.826   0.503  0.2186  0.7356  0.5055
10243SOL     OW31509   1.308   7.372   3.640 -0.1087 -0.1706 -0.2108
10243SOL    HW131510   1.244   7.347   3.573  0.2482  2.0311 -1.4602
10243SOL    HW231511   1.391   7.334   3.610 -0.0168  0.5373 -0.8795
10244SOL     OW31512   5.067   0.562   4.959 -0.0698 -0.3118 -0.0637
10244SOL    HW131513   5.080   0.585   5.051 -1.5870 -1.1526  0.3954
10244SOL    HW231514   5.000   0.494   4.961 -0.5024  0.0279 -1.8317
10245SOL     OW31515   3.333   3.755   2.638 -0.1415 -0.2745  0.1147
10245SOL    HW131516   3.255   3.699   2.642  0.4301 -1.2470 -1.5265
10245SOL    HW231517   3.300   3.841   2.612 -0.7097 -0.5888 -0.2277
10246SOL     OW31518   5.618   4.722   7.167  0.2076  0.2037  0.0615
10246SOL    HW131519   5.562   4.661   7.120 -0.2152  0.3117  0.4163
10246SOL    HW231520   5.640   4.789   7.103 -1.8924  1.3623  0.4735
10247SOL     OW31521   4.915   8.048   5.993 -0.2676  0.5429  0.6488
10247SOL    HW131522   4.940   8.001   5.914  3.4628  1.1415  1.2981
10247SOL    HW231523   4.859   7.986   6.041 -0.0498 -1.0255 -1.0270
10248SOL     OW31524   7.400   6.114   0.645  0.2049  0.5628 -0.0198
10248SOL    HW131525   7.408   6.153   0.558 -2.1819  2.6186  0.5712
10248SOL    HW231526   7.330   6.164   0.687  0.6243 -1.0064  2.7527
10249SOL     OW31527   1.063   1.593   4.958  0.0966  0.0178 -0.3180
10249SOL    HW131528   1.156   1.577   4.969  0.5373  2.1837 -0.5348
10249SOL    HW231529   1.023   1.558   5.038  1.0548 -0.9544 -0.2371
10250SOL     OW31530   1.416   4.670   3.071  0.6657  0.3096  0.3947
10250SOL    HW131531   1.387   4.587   3.109  0.9878  0.0653  0.1204
10250SOL    HW231532   1.348   4.733   3.095 -0.7341 -0.4907 -1.2262
10251SOL     OW31533   3.182   6.288   0.823 -0.1231 -0.0746 -0.7011
10251SOL    HW131534   3.217   6.321   0.906  1.2235 -0.5821 -1.0459
10251SOL    HW231535   3.159   6.197   0.841 -1.9601  0.4409 -0.2930
10252SOL     OW31536   2.662   1.482   1.582  0.0596  0.1930  0.0276
10252SOL    HW131537   2.637   1.484   1.490 -0.5467 -3.6522 -0.0445
10252SOL    HW231538   2.593   1.530   1.627 -1.8264 -1.2407 -1.2034
10253SOL     OW31539   0.143   5.110   5.458  0.3812  0.0431 -0.8954
10253SOL    HW131540   0.106   5.135   5.542  0.8611 -0.9206 -0.3817
10253SOL    HW231541   0.210   5.176   5.441 -0.4448  0.8582 -1.0548
10254SOL     OW31542   6.698   0.084   8.200  0.1103  0.2796  0.8579
10254SOL    HW131543   6.637   0.112   8.268  0.2511 -1.0476  1.5628
10254SOL    HW231544   6.647   0.024   8.146  0.2239  0.7413  0.2201
10255SOL     OW31545   2.925   2.020   2.878 -0.1315  0.2537 -0.0793
10255SOL    HW131546   3.017   1.994   2.891 -0.0684  0.2099 -0.6088
10255SOL    HW231547   2.924   2.114   2.898  0.0387  0.2679 -0.1379
10256SOL     OW31548   3.955   2.508   1.355  0.1515 -0.6037 -0.9011
10256SOL    HW131549   3.879   2.450   1.359 -0.2193 -0.0530  1.3700
10256SOL    HW231550   4.024   2.453   1.318  0.6029 -3.6071  3.5732
10257SOL     OW31551   5.131   6.565   5.128  0.0466  0.2043  0.6784
10257SOL    HW131552   5.129   6.471   5.109  1.4199  0.1657  0.6807
10257SOL    HW231553   5.044   6.596   5.101 -0.2327 -0.9628  0.1639
10258SOL     OW31554   2.876   5.632   2.684  0.3749 -0.5290  0.5653
10258SOL    HW131555   2.959   5.653   2.727 -0.7813 -0.6899  3.0672
10258SOL    HW231556   2.852   5.713   2.639  2.4069 -0.8497 -1.2564
10259SOL     OW31557   6.753   5.138   3.531  0.1963 -0.1741  0.2385
10259SOL    HW131558   6.725   5.106   3.446 -2.1125  0.1067  0.8078
10259SOL    HW231559   6.849   5.140   3.527  0.2523 -2.6203 -1.4050
10260SOL     OW31560   6.610   3.744   5.453  0.6919  0.2998 -0.4642
10260SOL    HW131561   6.574   3.666   5.412  0.1711  0.7435 -0.8600
10260SOL    HW231562   6.538   3.806   5.455  1.4240  1.2100 -1.2967
10261SOL     OW31563   1.244   5.905   7.364  0.9923 -0.4568 -0.8826
10261SOL    HW131564   1.323   5.889   7.312  2.1500 -0.6762  0.8539
10261SOL    HW231565   1.212   5.818   7.387  0.3260 -0.3652 -1.4523
10262SOL     OW31566   5.067   4.043   4.819  0.2479  0.0986 -0.1781
10262SOL    HW131567   5.140   4.089   4.861  0.6865 -1.5627  1.0144
10262SOL    HW231568   5.061   3.960   4.867 -2.4415  0.1800 -0.2487
10263SOL     OW31569   7.838   7.775   3.880  0.6934  0.4161  0.1167
10263SOL    HW131570   7.813   7.687   3.853 -0.2482  0.9675 -0.8819
10263SOL    HW231571   7.756   7.824   3.885  1.2778  1.4845 -0.3083
10264SOL     OW31572   6.509   4.377   0.501 -0.2908  0.1581 -0.4908
10264SOL    HW131573   6.422   4.384   0.463 -0.2249 -0.9971 -0.8861
10264SOL    HW231574   6.567   4.419   0.437 -0.4202 -0.0481 -0.7428
10265SOL     OW31575   1.402   0.386   5.980  0.0529  0.6424  0.4832
10265SOL    HW131576   1.330   0.418   5.925  1.6344  0.8092 -1.5830
10265SOL    HW231577   1.385   0.293   5.990 -0.8169  0.8027  0.6263
10266SOL     OW31578   7.635   1.517   6.517  0.0418 -0.5677  0.0819
10266SOL    HW131579   7.661   1.564   6.438  0.8288  0.2662  0.8096
10266SOL    HW231580   7.606   1.585   6.577 -1.8809 -1.2944  0.0645
10267SOL     OW31581   5.382   1.188   3.788  0.0412 -0.0282  0.0627
10267SOL    HW131582   5.338   1.139   3.858  0.3128  1.8206  1.6380
10267SOL    HW231583   5.316   1.249   3.756  0.5141  0.5736  0.2056
10268SOL     OW31584   7.423   4.784   3.535  0.2290  0.2142  0.0534
10268SOL    HW131585   7.409   4.701   3.581 -2.5918 -0.0717 -1.1608
10268SOL    HW231586   7.518   4.796   3.537  0.5380 -1.6745  2.5529
10269SOL     OW31587   2.980   2.415   5.760 -0.0396 -0.0904 -0.0826
10269SOL    HW131588   3.021   2.494   5.795  0.2842 -0.6864  0.9325
10269SOL    HW231589   2.929   2.445   5.684  2.8396  0.6077 -1.9144
10270SOL     OW31590   0.495   7.191   6.874 -0.3543 -0.4356  0.0644
10270SOL    HW131591   0.476   7.097   6.884 -1.2217 -0.0978  2.0869
10270SOL    HW231592   0.480   7.208   6.781 -0.7612 -2.1836 -0.2337
10271SOL     OW31593   8.314   5.005   7.715  0.0766 -0.5734  0.6815
10271SOL    HW131594   8.326   4.938   7.648  1.4043  1.2773 -1.0203
10271SOL    HW231595   8.297   4.955   7.795  0.9781 -2.9373 -0.4970
10272SOL     OW31596   2.045   0.836   6.248 -0.2004  0.8303 -0.1392
10272SOL    HW131597   2.107   0.816   6.178  2.1695  0.7226  1.8731
10272SOL    HW231598   1.970   0.874   6.203  1.3869  1.1683 -2.6925
10273SOL     OW31599   1.178   4.356   0.949 -0.5667  0.5272  0.4973
10273SOL    HW131600   1.205   4.397   1.032  2.1694  0.1759 -0.1099
10273SOL    HW231601   1.112   4.416   0.913 -3.8768 -0.6133  4.0305
10274SOL     OW31602   5.999   4.881   5.977  0.4628 -0.3578  0.3381
10274SOL    HW131603   6.028   4.814   5.915  1.2233  0.6570 -0.4420
10274SOL    HW231604   6.021   4.964   5.935  1.6331  0.3723  2.2498
10275SOL     OW31605   1.705   2.471   1.137  0.4688  0.5095  0.1217
10275SOL    HW131606   1.638   2.486   1.204  0.1775  0.5504 -0.1694
10275SOL    HW231607   1.692   2.543   1.075  1.0763  0.7688  0.2869
10276SOL     OW31608   0.667   7.652   5.228 -0.4151  0.2444 -0.1202
10276SOL    HW131609   0.657   7.599   5.307 -1.1722  0.9428  0.2822
10276SOL    HW231610   0.740   7.711   5.247  0.1764 -0.3899 -0.4167
10277SOL     OW31611   1.554   7.693   1.650 -0.3303  0.4233  0.1612
10277SOL    HW131612   1.551   7.600   1.627  0.5826  0.3289  0.3849
10277SOL    HW231613   1.514   7.698   1.736 -1.7036  0.4564 -0.4563
10278SOL     OW31614   2.125   5.910   2.710 -0.3621 -0.1962  0.2251
10278SOL    HW131615   2.161   5.894   2.622  0.6321 -0.0815  0.6009
10278SOL    HW231616   2.030   5.907   2.697 -0.2484 -1.8054 -0.5708
10279SOL     OW31617   3.116   1.791   2.707  0.3657 -0.0433 -0.3552
10279SOL    HW131618   3.193   1.734   2.702  0.5467  0.0298  1.0484
10279SOL    HW231619   3.042   1.731   2.710  0.5555 -0.2451  1.1106
10280SOL     OW31620   6.261   1.643   1.664  0.2438 -0.7645 -0.2519
10280SOL    HW131621   6.271   1.604   1.577  0.7412 -0.1615 -0.4743
10280SOL    HW231622   6.170   1.627   1.687  0.4422 -2.1001 -0.3051
10281SOL     OW31623   2.594   6.301   0.003  0.4752  0.0509 -0.1916
10281SOL    HW131624   2.658   6.371  -0.012 -0.9216  1.3114 -0.4815
10281SOL    HW231625   2.534   6.309  -0.071  0.7802 -2.0641 -0.7158
10282SOL     OW31626   0.239   3.538   5.715 -0.4950 -0.4301  0.1902
10282SOL    HW131627   0.167   3.484   5.683 -0.7868 -0.8224  1.4688
10282SOL    HW231628   0.206   3.628   5.710 -1.0380 -0.5982  0.6518
10283SOL     OW31629   5.755   1.178   5.774 -0.1822 -0.1562  0.4627
10283SOL    HW131630   5.731   1.225   5.853  2.8649  2.0473  0.2831
10283SOL    HW231631   5.851   1.173   5.778  0.1044  0.0442 -3.0106
10284SOL     OW31632   4.374   1.546   0.320  0.0149 -0.5563  0.1607
10284SOL    HW131633   4.281   1.521   0.321 -0.2611  0.4455  0.9105
10284SOL    HW231634   4.421   1.463   0.310 -0.9909 -0.8962 -3.2633
10285SOL     OW31635   7.721   3.861   0.019 -0.7068  0.5067 -0.1755
10285SOL    HW131636   7.675   3.785   0.055  0.5288  0.4335  1.3397
10285SOL    HW231637   7.766   3.900   0.094  0.7924  1.2235 -1.4013
10286SOL     OW31638   0.895   5.330   7.960  0.4859  0.1226  0.1272
10286SOL    HW131639   0.939   5.379   7.890 -0.5133 -0.0616 -0.6409
10286SOL    HW231640   0.960   5.266   7.989 -0.2001 -2.3706 -3.2031
10287SOL     OW31641   3.119   0.090   3.702 -0.3981  0.2239  0.0623
10287SOL    HW131642   3.080   0.120   3.784 -1.9633  0.4840 -0.7252
10287SOL    HW231643   3.081   0.149   3.635 -0.7579 -1.2495 -1.0867
10288SOL     OW31644   7.200   1.422   3.187 -0.6490  0.7840 -0.1667
10288SOL    HW131645   7.271   1.376   3.231 -1.6089 -1.6518 -0.9812
10288SOL    HW231646   7.234   1.440   3.099 -0.1790  1.9404  0.2346
10289SOL     OW31647   6.293   3.236   5.499  0.2509  0.2009 -0.0151
10289SOL    HW131648   6.367   3.258   5.442  0.3779  0.3505  0.2030
10289SOL    HW231649   6.250   3.163   5.456  1.4044 -0.8823  0.5936
10290SOL     OW31650   6.424   3.548   7.260 -0.0464  0.3642 -0.4496
10290SOL    HW131651   6.420   3.454   7.278  0.0437  0.1357 -1.5373
10290SOL    HW231652   6.356   3.564   7.195  0.6892  0.8239 -1.1407
10291SOL     OW31653   0.367   5.013   0.360 -0.1316 -0.3630  0.2827
10291SOL    HW131654   0.422   5.066   0.303  0.5721 -1.5100 -0.1278
10291SOL    HW231655   0.277   5.040   0.339  0.1758  0.1141 -0.4550
10292SOL     OW31656   7.071   3.309   7.234 -0.2875  0.5276 -0.4929
10292SOL    HW131657   7.057   3.221   7.270 -0.2112  1.0254  0.8113
10292SOL    HW231658   6.994   3.358   7.262  0.5594  1.3663  0.4320
10293SOL     OW31659   1.542   7.203   3.343  0.0570 -0.0483 -0.2929
10293SOL    HW131660   1.516   7.186   3.433 -3.9644 -0.5781 -1.3473
10293SOL    HW231661   1.532   7.298   3.333  1.4164  0.1425  0.0127
10294SOL     OW31662   7.146   4.650   5.289  0.0691  0.0154 -0.5646
10294SOL    HW131663   7.166   4.565   5.328 -0.9553 -0.1086 -0.2844
10294SOL    HW231664   7.076   4.632   5.226  0.1390  0.5861 -0.8118
10295SOL     OW31665   2.593   5.332   2.986  0.0610  0.5606 -0.8236
10295SOL    HW131666   2.604   5.252   2.935  0.2534  1.4658 -2.2815
10295SOL    HW231667   2.545   5.391   2.927 -2.2163  0.7575  1.0548
10296SOL     OW31668   4.872   0.633   0.413 -0.3539  0.2814  0.4096
10296SOL    HW131669   4.951   0.688   0.413  0.2546 -0.5620  0.9503
10296SOL    HW231670   4.886   0.571   0.342 -0.1742 -0.3529  0.9894
10297SOL     OW31671   0.634   2.336   2.649 -0.4768  0.2533 -0.3106
10297SOL    HW131672   0.576   2.385   2.707 -1.3573  1.5092 -2.1698
10297SOL    HW231673   0.627   2.245   2.680 -1.5897  0.7366  0.9631
10298SOL     OW31674   7.311   7.620   6.827  0.5171 -0.4395 -0.0270
10298SOL    HW131675   7.264   7.697   6.796 -1.2232 -0.1810  2.8650
10298SOL    HW231676   7.401   7.650   6.839  0.5538  0.2491 -1.7272
10299SOL     OW31677   0.079   6.130   2.509 -0.2579 -0.2735 -0.2463
10299SOL    HW131678  -0.013   6.112   2.528 -0.3714 -1.0072 -1.3557
10299SOL    HW231679   0.120   6.043   2.507 -0.0570 -0.1743 -2.1428
10300SOL     OW31680   0.041   5.716   3.605  0.1132  0.1760 -0.3378
10300SOL    HW131681  -0.007   5.634   3.606  0.7827 -0.2177  0.1477
10300SOL    HW231682   0.035   5.749   3.695 -1.1457  1.2562 -0.7913
10301SOL     OW31683   3.705   2.132   6.613 -0.0739 -0.3291 -0.1524
10301SOL    HW131684   3.738   2.220   6.630 -1.1652  0.1695 -0.5633
10301SOL    HW231685   3.706   2.090   6.699  1.8279 -0.4388 -0.1694
10302SOL     OW31686   2.544   7.745   1.334  0.3538 -0.3338  0.2906
10302SOL    HW131687   2.559   7.827   1.287 -1.5857  0.0874  0.3355
10302SOL    HW231688   2.449   7.735   1.336  0.5361 -2.6426  0.2110
10303SOL     OW31689   3.941   8.250   0.982  0.0198 -0.5269  0.5978
10303SOL    HW131690   3.958   8.179   0.920  3.2128  0.1387  0.5391
10303SOL    HW231691   3.846   8.251   0.992 -0.3709 -2.6767 -1.8710
10304SOL     OW31692   2.331   1.111   1.893 -0.0986  0.5762  0.5103
10304SOL    HW131693   2.368   1.079   1.975 -0.9597  0.5390  0.8980
10304SOL    HW231694   2.384   1.187   1.870  1.5433 -0.6827 -0.0592
10305SOL     OW31695   2.402   3.182   3.535 -0.0311 -0.3715  0.4820
10305SOL    HW131696   2.420   3.200   3.442 -1.9909 -0.8852 -0.0357
10305SOL    HW231697   2.332   3.243   3.558  1.1597  0.5142  1.9819
10306SOL     OW31698   0.837   8.103   3.557 -0.2921 -0.5860 -0.1366
10306SOL    HW131699   0.742   8.106   3.551 -0.3180 -1.2347 -0.1672
10306SOL    HW231700   0.855   8.106   3.651 -0.3530 -0.6151 -0.1240
10307SOL     OW31701   1.002   0.039   1.557 -0.3644  0.2671  0.2183
10307SOL    HW131702   1.057   0.117   1.555  1.1418 -0.7534 -0.1968
10307SOL    HW231703   0.937   0.053   1.489 -1.0962  1.8038  1.1725
10308SOL     OW31704   0.334   1.338   7.643  0.3269  0.3224  0.0193
10308SOL    HW131705   0.305   1.270   7.581  0.6506 -0.5760  0.8241
10308SOL    HW231706   0.408   1.380   7.599  0.1076  0.1845 -0.5005
10309SOL     OW31707   2.359   7.860   7.145 -0.4020  0.0066 -0.1656
10309SOL    HW131708   2.426   7.898   7.202  0.7576 -0.7410 -0.9795
10309SOL    HW231709   2.397   7.777   7.116 -1.3673 -0.0712 -1.2685
10310SOL     OW31710   6.408   7.310   6.228  0.5188  0.2472 -0.7335
10310SOL    HW131711   6.354   7.346   6.157  1.5767 -0.1842 -1.7914
10310SOL    HW231712   6.496   7.344   6.210  1.0469 -0.8671 -0.3268
10311SOL     OW31713   0.945   8.055   3.317 -0.5109 -0.2610  0.6702
10311SOL    HW131714   1.039   8.067   3.331 -0.9289  2.2191  1.9383
10311SOL    HW231715   0.905   8.075   3.401 -2.2644  0.4702 -0.2770
10312SOL     OW31716   6.245   2.508   5.600 -0.2947  0.3319  0.5600
10312SOL    HW131717   6.277   2.495   5.689 -2.3365 -2.4181  1.0104
10312SOL    HW231718   6.322   2.539   5.551  1.6596 -0.9218  2.6441
10313SOL     OW31719   2.305   3.057   2.740  0.1880  0.1576  0.3037
10313SOL    HW131720   2.238   3.040   2.674 -0.5119  0.7281  0.8393
10313SOL    HW231721   2.361   2.980   2.739 -0.8789 -0.6341  0.3172
10314SOL     OW31722   4.285   5.061   2.431  0.2083  1.2077  0.7204
10314SOL    HW131723   4.358   5.028   2.379 -0.8741 -1.0089  0.4807
10314SOL    HW231724   4.212   5.067   2.370 -0.1405  2.1395  1.2168
10315SOL     OW31725   3.172   0.289   2.885 -0.1098  0.4313  0.6574
10315SOL    HW131726   3.256   0.313   2.846 -0.3658  0.8462  0.3543
10315SOL    HW231727   3.107   0.312   2.818 -0.4390 -0.2226  0.7437
10316SOL     OW31728   6.935   8.069   5.106  0.8043  0.0475 -0.5055
10316SOL    HW131729   7.023   8.093   5.078  1.7560 -1.9576  0.5446
10316SOL    HW231730   6.941   8.063   5.201 -0.0166 -1.5979 -0.5143
10317SOL     OW31731   5.682   4.431   5.067  0.5898 -0.0524  1.0105
10317SOL    HW131732   5.629   4.479   5.129  0.4693  0.2427  0.6837
10317SOL    HW231733   5.619   4.383   5.013  0.6660  0.1037  0.7814
10318SOL     OW31734   5.822   3.935   6.512  0.3807  0.3166  0.4786
10318SOL    HW131735   5.745   3.979   6.476  1.3897  1.3020 -0.5613
10318SOL    HW231736   5.807   3.932   6.606 -0.7211  0.8774  0.3307
10319SOL     OW31737   0.705   4.565   5.601 -0.4453  0.2494  0.5147
10319SOL    HW131738   0.617   4.580   5.637  0.1270  1.2249  1.5710
10319SOL    HW231739   0.746   4.652   5.601 -0.0285  0.1002 -1.5252
10320SOL     OW31740   6.792   6.079   7.101 -0.0647 -0.0755  0.0520
10320SOL    HW131741   6.750   6.019   7.162 -0.5936  1.4611  1.2622
10320SOL    HW231742   6.881   6.088   7.134 -0.2427  0.4720  0.3879
10321SOL     OW31743   2.614   0.392   0.759  0.0211 -0.2797  0.1435
10321SOL    HW131744   2.549   0.461   0.745 -0.9437 -1.3155 -0.7105
10321SOL    HW231745   2.697   0.439   0.769 -0.7649  1.0486  0.7367
10322SOL     OW31746   6.063   3.077   0.931 -0.6289 -0.0012 -0.1965
10322SOL    HW131747   5.985   3.023   0.918 -0.5878 -0.0557 -0.2162
10322SOL    HW231748   6.038   3.141   0.997 -0.4077 -0.5774  0.4578
10323SOL     OW31749   1.315   6.921   0.718 -0.2267  0.3581 -0.1279
10323SOL    HW131750   1.376   6.953   0.651  1.0213  4.2978  2.5059
10323SOL    HW231751   1.229   6.948   0.686  0.0951  0.3036 -1.0815
10324SOL     OW31752   2.456   1.511   1.061 -0.2058 -0.2609  0.3206
10324SOL    HW131753   2.462   1.604   1.039 -0.7638 -0.3446 -0.1934
10324SOL    HW231754   2.395   1.474   0.998 -4.8638  0.1663  3.9858
10325SOL     OW31755   6.463   2.820   7.897  0.4721  0.1207 -0.3384
10325SOL    HW131756   6.550   2.859   7.895  1.8456 -2.6180  0.0443
10325SOL    HW231757   6.461   2.761   7.822 -0.2179 -1.3905  0.8069
10326SOL     OW31758   0.846   1.770   2.074  0.5736 -0.0833  0.4302
10326SOL    HW131759   0.880   1.759   2.163 -1.0796  1.8855  1.3950
10326SOL    HW231760   0.752   1.757   2.083  0.5414 -1.3733 -1.3746
10327SOL     OW31761   4.452   7.322   2.414  0.1651 -0.5522 -0.4552
10327SOL    HW131762   4.377   7.323   2.355  0.4410 -0.1913 -0.8046
10327SOL    HW231763   4.483   7.232   2.410 -0.0921 -0.6408 -0.5091
10328SOL     OW31764   0.378   3.388   5.348 -0.3986  0.4089 -0.0852
10328SOL    HW131765   0.415   3.415   5.432  0.2768 -1.6231  0.3440
10328SOL    HW231766   0.287   3.364   5.368 -0.2859  0.0829  0.0485
10329SOL     OW31767   4.523   2.199   0.570 -0.3289 -0.2324 -0.0749
10329SOL    HW131768   4.451   2.234   0.518  0.5801  1.8314 -0.0341
10329SOL    HW231769   4.535   2.264   0.640 -1.7090 -3.0113  3.0014
10330SOL     OW31770   3.065   5.976   8.049 -0.0042 -0.3443  0.1320
10330SOL    HW131771   3.096   5.886   8.061 -0.2763 -0.3344  1.0000
10330SOL    HW231772   2.982   5.967   8.003 -0.0704 -0.5462  0.2870
10331SOL     OW31773   7.928   2.552   8.144 -0.9460 -0.3490 -0.0987
10331SOL    HW131774   7.993   2.623   8.142 -0.1463 -1.0668 -0.1174
10331SOL    HW231775   7.980   2.472   8.150 -1.8232 -0.9744 -0.6657
10332SOL     OW31776   2.610   0.694   4.384 -0.0914 -0.0333 -0.2613
10332SOL    HW131777   2.581   0.764   4.327  0.1527  0.3903  0.1298
10332SOL    HW231778   2.703   0.683   4.363 -0.1435 -0.2827 -0.3659
10333SOL     OW31779   5.040   4.387   2.643 -0.4223 -0.6450  0.3817
10333SOL    HW131780   5.083   4.303   2.660  1.5879  0.6842  2.4432
10333SOL    HW231781   5.048   4.399   2.548  2.5524 -1.1910  0.4510
10334SOL     OW31782   1.247   7.120   1.862 -0.2905  0.1620 -0.3505
10334SOL    HW131783   1.202   7.158   1.786 -2.0596 -0.4445  0.3451
10334SOL    HW231784   1.184   7.127   1.933 -0.4991 -3.3872  0.0008
10335SOL     OW31785   1.084   1.231   4.128  0.2019 -0.5096 -0.5953
10335SOL    HW131786   1.058   1.238   4.220 -0.2010 -0.1710 -0.7286
10335SOL    HW231787   1.024   1.166   4.091 -1.0032  0.8188 -1.0808
10336SOL     OW31788   7.019   6.977   5.171  0.0636  0.2427  0.0700
10336SOL    HW131789   6.985   6.984   5.260  1.1151  1.6371  0.4157
10336SOL    HW231790   7.067   6.894   5.170  0.1427  0.2687  0.8482
10337SOL     OW31791   2.668   5.049   1.326  0.4449  0.3940  0.1325
10337SOL    HW131792   2.699   4.977   1.271  1.7754  1.5924 -0.7495
10337SOL    HW231793   2.617   5.006   1.394 -2.1687 -1.1175 -2.5247
10338SOL     OW31794   3.355   8.027   4.393 -0.0949  0.4454  0.1905
10338SOL    HW131795   3.415   7.963   4.430  0.3372  0.3860 -0.5837
10338SOL    HW231796   3.383   8.111   4.431  0.1200  0.3400  0.2658
10339SOL     OW31797   0.440   6.766   2.875  0.2910 -0.2453 -0.0967
10339SOL    HW131798   0.386   6.827   2.824  0.0519 -1.4100 -1.2946
10339SOL    HW231799   0.527   6.773   2.837  0.1221 -1.0871 -0.6715
10340SOL     OW31800   4.749   4.548   7.013 -0.0497  0.2381 -0.2353
10340SOL    HW131801   4.817   4.487   6.984 -0.8116  0.0452 -1.7320
10340SOL    HW231802   4.684   4.546   6.943 -0.4948  2.1695  0.0694
10341SOL     OW31803   8.063   6.775   3.360 -0.8479 -0.6337  0.3089
10341SOL    HW131804   7.981   6.791   3.408 -0.9904 -1.4248  0.3413
10341SOL    HW231805   8.078   6.856   3.311 -0.4830  0.3671  1.9825
10342SOL     OW31806   0.496   0.301   7.984 -0.0025 -0.6443 -0.4599
10342SOL    HW131807   0.514   0.306   8.078 -1.6791  0.5355 -0.1594
10342SOL    HW231808   0.548   0.371   7.946  0.4439 -0.9307 -0.3972
10343SOL     OW31809   3.071   0.183   7.222 -0.1798 -0.1790 -0.3891
10343SOL    HW131810   2.976   0.182   7.233 -0.2150 -0.2783 -0.6780
10343SOL    HW231811   3.096   0.274   7.237 -0.1356 -0.4201  1.1257
10344SOL     OW31812   3.421   3.291   5.656 -0.1104 -0.1713 -0.2838
10344SOL    HW131813   3.419   3.202   5.620 -1.8257 -0.5735  0.6983
10344SOL    HW231814   3.330   3.320   5.653  0.2768  1.1797  0.3410
10345SOL     OW31815   3.964   4.005   7.217  0.2024 -0.4902  0.1686
10345SOL    HW131816   4.004   4.068   7.277 -0.1878 -0.0027 -0.0832
10345SOL    HW231817   3.881   4.045   7.191  0.3220 -0.7342 -0.6191
10346SOL     OW31818   7.600   0.536   5.475 -0.0006  0.0432  0.5803
10346SOL    HW131819   7.626   0.487   5.553 -0.7972 -0.5293  0.5014
10346SOL    HW231820   7.512   0.504   5.456  0.3854 -0.2297 -0.8769
10347SOL     OW31821   5.066   6.851   1.697 -0.4148  0.3247 -0.0061
10347SOL    HW131822   5.039   6.803   1.619  0.2622 -1.0951  0.5986
10347SOL    HW231823   5.150   6.891   1.674 -1.7434  2.7494 -1.0804
10348SOL     OW31824   5.384   5.397   4.214  0.4620  0.2343 -0.0171
10348SOL    HW131825   5.418   5.322   4.165 -1.9189 -0.2672 -1.0363
10348SOL    HW231826   5.366   5.362   4.301  0.3706 -0.0903 -0.1648
10349SOL     OW31827   8.284   4.156   0.182 -0.4197  0.0900  0.3381
10349SOL    HW131828   8.367   4.154   0.133 -1.2888 -2.3454 -1.2288
10349SOL    HW231829   8.217   4.136   0.116 -2.1819  1.0297  1.7574
10350SOL     OW31830   4.437   2.457   6.684  0.2989  0.3746 -0.0066
10350SOL    HW131831   4.343   2.448   6.697  0.4624  0.4475  1.4303
10350SOL    HW231832   4.449   2.545   6.648 -0.0674  1.0640  1.4912
10351SOL     OW31833   2.334   2.137   6.913  0.0914 -0.2600  0.3102
10351SOL    HW131834   2.300   2.154   6.825  1.6867 -0.5887 -0.3954
10351SOL    HW231835   2.265   2.168   6.971  0.1291  2.5778 -1.0013
10352SOL     OW31836   6.896   7.266   3.478  0.0686  0.0172  0.0064
10352SOL    HW131837   6.907   7.259   3.383  1.6429  1.3190  0.0440
10352SOL    HW231838   6.930   7.353   3.499 -0.7639 -0.0427  1.7058
10353SOL     OW31839   4.518   5.803   4.275 -0.0880  0.5034  0.2125
10353SOL    HW131840   4.560   5.826   4.358  3.2561 -1.0384 -0.8920
10353SOL    HW231841   4.429   5.777   4.301  0.4239  1.2324  3.1235
10354SOL     OW31842   1.344   3.536   1.405  0.2296  0.3443  0.7009
10354SOL    HW131843   1.336   3.586   1.324 -1.3490  1.0081  1.2236
10354SOL    HW231844   1.387   3.455   1.379  0.6151  0.9491 -0.6212
10355SOL     OW31845   1.530   7.628   7.776  0.2940 -0.4044 -0.2217
10355SOL    HW131846   1.564   7.544   7.806 -1.8864 -0.5746  2.1175
10355SOL    HW231847   1.455   7.645   7.833  1.2238  3.6145  0.0519
10356SOL     OW31848   6.303   4.134   0.272  0.4217 -0.2031  0.5812
10356SOL    HW131849   6.215   4.099   0.262  0.6477 -0.6655  0.1545
10356SOL    HW231850   6.292   4.212   0.327 -0.0456 -1.1827  1.9367
10357SOL     OW31851   0.534   1.890   0.218  0.3919  0.4023 -0.3841
10357SOL    HW131852   0.528   1.916   0.126  0.6933 -0.4861 -0.6729
10357SOL    HW231853   0.608   1.829   0.220 -0.3714 -0.5309  0.2099
10358SOL     OW31854   2.833   3.821   5.923 -0.4688  0.3393 -0.3061
10358SOL    HW131855   2.919   3.810   5.882 -0.0756  1.2808  0.2187
10358SOL    HW231856   2.771   3.822   5.850 -0.1529 -1.3543 -0.6205
10359SOL     OW31857   5.040   5.951   0.900 -0.4956  0.3101  1.0466
10359SOL    HW131858   5.115   6.010   0.888 -1.0382  1.6025  3.3902
10359SOL    HW231859   5.078   5.864   0.907  0.5473  0.6423 -0.0285
10360SOL     OW31860   0.918   5.810   0.142 -0.1656 -0.4549  0.4279
10360SOL    HW131861   0.866   5.831   0.220 -0.1769  0.6080  0.1409
10360SOL    HW231862   1.003   5.784   0.177  0.3226  1.4620  0.7641
10361SOL     OW31863   1.324   6.966   5.176 -0.2139 -0.7835  0.1683
10361SOL    HW131864   1.232   6.970   5.154  0.0211  1.4906 -0.6703
10361SOL    HW231865   1.367   6.931   5.098 -0.1768  0.2775 -0.3151
10362SOL     OW31866   0.670   6.796   2.739  0.1226  0.4792 -0.0408
10362SOL    HW131867   0.727   6.789   2.662 -2.0190  0.8357 -1.7490
10362SOL    HW231868   0.672   6.889   2.761 -1.4079  0.9286 -1.5056
10363SOL     OW31869   3.218   5.611   8.169  0.1098 -0.3896  0.0910
10363SOL    HW131870   3.295   5.567   8.134  0.7548  0.5781  0.2593
10363SOL    HW231871   3.248   5.649   8.252 -1.1738 -1.9564  1.3492
10364SOL     OW31872   7.351   1.429   5.655  0.0409 -0.4238 -0.0820
10364SOL    HW131873   7.292   1.501   5.633 -1.0752 -1.1983  0.2842
10364SOL    HW231874   7.303   1.350   5.629  0.1919 -1.1785  1.7920
10365SOL     OW31875   7.972   4.389   0.182 -0.3016  0.1054  0.0754
10365SOL    HW131876   7.911   4.359   0.250  0.3360  1.2326  1.1857
10365SOL    HW231877   7.921   4.451   0.130 -1.0873 -1.4723 -1.1366
10366SOL     OW31878   1.579   7.148   3.847  0.5228  0.1153  0.0609
10366SOL    HW131879   1.579   7.150   3.751  1.3874 -0.2274  0.0386
10366SOL    HW231880   1.512   7.085   3.870  0.3839  0.1192 -0.3207
10367SOL     OW31881   3.435   1.214   6.403  0.4750 -0.1596  0.2421
10367SOL    HW131882   3.391   1.276   6.345  0.1908  0.1998  0.8249
10367SOL    HW231883   3.519   1.196   6.361  0.3566  0.2538 -0.1729
10368SOL     OW31884   7.497   0.740   1.579  0.3828  0.1301  0.7570
10368SOL    HW131885   7.510   0.788   1.660 -0.5076 -0.7239  1.4216
10368SOL    HW231886   7.447   0.799   1.523 -1.4704 -0.2913  1.8887
10369SOL     OW31887   6.187   3.993   5.265  0.2748 -0.7777 -0.7410
10369SOL    HW131888   6.193   4.057   5.195 -0.6900 -0.3172 -0.4184
10369SOL    HW231889   6.133   4.035   5.332  1.5971 -1.0015  0.5104
10370SOL     OW31890   5.712   3.758   7.603  0.0041  0.5079  0.1300
10370SOL    HW131891   5.621   3.740   7.627  0.0027  0.2476 -0.0622
10370SOL    HW231892   5.757   3.674   7.614  0.2642  0.6817  0.4193
10371SOL     OW31893   6.360   3.890   6.146 -0.5454 -0.5559 -0.2593
10371SOL    HW131894   6.273   3.906   6.109 -0.9120 -0.8463  0.4529
10371SOL    HW231895   6.393   3.815   6.096 -0.0991  0.4237 -1.4927
10372SOL     OW31896   2.117   4.478   4.257 -0.2130 -0.1042 -0.1679
10372SOL    HW131897   2.157   4.550   4.208  0.8835  1.0779  2.3424
10372SOL    HW231898   2.024   4.500   4.260 -0.0313  0.6855 -0.2707
10373SOL     OW31899   5.775   6.946   5.895  0.0163 -0.0065 -0.4138
10373SOL    HW131900   5.853   6.891   5.905  0.2920  0.5193  0.4727
10373SOL    HW231901   5.726   6.906   5.823  1.3025 -0.1231 -1.2711
10374SOL     OW31902   3.119   6.188   7.460  0.6097 -0.0949 -0.2315
10374SOL    HW131903   3.024   6.195   7.450  0.3167 -4.1139 -2.9804
10374SOL    HW231904   3.152   6.196   7.370  3.1497  2.4943  0.7943
10375SOL     OW31905   0.561   1.923   6.793 -0.0768  0.4872  0.2414
10375SOL    HW131906   0.475   1.935   6.832 -0.1491 -0.7728  0.5339
10375SOL    HW231907   0.585   2.009   6.758 -0.7775  1.2227  1.5123
10376SOL     OW31908   0.501   6.411   1.310 -0.5420 -0.0843 -0.5568
10376SOL    HW131909   0.588   6.375   1.325 -0.5611  0.4881  1.1993
10376SOL    HW231910   0.446   6.335   1.291  0.0832 -0.6105 -0.2788
10377SOL     OW31911   5.802   1.591   6.804 -0.2172 -0.1458 -0.0516
10377SOL    HW131912   5.856   1.648   6.859  1.4497  0.3158 -2.0368
10377SOL    HW231913   5.749   1.651   6.752 -1.6578 -0.5717  0.8680
10378SOL     OW31914   6.632   0.657   6.004 -0.0400  0.2604  0.3998
10378SOL    HW131915   6.701   0.722   5.991  0.5942  0.1416  2.7950
10378SOL    HW231916   6.678   0.575   6.018 -0.6735  0.0520  1.3778
10379SOL     OW31917   6.104   3.538   6.843  0.4581 -0.2725  0.4456
10379SOL    HW131918   6.088   3.444   6.833 -0.4570 -0.1556  0.7992
10379SOL    HW231919   6.025   3.580   6.810  0.8544  0.3843  0.3079
10380SOL     OW31920   2.836   7.435   7.206  0.0092 -0.3825  0.8150
10380SOL    HW131921   2.775   7.398   7.142 -0.8041 -0.6909  1.7431
10380SOL    HW231922   2.923   7.413   7.172 -0.4204 -0.9489  0.0548
10381SOL     OW31923   1.419   7.684   4.427  0.0982 -0.0220  0.3938
10381SOL    HW131924   1.356   7.682   4.355 -0.1569 -0.2707  0.6197
10381SOL    HW231925   1.411   7.598   4.468 -0.8882  0.6433  1.6756
10382SOL     OW31926   0.466   4.032   3.849 -0.2416 -0.5961 -0.3037
10382SOL    HW131927   0.513   4.100   3.800 -0.0363  0.0835  0.8020
10382SOL    HW231928   0.496   3.950   3.810 -1.2714 -0.0660 -2.3701
10383SOL     OW31929   1.768   5.564   4.077 -0.5763  0.0047  0.6815
10383SOL    HW131930   1.684   5.584   4.037  0.6044  1.1433 -1.4092
10383SOL    HW231931   1.755   5.579   4.170 -2.0965  2.3203  0.1677
10384SOL     OW31932   2.990   4.974   6.054  0.4084  0.5444 -0.0178
10384SOL    HW131933   2.934   5.033   6.105  0.4475  1.0049 -0.5037
10384SOL    HW231934   2.969   4.994   5.963 -0.3110 -0.8978 -0.1928
10385SOL     OW31935   5.679   7.727   6.727  0.3498  0.4172  0.2731
10385SOL    HW131936   5.620   7.664   6.686  0.4033  0.8949 -0.5484
10385SOL    HW231937   5.757   7.727   6.671  0.9434  0.1599  1.0682
10386SOL     OW31938   2.098   4.569   2.987 -0.6523 -0.4161  0.3441
10386SOL    HW131939   2.017   4.556   2.937 -0.4752  1.3035 -0.4351
10386SOL    HW231940   2.092   4.658   3.020  0.4598 -0.6277  1.1648
10387SOL     OW31941   0.115   4.428   2.287  0.2324 -0.0434  0.4377
10387SOL    HW131942   0.199   4.410   2.245 -0.3573 -0.1586 -0.7387
10387SOL    HW231943   0.129   4.508   2.337 -0.2163  2.9880 -3.7793
10388SOL     OW31944   4.122   1.470   4.184 -0.0504 -0.0909  0.2327
10388SOL    HW131945   4.044   1.457   4.131  1.0990  0.2445 -1.6158
10388SOL    HW231946   4.189   1.498   4.122  1.7184 -0.9664  1.6525
10389SOL     OW31947   2.569   4.458   5.275 -0.1800 -0.5183 -0.1141
10389SOL    HW131948   2.624   4.380   5.261  0.7967 -0.1418  1.4083
10389SOL    HW231949   2.632   4.529   5.286 -1.0706  0.7042 -2.4010
10390SOL     OW31950   5.167   0.727   6.384 -0.1754 -0.2564 -0.1410
10390SOL    HW131951   5.107   0.653   6.374 -0.9727  0.2336  0.7612
10390SOL    HW231952   5.121   0.800   6.344  0.2812 -0.0974 -0.3740
10391SOL     OW31953   5.054   1.400   3.902  0.5572 -0.2676  0.5668
10391SOL    HW131954   5.066   1.448   3.820  0.7894  0.0542  0.7885
10391SOL    HW231955   5.094   1.455   3.969  0.0165 -0.3374  0.9599
10392SOL     OW31956   4.292   2.998   8.150 -0.0693  0.4532 -0.2271
10392SOL    HW131957   4.350   3.012   8.075 -0.5839  2.1432 -0.3464
10392SOL    HW231958   4.340   3.034   8.224 -0.0420 -0.1899  0.0754
10393SOL     OW31959   7.043   5.991   0.512  0.7661 -0.4084 -0.1107
10393SOL    HW131960   7.128   5.973   0.471  0.8590  0.0740 -0.1376
10393SOL    HW231961   7.047   6.084   0.535  0.1985 -0.3553 -0.2188
10394SOL     OW31962   2.211   5.953   5.252 -0.1723  0.0403 -0.2592
10394SOL    HW131963   2.130   6.005   5.254  1.6317  3.1627 -0.8104
10394SOL    HW231964   2.280   6.018   5.236  2.2500 -2.7239 -2.0312
10395SOL     OW31965   1.106   2.368   7.250  0.2176 -0.0508  0.0668
10395SOL    HW131966   1.110   2.391   7.343  2.0555  2.1528 -0.4700
10395SOL    HW231967   1.190   2.325   7.233 -0.7201 -1.8411 -0.3106
10396SOL     OW31968   7.522   1.350   3.773 -0.0725 -0.5412 -0.5368
10396SOL    HW131969   7.554   1.388   3.691 -0.4393  0.9706 -0.0259
10396SOL    HW231970   7.427   1.353   3.765 -0.1479  0.7079  0.3573
10397SOL     OW31971   4.040   6.666   2.136  0.3059  0.2446 -0.6018
10397SOL    HW131972   4.103   6.662   2.208 -1.0825 -1.0972  0.6007
10397SOL    HW231973   4.054   6.752   2.097  1.2368  0.9440  1.1652
10398SOL     OW31974   2.322   5.997   4.018 -0.4394 -0.5684 -0.6699
10398SOL    HW131975   2.288   6.085   4.033  1.1485  0.0478 -0.5564
10398SOL    HW231976   2.277   5.969   3.938 -1.4611  0.0593 -0.3457
10399SOL     OW31977   1.833   6.039   4.109  0.1098 -0.1655  0.2921
10399SOL    HW131978   1.897   6.043   4.181 -0.1178 -0.7153  0.5302
10399SOL    HW231979   1.880   6.075   4.034  0.4488  0.1429  0.6472
10400SOL     OW31980   5.536   1.107   3.586 -0.4907  0.2886 -0.0353
10400SOL    HW131981   5.586   1.181   3.551 -2.0286  0.2741 -2.5056
10400SOL    HW231982   5.503   1.137   3.671  1.6495  1.1536  0.5403
10401SOL     OW31983   2.385   8.312   3.951  0.0378 -0.4273  0.0362
10401SOL    HW131984   2.472   8.299   3.913  0.1865 -1.7355  0.7719
10401SOL    HW231985   2.325   8.268   3.892 -0.4843  2.3727 -1.7171
10402SOL     OW31986   3.767   1.797   6.091  0.0188  0.5447 -0.0598
10402SOL    HW131987   3.831   1.821   6.157 -1.0453  0.0059  1.2119
10402SOL    HW231988   3.815   1.740   6.031  0.1934 -1.8697  2.2106
10403SOL     OW31989   0.835   0.608   7.962  0.0695 -0.3974  0.1262
10403SOL    HW131990   0.761   0.572   7.914 -0.5395 -0.5858  1.1699
10403SOL    HW231991   0.879   0.532   8.000  0.4011 -0.2354  0.0751
10404SOL     OW31992   1.924   0.658   7.481  0.0154  0.7143 -0.6034
10404SOL    HW131993   1.845   0.604   7.478 -0.3927  1.2196  0.6229
10404SOL    HW231994   1.996   0.595   7.482 -0.4535  0.1728  0.8015
10405SOL     OW31995   0.338   2.411   0.987  0.3296 -0.6332  0.2360
10405SOL    HW131996   0.264   2.416   1.047  0.5251  3.0855  0.3579
10405SOL    HW231997   0.414   2.436   1.040  1.2468 -1.5718 -0.5739
10406SOL     OW31998   4.140   2.437   3.577  0.2157 -0.1318  0.1596
10406SOL    HW131999   4.129   2.371   3.509  1.2969  0.7856 -0.9607
10406SOL    HW232000   4.169   2.388   3.654 -0.8614 -1.1736 -0.0811
10407SOL     OW32001   3.788   3.025   7.688 -0.4802  0.2767 -0.1325
10407SOL    HW132002   3.877   3.056   7.700  0.0434 -1.4773  0.9236
10407SOL    HW232003   3.733   3.101   7.706  0.7311  0.7988  1.6233
10408SOL     OW32004   0.355   0.342   0.875 -0.2674 -0.1043 -0.4433
10408SOL    HW132005   0.354   0.292   0.793  0.3158 -0.8230 -0.0200
10408SOL    HW232006   0.322   0.428   0.850 -0.6723 -0.4992 -1.3139
10409SOL     OW32007   2.304   3.976   1.534  0.3476 -0.0939  0.1277
10409SOL    HW132008   2.262   3.920   1.469 -0.0185 -0.6620  0.8497
10409SOL    HW232009   2.353   4.039   1.482  2.6719 -2.4483 -0.7731
10410SOL     OW32010   3.364   5.089   1.239 -0.1369 -0.2653 -0.2475
10410SOL    HW132011   3.367   5.117   1.330 -1.1697 -0.5968 -0.1022
10410SOL    HW232012   3.455   5.093   1.210  0.0137  1.3740  0.3263
10411SOL     OW32013   0.726   5.368   0.082  0.1807  0.1079 -0.2039
10411SOL    HW132014   0.650   5.404   0.036 -0.1412 -0.0592  0.1899
10411SOL    HW232015   0.800   5.416   0.046 -0.1405  0.4671 -0.4028
10412SOL     OW32016   8.311   5.261   8.294  0.2401  0.4040 -0.9363
10412SOL    HW132017   8.380   5.309   8.341  0.1636  1.8263 -2.2117
10412SOL    HW232018   8.351   5.177   8.272  1.0082  0.5735 -0.2364
10413SOL     OW32019   4.532   5.159   8.036  0.5650 -0.2242  0.1800
10413SOL    HW132020   4.504   5.198   8.118  1.9602 -1.0309  1.0836
10413SOL    HW232021   4.522   5.229   7.971 -2.3363 -0.1196  0.6119
10414SOL     OW32022   2.668   0.633   6.408  0.4046  0.0699  0.1510
10414SOL    HW132023   2.704   0.590   6.485  0.3049 -0.6399 -0.1907
10414SOL    HW232024   2.630   0.562   6.356 -0.3991  0.6533 -0.0854
10415SOL     OW32025   7.245   5.965   0.348  0.3647  0.2006 -0.1184
10415SOL    HW132026   7.202   6.010   0.276  1.2147  1.2689 -0.0005
10415SOL    HW232027   7.260   5.876   0.317  0.8009  0.6728 -1.3048
10416SOL     OW32028   3.766   6.638   7.009  0.7902  0.0581  0.3941
10416SOL    HW132029   3.752   6.545   7.026  0.2555  0.2210  0.8765
10416SOL    HW232030   3.858   6.644   6.981  1.3412 -0.4066  1.9713
10417SOL     OW32031   5.164   2.592   7.228 -0.0082  0.2350  0.2743
10417SOL    HW132032   5.181   2.583   7.322  0.8256  0.0400  0.1141
10417SOL    HW232033   5.178   2.685   7.211 -0.3708  0.3104  0.3802
10418SOL     OW32034   7.101   7.904   5.937 -0.5690  0.1928 -0.2407
10418SOL    HW132035   7.052   7.889   6.017 -1.2296  0.4665 -0.5853
10418SOL    HW232036   7.159   7.828   5.930  0.0049  0.5096  0.8511
10419SOL     OW32037   1.398   7.451   4.151 -0.5090  0.0989 -0.3939
10419SOL    HW132038   1.393   7.479   4.059  1.9519  2.9248  0.1675
10419SOL    HW232039   1.350   7.518   4.199  1.5526  0.9492  0.6306
10420SOL     OW32040   7.126   5.757   8.056  0.2039 -0.7207  0.0743
10420SOL    HW132041   7.195   5.790   8.113  1.3956 -2.8983 -0.0258
10420SOL    HW232042   7.157   5.776   7.967 -0.0562 -0.3747  0.0517
10421SOL     OW32043   7.117   5.463   1.437  0.3992 -0.2007 -0.0218
10421SOL    HW132044   7.207   5.447   1.464 -0.0504 -2.0790  0.5607
10421SOL    HW232045   7.104   5.557   1.447  1.8431 -0.1097  1.3471
10422SOL     OW32046   5.938   0.602   4.092  0.3241 -0.0203 -0.6994
10422SOL    HW132047   5.958   0.514   4.059  1.1707  0.1705 -0.7354
10422SOL    HW232048   5.918   0.653   4.014  0.4439 -0.0369 -0.7421
10423SOL     OW32049   7.004   4.221   3.389  0.1094  0.3482  0.1793
10423SOL    HW132050   7.011   4.149   3.452 -0.5089  0.1100 -0.0104
10423SOL    HW232051   6.971   4.295   3.440  0.0388  0.2815  0.2306
10424SOL     OW32052   3.483   7.883   5.118  0.0825 -0.0402  0.7842
10424SOL    HW132053   3.396   7.863   5.084  1.4981  0.0698 -3.4992
10424SOL    HW232054   3.473   7.969   5.159 -1.7113  0.1763 -0.0090
10425SOL     OW32055   0.257   0.390   3.170 -0.5448 -0.0065 -0.1153
10425SOL    HW132056   0.240   0.433   3.253 -0.2715  0.4518 -0.2864
10425SOL    HW232057   0.214   0.305   3.176  0.4036 -0.4361  0.9178
10426SOL     OW32058   6.457   0.103   5.687  0.1144  0.0566  0.3825
10426SOL    HW132059   6.428   0.156   5.613  2.1901  2.1780  0.9948
10426SOL    HW232060   6.517   0.039   5.648  0.6620  0.7192  0.1184
10427SOL     OW32061   3.881   6.824   0.862  0.7130  0.4177 -0.1092
10427SOL    HW132062   3.902   6.878   0.786 -0.0776 -0.6979 -1.1777
10427SOL    HW232063   3.966   6.798   0.898  1.1249  0.3394 -1.1006
10428SOL     OW32064   5.912   0.280   1.992  0.1242  0.0448 -0.0197
10428SOL    HW132065   5.855   0.302   1.918 -1.2368 -1.2543  0.5957
10428SOL    HW232066   5.948   0.195   1.971  0.0016 -0.1811  0.6454
10429SOL     OW32067   3.448   3.050   4.899 -0.3294 -0.6524  0.3759
10429SOL    HW132068   3.456   2.959   4.868 -1.2124 -0.6338  0.0739
10429SOL    HW232069   3.355   3.070   4.890 -0.3910 -0.2114  1.8742
10430SOL     OW32070   3.857   7.595   4.123 -0.3517  0.3304  0.2414
10430SOL    HW132071   3.924   7.622   4.060  0.6550  1.7044  1.8112
10430SOL    HW232072   3.777   7.588   4.072  0.9003 -1.0570 -1.6418
10431SOL     OW32073   3.875   3.531   5.540  0.1213  1.4084  0.1884
10431SOL    HW132074   3.890   3.437   5.526 -1.9959  1.0277  0.2156
10431SOL    HW232075   3.952   3.573   5.500  0.7986 -0.2998 -0.4096
10432SOL     OW32076   6.866   3.418   7.396  0.0603 -0.1402  0.5301
10432SOL    HW132077   6.798   3.479   7.368  1.2065  1.0241  0.1904
10432SOL    HW232078   6.818   3.347   7.438 -1.3825  0.4709 -0.0087
10433SOL     OW32079   0.116   3.345   5.450  0.1237  0.1100  0.6181
10433SOL    HW132080   0.070   3.333   5.533 -2.2146 -0.1174 -0.6043
10433SOL    HW232081   0.062   3.407   5.401  0.3871 -1.1350 -1.4071
10434SOL     OW32082   3.128   5.582   1.575 -0.1077  0.2766 -0.3085
10434SOL    HW132083   3.060   5.516   1.586 -0.6726  0.8543 -0.2670
10434SOL    HW232084   3.205   5.545   1.617 -0.4557 -0.3004 -0.1734
10435SOL     OW32085   1.546   6.100   7.509 -0.0685  0.0680  0.1284
10435SOL    HW132086   1.474   6.046   7.541 -1.3317  1.3156 -0.4683
10435SOL    HW232087   1.565   6.065   7.422  0.0728 -0.2954  0.3043
10436SOL     OW32088   4.368   1.963   2.824  0.2337 -0.3057 -0.1731
10436SOL    HW132089   4.360   1.874   2.791 -0.9609 -0.9183  1.6136
10436SOL    HW232090   4.461   1.973   2.846  0.2251 -1.4182  0.3984
10437SOL     OW32091   3.938   2.585   3.696 -0.1055  0.1823  0.7027
10437SOL    HW132092   3.921   2.647   3.625  1.2906  1.3408  1.3256
10437SOL    HW232093   3.986   2.513   3.654 -2.1234 -0.7403 -0.1098
10438SOL     OW32094   6.501   4.580   4.002  0.0061  0.0548  0.0662
10438SOL    HW132095   6.519   4.662   3.956  1.2197  0.4755  1.2205
10438SOL    HW232096   6.410   4.560   3.981 -0.4912  1.9915  0.1889
10439SOL     OW32097   3.464   0.301   6.280  0.9059  0.1835 -0.4704
10439SOL    HW132098   3.497   0.214   6.258 -2.0030 -1.1879  0.0100
10439SOL    HW232099   3.426   0.333   6.198 -1.4673 -0.7956  0.1460
10440SOL     OW32100   1.044   0.929   0.243 -0.3748  0.0717  0.1882
10440SOL    HW132101   1.014   1.011   0.282 -0.5568  0.0612  0.0695
10440SOL    HW232102   1.003   0.927   0.157 -0.2538 -0.0744  0.1346
10441SOL     OW32103   1.840   4.551   5.686 -0.6592  0.4677  0.4837
10441SOL    HW132104   1.765   4.567   5.743 -1.5143  0.5617 -0.6373
10441SOL    HW232105   1.861   4.459   5.700 -1.0565  0.4096  0.7289
10442SOL     OW32106   1.182   3.201   1.361 -0.1096  0.3695 -0.1720
10442SOL    HW132107   1.107   3.241   1.317 -0.9353 -1.6904 -0.7900
10442SOL    HW232108   1.154   3.111   1.379  1.2798  0.2810  1.9834
10443SOL     OW32109   6.575   6.063   1.253 -0.5491  0.1374  0.2097
10443SOL    HW132110   6.639   6.133   1.269  0.8922 -1.4652  1.8720
10443SOL    HW232111   6.623   5.982   1.268 -2.3804 -1.2226 -0.8595
10444SOL     OW32112   2.065   2.632   3.984 -0.3022 -0.6181 -0.1636
10444SOL    HW132113   2.023   2.718   3.976  0.6584 -0.1367 -0.2160
10444SOL    HW232114   2.125   2.628   3.910  0.6778 -0.7366  0.6168
10445SOL     OW32115   4.641   7.831   3.780 -0.0275 -0.6013  0.1216
10445SOL    HW132116   4.641   7.791   3.866 -1.5055 -0.3441  0.2594
10445SOL    HW232117   4.557   7.876   3.773  0.6237  0.5429 -0.9243
10446SOL     OW32118   8.123   5.833   8.248 -0.1658  0.1470 -0.3411
10446SOL    HW132119   8.115   5.757   8.191  2.1483  0.1546 -0.8087
10446SOL    HW232120   8.214   5.829   8.279 -0.5699  1.6561  1.1572
10447SOL     OW32121   5.385   7.292   4.804 -0.2554 -0.3110 -0.2975
10447SOL    HW132122   5.317   7.338   4.852 -1.9019 -0.3503 -2.4398
10447SOL    HW232123   5.387   7.335   4.718  0.7420 -1.8628 -1.1038
10448SOL     OW32124   3.447   3.106   0.591 -0.3897 -0.0871 -0.4537
10448SOL    HW132125   3.504   3.052   0.536  0.6683  1.9793 -1.4977
10448SOL    HW232126   3.505   3.170   0.631 -1.5444  0.0844  1.0259
10449SOL     OW32127   0.426   0.581   7.187  1.0847  0.0105  0.1453
10449SOL    HW132128   0.411   0.632   7.107 -0.7925  0.0234  0.4522
10449SOL    HW232129   0.485   0.510   7.161 -1.0320 -1.1602 -1.7867
10450SOL     OW32130   8.166   8.123   6.398  0.1415  0.2873 -0.0632
10450SOL    HW132131   8.135   8.195   6.342  0.4021 -0.0992 -0.7106
10450SOL    HW232132   8.257   8.146   6.418  0.9656 -0.8961 -2.0707
10451SOL     OW32133   0.562   1.924   4.459 -0.2909 -0.1693  0.2661
10451SOL    HW132134   0.642   1.878   4.482 -0.2269 -1.0157 -1.4602
10451SOL    HW232135   0.591   2.010   4.430 -0.1224 -0.0575  0.7644
10452SOL     OW32136   7.187   0.611   7.951 -0.2658 -0.2866 -0.2887
10452SOL    HW132137   7.222   0.602   8.039 -0.9825 -0.5981 -0.0242
10452SOL    HW232138   7.259   0.645   7.899  0.0941  0.1167  0.4684
10453SOL     OW32139   5.806   0.336   6.491  0.5428 -0.0213 -0.2756
10453SOL    HW132140   5.807   0.428   6.466  0.3769 -0.0950 -0.5581
10453SOL    HW232141   5.884   0.299   6.451 -0.9773 -0.7029 -2.8944
10454SOL     OW32142   7.680   3.759   0.452 -0.1405 -0.0834  0.1625
10454SOL    HW132143   7.592   3.723   0.437  0.1477 -0.4082 -0.8419
10454SOL    HW232144   7.728   3.687   0.491 -0.1680 -0.0846  0.1943
10455SOL     OW32145   7.333   2.888   2.671 -0.9689 -0.0401  0.1455
10455SOL    HW132146   7.267   2.928   2.728 -1.9836 -0.5695 -0.6206
10455SOL    HW232147   7.398   2.957   2.658 -2.1722  1.0385 -0.3494
10456SOL     OW32148   7.798   2.507   0.392  0.0533 -0.1704 -0.1938
10456SOL    HW132149   7.886   2.469   0.394 -0.7121 -2.0503  0.2802
10456SOL    HW232150   7.740   2.431   0.400 -1.6063  1.0662 -0.1558
10457SOL     OW32151   8.116   7.284   4.650 -0.0640 -0.7728  0.6941
10457SOL    HW132152   8.135   7.287   4.743  0.6287  0.7003  0.5335
10457SOL    HW232153   8.166   7.210   4.617  1.2958 -0.0857  1.1633
10458SOL     OW32154   4.996   3.739   1.851  0.2692 -0.2596 -0.4288
10458SOL    HW132155   5.007   3.723   1.757  0.7139  0.3746 -0.4872
10458SOL    HW232156   4.989   3.834   1.859  1.8182 -0.1829  0.3390
10459SOL     OW32157   7.948   0.758   2.920  0.2261 -0.0114  0.0504
10459SOL    HW132158   7.927   0.845   2.953 -0.9422  0.1981 -1.1651
10459SOL    HW232159   7.979   0.710   2.997  1.0168  1.4889  0.7128
10460SOL     OW32160   2.138   2.937   3.325 -0.2189  0.4910 -0.4366
10460SOL    HW132161   2.114   2.888   3.247 -1.5387 -0.3174  0.4343
10460SOL    HW232162   2.068   3.000   3.337  0.7739  1.6978 -0.7656
10461SOL     OW32163   0.927   3.866   5.819  1.0292 -0.5209 -0.0193
10461SOL    HW132164   1.006   3.828   5.779 -1.0756 -1.4759 -3.7756
10461SOL    HW232165   0.891   3.923   5.751 -1.8017 -0.5534  1.3299
10462SOL     OW32166   1.192   6.276   2.199  0.5003  0.4887 -0.6218
10462SOL    HW132167   1.159   6.234   2.278  0.0523 -0.8258 -1.4763
10462SOL    HW232168   1.284   6.295   2.219  0.7428 -0.9863 -0.2154
10463SOL     OW32169   4.894   4.279   6.935  0.1214  0.0266  0.1202
10463SOL    HW132170   4.804   4.266   6.906  0.3894  0.1732 -0.8209
10463SOL    HW232171   4.894   4.255   7.028 -0.8837  0.0420  0.1292
10464SOL     OW32172   6.099   0.464   2.334 -0.4832  0.2868  0.5232
10464SOL    HW132173   6.008   0.494   2.336 -0.5800  0.2116 -1.1044
10464SOL    HW232174   6.119   0.455   2.240  0.6958 -1.2317  0.8756
10465SOL     OW32175   5.746   5.970   7.064  0.0101 -0.3251  0.1371
10465SOL    HW132176   5.719   5.946   6.975  0.1396  3.0075 -0.9463
10465SOL    HW232177   5.673   6.021   7.099  0.1132 -1.2879  1.8561
10466SOL     OW32178   2.699   6.984   0.668  0.1991 -0.4431  0.1127
10466SOL    HW132179   2.664   6.939   0.591 -0.6455  1.6628 -0.8095
10466SOL    HW232180   2.777   7.029   0.637  1.0149 -1.1760  1.0167
10467SOL     OW32181   1.135   6.518   4.683 -0.0563 -0.5020  0.5914
10467SOL    HW132182   1.154   6.535   4.775 -1.5253 -0.8550  0.9893
10467SOL    HW232183   1.179   6.435   4.664  1.5923  0.3466  0.4899
10468SOL     OW32184   0.161   4.717   6.901 -0.0260  0.2480 -0.1388
10468SOL    HW132185   0.195   4.698   6.813 -0.7227 -2.9309  0.1671
10468SOL    HW232186   0.078   4.670   6.906 -0.2628  0.7787  2.0401
10469SOL     OW32187   5.334   2.555   5.272  0.5475  0.5266 -0.0130
10469SOL    HW132188   5.348   2.490   5.341 -0.0399  1.2843  0.8549
10469SOL    HW232189   5.412   2.548   5.217  1.2208  0.1400  0.9463
10470SOL     OW32190   4.496   4.487   2.445  0.5668  0.3648  0.0734
10470SOL    HW132191   4.581   4.477   2.401  0.1556 -0.5056 -0.5582
10470SOL    HW232192   4.445   4.542   2.385  0.5750  0.6223  0.3010
10471SOL     OW32193   4.584   0.164   6.425 -0.1669 -0.0730 -0.6579
10471SOL    HW132194   4.653   0.119   6.474 -0.6056 -1.3442 -1.1726
10471SOL    HW232195   4.624   0.183   6.340  0.2256  1.1309 -0.2333
10472SOL     OW32196   7.432   1.750   4.936  0.1077  0.0033 -0.4217
10472SOL    HW132197   7.385   1.819   4.889 -0.7913 -1.0596 -1.1400
10472SOL    HW232198   7.389   1.746   5.021 -0.5363 -0.3544 -0.7529
10473SOL     OW32199   7.556   1.123   7.565 -0.2683  1.0163 -0.1377
10473SOL    HW132200   7.631   1.161   7.519  1.2139  0.2922  1.5781
10473SOL    HW232201   7.499   1.198   7.583 -0.6672  1.3943 -2.6400
10474SOL     OW32202   0.786   2.474   7.539  0.0834  0.5870  0.5248
10474SOL    HW132203   0.788   2.554   7.592 -0.7415 -0.4804  2.2443
10474SOL    HW232204   0.705   2.431   7.564  0.9289 -1.2083  0.2824
10475SOL     OW32205   0.192   2.438   1.801  0.0456 -0.3574  0.5052
10475SOL    HW132206   0.154   2.379   1.736 -2.5386  0.9760  0.6893
10475SOL    HW232207   0.259   2.385   1.845 -0.8754 -2.5438 -0.5690
10476SOL     OW32208   4.654   1.805   2.999  0.0229  0.2908 -0.5569
10476SOL    HW132209   4.649   1.789   3.093 -1.3594 -0.0944 -0.6784
10476SOL    HW232210   4.734   1.759   2.972 -0.1197 -0.4851  0.2660
10477SOL     OW32211   3.005   4.075   3.538 -0.1336  0.4222 -0.1522
10477SOL    HW132212   2.968   3.995   3.501 -0.5390  0.1370  0.8273
10477SOL    HW232213   2.990   4.067   3.633 -1.6488  2.3757 -0.1538
10478SOL     OW32214   5.953   5.147   5.268 -0.2393  0.1867  0.4128
10478SOL    HW132215   6.038   5.191   5.259  0.2739 -0.3995  2.0788
10478SOL    HW232216   5.903   5.176   5.192  1.1055  1.3223 -0.0793
10479SOL     OW32217   1.138   0.861   0.822  0.6722  0.5855 -0.3711
10479SOL    HW132218   1.096   0.778   0.801 -0.0847  1.0513 -0.7349
10479SOL    HW232219   1.179   0.846   0.907 -1.0455  0.3963  0.4638
10480SOL     OW32220   4.931   3.170   5.026 -0.0314  0.4612  0.1367
10480SOL    HW132221   4.993   3.207   4.963 -0.0596 -0.9418 -0.7670
10480SOL    HW232222   4.923   3.078   5.000 -2.7221  0.6498  0.0287
10481SOL     OW32223   4.144   7.731   2.251 -0.0709 -0.5386 -0.4231
10481SOL    HW132224   4.200   7.655   2.240 -0.6259 -1.2375  1.1386
10481SOL    HW232225   4.098   7.740   2.168  1.9561 -0.2438 -1.5524
10482SOL     OW32226   0.905   4.848   6.860 -0.3217 -0.5286 -0.0009
10482SOL    HW132227   0.852   4.780   6.818 -1.4930  1.1893 -1.4477
10482SOL    HW232228   0.841   4.910   6.895  0.7148  0.2116  0.6263
10483SOL     OW32229   4.519   4.806   5.407 -0.6799  0.0933 -0.4041
10483SOL    HW132230   4.489   4.730   5.356 -1.1081  0.7982 -1.2191
10483SOL    HW232231   4.499   4.881   5.352  1.1647  0.7144 -0.2924
10484SOL     OW32232   7.524   7.348   6.052  0.5142  0.0978 -0.5116
10484SOL    HW132233   7.459   7.319   5.988 -0.2112 -0.8495  0.6030
10484SOL    HW232234   7.608   7.320   6.015  0.0603 -0.9215 -0.8072
10485SOL     OW32235   4.099   3.407   1.151 -0.1294 -0.2202  0.0852
10485SOL    HW132236   4.094   3.499   1.125  0.3213  0.5683  2.5429
10485SOL    HW232237   4.007   3.380   1.158 -0.3446  0.7595  1.5245
10486SOL     OW32238   2.046   1.820   0.676 -0.4090  0.8336 -0.0577
10486SOL    HW132239   2.070   1.731   0.649  0.4072  0.3864  1.9650
10486SOL    HW232240   1.992   1.853   0.604 -1.0384 -1.4242 -0.7006
10487SOL     OW32241   0.498   5.256   0.984 -0.0314  0.7358 -0.0350
10487SOL    HW132242   0.518   5.242   1.077 -2.0004 -0.2917  0.2878
10487SOL    HW232243   0.485   5.350   0.976 -1.4995  0.6618  1.1299
10488SOL     OW32244   5.370   8.126   5.318 -0.1392 -0.1152 -0.0299
10488SOL    HW132245   5.428   8.196   5.349  0.8289 -0.1991 -1.5803
10488SOL    HW232246   5.426   8.048   5.315 -1.0317 -0.8245  1.0093
10489SOL     OW32247   0.172   7.723   3.595  0.2201  0.6068  0.3255
10489SOL    HW132248   0.211   7.776   3.525  0.1305  1.8145  1.1778
10489SOL    HW232249   0.233   7.731   3.668  0.2225 -0.5183  0.4642
10490SOL     OW32250   3.827   3.837   5.581 -0.4359 -0.1421  0.2033
10490SOL    HW132251   3.844   3.931   5.579 -0.7284  0.0582  3.2988
10490SOL    HW232252   3.886   3.801   5.515  1.5182  1.9657  0.6613
10491SOL     OW32253   7.830   1.871   0.546  0.6168  0.3179  0.1649
10491SOL    HW132254   7.795   1.804   0.487  0.3311  0.9823 -0.4438
10491SOL    HW232255   7.836   1.827   0.631  0.1704 -0.3953 -0.1554
10492SOL     OW32256   7.264   0.920   2.270 -0.1508  0.1363  0.2398
10492SOL    HW132257   7.227   0.866   2.340  1.1838 -1.0360  0.0931
10492SOL    HW232258   7.199   0.988   2.254 -1.3237 -0.7064  1.3012
10493SOL     OW32259   6.581   7.892   7.220  0.0355 -0.0556 -0.0501
10493SOL    HW132260   6.567   7.804   7.185 -0.6955 -0.3902  1.0225
10493SOL    HW232261   6.530   7.949   7.163  1.7518 -0.0988 -1.7013
10494SOL     OW32262   3.875   3.160   0.659 -0.2598 -0.1850  0.5121
10494SOL    HW132263   3.906   3.204   0.737 -1.3805 -1.1887  1.5766
10494SOL    HW232264   3.879   3.066   0.681  0.1218 -0.5300 -0.9132
10495SOL     OW32265   0.494   1.787   0.489  0.1586  0.7182 -0.3736
10495SOL    HW132266   0.586   1.800   0.511  0.6081  0.9289 -2.2528
10495SOL    HW232267   0.479   1.693   0.500  0.3121  0.8243  0.8861
10496SOL     OW32268   5.203   3.175   2.676  0.2722 -0.0786  0.2288
10496SOL    HW132269   5.122   3.220   2.655 -0.1640 -1.4888 -1.2773
10496SOL    HW232270   5.244   3.229   2.744 -1.1373  1.5019 -0.1324
10497SOL     OW32271   7.510   4.122   1.157 -0.0516 -0.3756 -0.1647
10497SOL    HW132272   7.578   4.055   1.157  0.4531  0.1081  0.9543
10497SOL    HW232273   7.479   4.124   1.248 -0.6702  0.2988 -0.3840
10498SOL     OW32274   4.167   4.182   4.528  0.0642 -0.3732 -0.1937
10498SOL    HW132275   4.239   4.245   4.535  0.1265 -0.3577 -0.9136
10498SOL    HW232276   4.177   4.144   4.441 -1.7744  0.8515 -1.0077
10499SOL     OW32277   5.735   6.121   0.899  0.4848  0.1195  0.1775
10499SOL    HW132278   5.811   6.087   0.853  0.4836  1.7981 -1.1755
10499SOL    HW232279   5.758   6.212   0.919 -1.2090  0.7363 -0.4609
10500SOL     OW32280   8.267   1.307   1.213 -0.1403 -0.2825 -0.5756
10500SOL    HW132281   8.362   1.301   1.199 -0.0754 -1.0956  0.1153
10500SOL    HW232282   8.248   1.401   1.211  0.8559 -0.0431  0.3237
10501SOL     OW32283   2.108   6.733   4.453 -0.0540  0.3984 -0.4044
10501SOL    HW132284   2.037   6.757   4.393 -1.8578 -1.6702  0.7300
10501SOL    HW232285   2.076   6.655   4.498  1.7793  1.0009  2.2350
10502SOL     OW32286   1.385   8.131   7.198  1.0664  0.2030 -0.5269
10502SOL    HW132287   1.345   8.044   7.211  0.1607  0.6163 -0.4593
10502SOL    HW232288   1.405   8.161   7.286  1.0491  0.2144 -0.5270
10503SOL     OW32289   0.980   6.374   2.756 -0.3969  0.1714  0.1647
10503SOL    HW132290   1.016   6.325   2.830  0.9875 -0.6730 -1.0213
10503SOL    HW232291   0.951   6.307   2.694 -1.2459  0.8648 -0.2032
10504SOL     OW32292   3.507   5.144   7.233 -0.0512 -0.5316 -0.4453
10504SOL    HW132293   3.585   5.150   7.289 -0.2927 -0.7913 -0.0771
10504SOL    HW232294   3.441   5.105   7.289 -0.6729  0.3970 -0.5181
10505SOL     OW32295   1.853   8.280   1.196  1.0520 -0.2504 -0.3140
10505SOL    HW132296   1.788   8.310   1.133 -0.5196 -0.2256  1.2249
10505SOL    HW232297   1.927   8.340   1.184 -0.6139  2.1148  0.2782
10506SOL     OW32298   4.123   2.827   6.103 -0.1709  0.4314 -0.0740
10506SOL    HW132299   4.185   2.858   6.037 -0.6297  2.2869  0.3115
10506SOL    HW232300   4.133   2.887   6.176 -1.1744 -0.3171  0.7160
10507SOL     OW32301   7.231   3.907   6.297 -0.1334  0.2710 -0.2145
10507SOL    HW132302   7.193   3.994   6.296  0.0421  0.3464 -0.4903
10507SOL    HW232303   7.250   3.888   6.205 -2.2445 -0.9690 -0.4521
10508SOL     OW32304   5.395   4.864   3.396  0.0509 -0.3963  0.0854
10508SOL    HW132305   5.379   4.939   3.453  0.7235  0.6812 -1.0842
10508SOL    HW232306   5.311   4.849   3.352  0.6854  1.9442 -2.2188
10509SOL     OW32307   2.508   1.366   2.523  0.1053  0.4888  0.0584
10509SOL    HW132308   2.421   1.327   2.515  0.7918 -1.4455  1.3946
10509SOL    HW232309   2.536   1.380   2.432  0.4123 -3.6796 -0.6665
10510SOL     OW32310   4.646   6.048   6.474  0.0358 -0.0356 -0.7107
10510SOL    HW132311   4.710   6.015   6.411  0.1849 -1.3485  0.0742
10510SOL    HW232312   4.614   5.969   6.518  0.4922  0.8660  1.3669
10511SOL     OW32313   4.662   7.376   3.307  0.2193  0.0698  0.2480
10511SOL    HW132314   4.712   7.457   3.294  1.3132 -0.8198 -1.3266
10511SOL    HW232315   4.726   7.312   3.337 -0.6396 -0.2550  1.4918
10512SOL     OW32316   0.526   2.395   7.115 -0.0118 -0.5379 -0.3612
10512SOL    HW132317   0.436   2.383   7.147  0.2392 -2.6891 -0.3032
10512SOL    HW232318   0.581   2.375   7.190  0.5354 -1.6263 -1.0306
10513SOL     OW32319   1.726   7.286   2.351 -0.2631 -0.0186 -0.1422
10513SOL    HW132320   1.655   7.341   2.383  2.2477  2.1394  2.2320
10513SOL    HW232321   1.733   7.216   2.416  0.8678  0.7948  0.6348
10514SOL     OW32322   5.380   7.508   0.285  0.2160  0.0998  0.0650
10514SOL    HW132323   5.423   7.500   0.370 -0.6675  0.3965  0.5525
10514SOL    HW232324   5.441   7.560   0.232  1.5267 -1.4881 -0.0371
10515SOL     OW32325   7.274   5.389   2.893 -0.1860  0.2408 -0.5143
10515SOL    HW132326   7.355   5.367   2.937 -0.4023 -0.6181 -0.5407
10515SOL    HW232327   7.230   5.450   2.952  1.0504  1.7394 -1.0831
10516SOL     OW32328   7.216   3.193   6.748  0.7655 -0.1894 -0.0476
10516SOL    HW132329   7.164   3.271   6.768  1.3062  0.1254  0.1326
10516SOL    HW232330   7.172   3.153   6.673  0.5705  0.3657 -0.2304
10517SOL     OW32331   5.803   2.398   7.443  0.2802 -0.2813 -0.0301
10517SOL    HW132332   5.784   2.352   7.525  1.0383  0.2213  0.4391
10517SOL    HW232333   5.800   2.491   7.467 -0.6249 -0.0887 -0.8277
10518SOL     OW32334   6.364   8.317   4.574 -0.4527  0.3723 -0.1023
10518SOL    HW132335   6.356   8.370   4.494 -0.8459 -1.4012 -1.2869
10518SOL    HW232336   6.292   8.255   4.569  0.7629 -1.1488  0.5460
10519SOL     OW32337   6.787   7.774   4.301 -0.6541 -0.7297  0.5478
10519SOL    HW132338   6.796   7.682   4.326 -1.1284 -0.8735  0.2055
10519SOL    HW232339   6.779   7.772   4.205 -3.0933 -0.5451  0.7024
10520SOL     OW32340   4.823   5.600   0.753 -0.3061 -0.2614  0.1609
10520SOL    HW132341   4.885   5.549   0.804 -0.0955 -0.5001 -0.3337
10520SOL    HW232342   4.775   5.652   0.819  1.5008  1.1472  0.4419
10521SOL     OW32343   7.366   6.604   7.360  0.5416  0.3497 -0.3384
10521SOL    HW132344   7.308   6.641   7.426  1.9365  1.3497  0.3670
10521SOL    HW232345   7.367   6.510   7.378  2.1147  0.7412  2.1451
10522SOL     OW32346   7.368   4.928   1.171  0.0809  0.0426 -0.3741
10522SOL    HW132347   7.446   4.911   1.117  0.3988  0.9439 -0.2163
10522SOL    HW232348   7.396   4.908   1.260  1.0211  2.8664  0.0731
10523SOL     OW32349   0.824   0.766   5.182  0.0893  0.3864 -0.4731
10523SOL    HW132350   0.830   0.861   5.178 -1.5284  0.5656  0.5705
10523SOL    HW232351   0.738   0.745   5.147  0.4482 -0.7079 -0.7408
10524SOL     OW32352   5.929   8.119   2.501  0.5269 -0.0870  0.0888
10524SOL    HW132353   6.005   8.107   2.558  1.6972 -0.8620 -1.5294
10524SOL    HW232354   5.859   8.071   2.543  2.3171 -3.9193 -0.8910
10525SOL     OW32355   5.112   5.979   1.909  0.0140  0.0636 -0.6546
10525SOL    HW132356   5.057   5.957   1.834  0.2351  0.5823 -0.9791
10525SOL    HW232357   5.139   6.070   1.893  1.1140 -0.2385 -0.5956
10526SOL     OW32358   5.143   7.780   3.173 -0.1959 -0.3352  0.0397
10526SOL    HW132359   5.077   7.717   3.146 -1.1496  1.0719 -1.0796
10526SOL    HW232360   5.094   7.860   3.192  0.8175 -0.2535  2.7732
10527SOL     OW32361   5.244   5.434   6.674  0.4220 -0.2993 -0.2270
10527SOL    HW132362   5.190   5.404   6.602  1.7800 -1.9420 -0.6457
10527SOL    HW232363   5.294   5.356   6.700  2.6864  1.1218 -0.0072
10528SOL     OW32364   7.066   3.421   6.805 -0.0811 -0.2029  0.2139
10528SOL    HW132365   7.115   3.479   6.864  0.8391 -0.4100 -0.3256
10528SOL    HW232366   6.984   3.468   6.788  0.8398  1.1870 -0.5902
10529SOL     OW32367   7.452   5.235   2.356  0.5163  0.5728  0.1387
10529SOL    HW132368   7.364   5.244   2.320  0.4004 -0.1150  0.2353
10529SOL    HW232369   7.487   5.324   2.355 -0.1951  0.8616  0.1540
10530SOL     OW32370   4.355   1.686   5.990  0.4305  0.1554  0.2758
10530SOL    HW132371   4.285   1.632   6.026 -1.3027  1.5513 -0.7961
10530SOL    HW232372   4.333   1.696   5.897  2.0303  0.7155 -0.0856
10531SOL     OW32373   6.032   3.204   5.305  0.0559 -0.0084  0.3553
10531SOL    HW132374   6.078   3.286   5.290  0.5119 -0.2388  0.4578
10531SOL    HW232375   5.939   3.226   5.298  0.2018  0.1943 -1.2514
10532SOL     OW32376   3.090   2.766   7.015 -0.6550 -0.2295  0.7556
10532SOL    HW132377   3.026   2.833   6.991 -1.5476 -0.8822  1.2568
10532SOL    HW232378   3.038   2.696   7.055  0.5021 -0.2334  2.3408
10533SOL     OW32379   6.361   0.620   2.123  0.4957  0.0824  0.3607
10533SOL    HW132380   6.294   0.621   2.054  1.3342 -0.0537 -0.4881
10533SOL    HW232381   6.443   0.600   2.076  0.7664 -2.2024  1.6636
10534SOL     OW32382   1.611   3.796   1.099  0.1558 -0.3949  0.1352
10534SOL    HW132383   1.706   3.794   1.107  0.1311 -1.8181  0.2147
10534SOL    HW232384   1.581   3.849   1.173  0.9026  0.7394 -0.3361
10535SOL     OW32385   5.529   5.875   4.047  0.4342  0.2713  0.5367
10535SOL    HW132386   5.556   5.814   4.116  2.0835 -0.0695 -0.3415
10535SOL    HW232387   5.566   5.959   4.073  1.2440  0.0961 -0.0116
10536SOL     OW32388   5.666   6.210   5.490  0.7745 -0.2542 -0.4522
10536SOL    HW132389   5.639   6.285   5.437  0.2977 -0.9072 -1.1505
10536SOL    HW232390   5.624   6.135   5.449  1.2451 -0.9109  0.2373
10537SOL     OW32391   5.867   1.177   2.985  0.4399  0.0022 -0.2724
10537SOL    HW132392   5.787   1.133   3.014 -0.5215  1.6943 -0.2661
10537SOL    HW232393   5.937   1.135   3.036 -0.4052 -1.5225 -0.2961
10538SOL     OW32394   2.114   7.664   5.259 -0.1451 -0.4900  0.1248
10538SOL    HW132395   2.145   7.636   5.173 -0.5906  1.0096 -0.5654
10538SOL    HW232396   2.021   7.685   5.245  0.3383  2.1396  0.3071
10539SOL     OW32397   7.383   1.368   7.620  0.0408  0.1096  0.0352
10539SOL    HW132398   7.324   1.330   7.686 -1.3235  1.9840 -0.0223
10539SOL    HW232399   7.443   1.422   7.670  1.4409 -1.3637  0.0347
10540SOL     OW32400   5.693   8.222   3.089 -0.0511 -0.2611  0.0566
10540SOL    HW132401   5.689   8.197   2.997 -1.4716 -1.9598  0.5328
10540SOL    HW232402   5.615   8.276   3.103 -0.6358 -1.2233  0.5786
10541SOL     OW32403   2.279   5.251   1.029 -0.2402  0.2347 -0.2291
10541SOL    HW132404   2.318   5.337   1.046 -0.6734  0.3828  0.0365
10541SOL    HW232405   2.186   5.263   1.048 -0.2014 -0.4632  0.4448
10542SOL     OW32406   6.574   7.140   0.756 -0.2032  0.2688 -0.2526
10542SOL    HW132407   6.514   7.174   0.822  1.6722  0.4888  1.4209
10542SOL    HW232408   6.606   7.217   0.709  1.1734  0.5166  1.0234
10543SOL     OW32409   4.334   6.442   3.406  0.2723 -0.2823  0.1867
10543SOL    HW132410   4.278   6.461   3.330 -0.6529  1.6744  1.2846
10543SOL    HW232411   4.313   6.352   3.429  0.3204 -0.8126 -1.6392
10544SOL     OW32412   3.650   5.704   8.277 -0.3671  0.5493 -0.0836
10544SOL    HW132413   3.558   5.718   8.299 -0.1251  1.5331  0.3637
10544SOL    HW232414   3.691   5.788   8.294  0.7772 -0.1122  0.5617
10545SOL     OW32415   2.486   1.266   5.473  0.0836 -0.4782  0.1428
10545SOL    HW132416   2.441   1.219   5.404 -0.7847  0.6638 -0.1054
10545SOL    HW232417   2.420   1.280   5.541 -0.4277  2.3875 -0.7917
10546SOL     OW32418   4.470   7.509   7.514  0.0357 -0.0923 -0.1350
10546SOL    HW132419   4.469   7.584   7.573 -2.9080 -0.4048  0.3291
10546SOL    HW232420   4.548   7.460   7.540  1.2352  2.0079  0.5018
10547SOL     OW32421   1.061   7.200   1.665 -0.5740  0.1225  0.3931
10547SOL    HW132422   1.083   7.114   1.630 -1.3999 -0.3971  1.1051
10547SOL    HW232423   0.971   7.215   1.636 -0.7303  0.3637  0.9789
10548SOL     OW32424   8.220   1.217   0.498 -0.2503 -0.0390  0.0423
10548SOL    HW132425   8.261   1.302   0.484  0.9514 -0.2904  1.7396
10548SOL    HW232426   8.239   1.167   0.419 -0.9321  1.2308 -0.9503
10549SOL     OW32427   5.787   1.860   6.715 -0.8199  0.2118  0.3292
10549SOL    HW132428   5.789   1.949   6.680  1.5934  0.4350  0.8636
10549SOL    HW232429   5.788   1.872   6.810  2.1383 -0.3048  0.4368
10550SOL     OW32430   0.987   0.979   8.287  0.2554  0.3587 -0.3062
10550SOL    HW132431   1.051   0.938   8.228  0.5967  3.3204 -2.1928
10550SOL    HW232432   0.903   0.945   8.257  0.6133 -0.0120 -0.9215
10551SOL     OW32433   6.190   4.283   1.011 -0.5786 -0.9925 -0.0714
10551SOL    HW132434   6.107   4.270   0.965  1.0659 -2.8585 -2.8261
10551SOL    HW232435   6.218   4.371   0.985 -0.9065 -1.0137 -0.5075
10552SOL     OW32436   3.930   1.445   3.491  0.8913 -0.4653  0.1534
10552SOL    HW132437   4.014   1.448   3.446  1.3115 -3.1511  0.6334
10552SOL    HW232438   3.891   1.361   3.465 -0.5042 -0.4255  1.9246
10553SOL     OW32439   6.205   7.063   2.233  0.0492  0.0123  0.3382
10553SOL    HW132440   6.247   7.074   2.318 -0.6010  0.5932  0.5906
10553SOL    HW232441   6.111   7.075   2.250 -0.3190 -1.8403 -0.0995
10554SOL     OW32442   1.485   2.937   7.931 -0.3189 -0.1305 -0.3876
10554SOL    HW132443   1.427   2.925   7.856 -0.0816  0.0167 -0.5962
10554SOL    HW232444   1.573   2.920   7.897  0.1290  2.5906 -0.8470
10555SOL     OW32445   4.717   3.017   7.334 -0.3554 -0.1598 -0.3151
10555SOL    HW132446   4.804   2.977   7.341  0.1384  0.5840 -1.7689
10555SOL    HW232447   4.717   3.083   7.403  0.3935  0.0926 -0.5399
10556SOL     OW32448   6.470   0.098   1.390  0.5508 -0.3991 -0.5277
10556SOL    HW132449   6.421   0.065   1.315  0.7854 -1.8959 -0.0527
10556SOL    HW232450   6.458   0.032   1.458 -0.0016  1.1162  0.9219
10557SOL     OW32451   4.776   5.522   5.890  0.2340 -0.2772  0.1948
10557SOL    HW132452   4.710   5.492   5.952 -0.7235 -0.5129 -0.9007
10557SOL    HW232453   4.726   5.554   5.815  1.2790  1.9088  0.3401
10558SOL     OW32454   1.187   7.510   7.164 -0.1484 -0.4163  0.5049
10558SOL    HW132455   1.111   7.508   7.106 -0.4451  2.1682  0.7028
10558SOL    HW232456   1.262   7.514   7.104 -0.3810  0.7706  0.2710
10559SOL     OW32457   3.492   6.532   5.316 -0.1487  1.1379 -0.1027
10559SOL    HW132458   3.525   6.622   5.315 -0.2630  1.2325  1.6323
10559SOL    HW232459   3.563   6.480   5.353  0.1362  0.3724 -1.6205
10560SOL     OW32460   4.544   1.983   1.441 -0.4653 -0.3601  0.2244
10560SOL    HW132461   4.520   1.960   1.351 -1.4784 -0.9137  0.6143
10560SOL    HW232462   4.581   1.902   1.477 -2.2283 -0.8761  0.9981
10561SOL     OW32463   1.018   3.475   1.311 -0.1981  0.8007  0.8744
10561SOL    HW132464   1.018   3.506   1.220  1.6370  3.0714  1.5443
10561SOL    HW232465   0.954   3.531   1.356 -1.5489 -0.7182  0.9093
10562SOL     OW32466   5.295   3.760   6.335 -0.2495  0.0293 -0.1097
10562SOL    HW132467   5.295   3.680   6.282 -0.6002  0.4849 -0.8038
10562SOL    HW232468   5.343   3.824   6.283  0.1283  0.2429  0.4944
10563SOL     OW32469   6.934   3.776   6.953 -0.0119  0.2653 -0.2378
10563SOL    HW132470   6.844   3.745   6.963 -0.4787  0.3175 -3.3496
10563SOL    HW232471   6.930   3.867   6.982 -0.5302 -0.2096  1.2681
10564SOL     OW32472   5.051   4.883   3.902 -0.6709  0.0726 -0.1001
10564SOL    HW132473   5.111   4.940   3.854 -1.5948  0.9504 -0.2374
10564SOL    HW232474   4.964   4.921   3.888 -0.9066  1.0154  3.1492
10565SOL     OW32475   5.807   7.364   3.279  0.2929  0.0246  0.3625
10565SOL    HW132476   5.797   7.457   3.260 -0.1102  0.8097  3.7022
10565SOL    HW232477   5.899   7.354   3.305  0.4218 -0.5820 -0.3177
10566SOL     OW32478   2.799   5.166   5.508 -0.4468 -0.6343 -0.7169
10566SOL    HW132479   2.884   5.204   5.486 -0.3359 -1.3707 -1.6102
10566SOL    HW232480   2.768   5.218   5.583  1.2799 -1.0645  0.3558
10567SOL     OW32481   7.272   5.373   6.002 -0.3931  0.4427 -0.1869
10567SOL    HW132482   7.203   5.313   5.975  0.3666 -1.0152  0.9596
10567SOL    HW232483   7.310   5.333   6.080  1.3136  1.5255 -0.3963
10568SOL     OW32484   4.397   8.266   6.449  0.2175 -0.1262 -1.1181
10568SOL    HW132485   4.345   8.251   6.528 -0.9739 -0.3881 -1.9221
10568SOL    HW232486   4.429   8.356   6.458  0.8836 -0.4481  0.0735
10569SOL     OW32487   7.413   0.166   0.167 -0.0109 -0.3223 -0.1854
10569SOL    HW132488   7.332   0.198   0.126  0.5171  0.0258 -0.9949
10569SOL    HW232489   7.385   0.090   0.219 -0.7652 -0.5782 -0.9331
10570SOL     OW32490   6.376   8.036   1.377 -0.4793 -0.7333  0.5082
10570SOL    HW132491   6.371   7.972   1.448  0.4480 -0.4869  0.8048
10570SOL    HW232492   6.352   8.119   1.418  0.9268 -0.4327  0.7594
10571SOL     OW32493   0.603   2.828   6.174  0.2440  0.0625 -0.5566
10571SOL    HW132494   0.574   2.854   6.262 -1.4338 -0.8347 -0.8030
10571SOL    HW232495   0.601   2.733   6.175  1.2500  0.0171 -1.2731
10572SOL     OW32496   0.079   1.290   3.616  0.0307 -0.0587 -0.1626
10572SOL    HW132497   0.065   1.283   3.710  0.2551 -0.2514 -0.1413
10572SOL    HW232498  -0.003   1.260   3.577  0.0006 -0.1499 -0.0291
10573SOL     OW32499   3.963   0.362   0.962  0.3349  0.2403 -0.2633
10573SOL    HW132500   3.919   0.350   0.878  0.6084 -0.4601 -0.3079
10573SOL    HW232501   4.013   0.282   0.975  0.5037  0.4537  0.4442
10574SOL     OW32502   4.534   2.970   4.097 -0.1235 -0.0858  0.6998
10574SOL    HW132503   4.462   3.001   4.152 -0.4273 -0.4980  0.5383
10574SOL    HW232504   4.498   2.970   4.008  0.3384  0.4954  0.5075
10575SOL     OW32505   4.683   0.589   7.703 -0.4995 -0.6544  0.0656
10575SOL    HW132506   4.719   0.671   7.736  1.8289 -1.7037  0.3100
10575SOL    HW232507   4.722   0.578   7.616 -1.0161 -1.3668 -0.0914
10576SOL     OW32508   2.084   5.639   5.041  0.1000 -0.2209 -0.1109
10576SOL    HW132509   2.106   5.570   4.977  2.6789  0.5629 -0.1903
10576SOL    HW232510   2.068   5.717   4.987  0.3816 -0.0162  0.0969
10577SOL     OW32511   4.957   6.695   7.159 -0.3062  0.3587  0.1375
10577SOL    HW132512   4.872   6.699   7.115 -2.2738 -1.1712  3.4634
10577SOL    HW232513   4.979   6.602   7.159  0.4373  0.5273  0.9835
10578SOL     OW32514   1.823   4.324   1.999  0.0959 -0.8385  0.4864
10578SOL    HW132515   1.776   4.407   1.994 -0.5144 -1.0757  1.8540
10578SOL    HW232516   1.916   4.349   2.002 -0.1323 -0.0707  2.6838
10579SOL     OW32517   4.047   7.226   7.002  0.7473  0.0283 -0.1073
10579SOL    HW132518   4.015   7.315   7.019  1.2912 -0.0293  1.3592
10579SOL    HW232519   3.990   7.193   6.932 -2.2950  0.0295  2.1507
10580SOL     OW32520   1.881   5.091   5.241 -0.2881  0.4253 -0.6117
10580SOL    HW132521   1.791   5.066   5.219  0.2689 -1.0138 -1.4404
10580SOL    HW232522   1.872   5.155   5.311 -1.9532  0.0403 -0.4308
10581SOL     OW32523   8.092   3.317   4.578  0.2004 -0.8207 -0.2458
10581SOL    HW132524   8.052   3.305   4.492 -0.5251  1.5978 -0.3099
10581SOL    HW232525   8.175   3.361   4.560 -0.6565  1.1301  0.3269
10582SOL     OW32526   7.721   6.458   1.323 -0.0802 -0.8998  0.4517
10582SOL    HW132527   7.647   6.435   1.379  0.2133  0.4398  1.4269
10582SOL    HW232528   7.780   6.383   1.328  0.0990 -0.6858  2.2414
10583SOL     OW32529   1.565   1.304   0.707  0.0179 -0.5804  0.2419
10583SOL    HW132530   1.561   1.215   0.673 -0.3801 -0.1753 -0.7951
10583SOL    HW232531   1.636   1.345   0.659  0.5591 -0.4876  1.1062
10584SOL     OW32532   5.331   7.083   7.284 -0.0285 -0.3118  0.2802
10584SOL    HW132533   5.245   7.095   7.323 -0.7724 -0.6010 -1.2123
10584SOL    HW232534   5.365   7.004   7.326 -0.1681  0.1876  1.3817
10585SOL     OW32535   4.377   3.935   1.698  0.3186  0.0871  0.1273
10585SOL    HW132536   4.463   3.976   1.714 -0.9463  2.3392  1.8043
10585SOL    HW232537   4.385   3.848   1.737  1.2458  1.0428  2.2888
10586SOL     OW32538   7.292   4.965   5.704 -0.3934 -0.1812  0.1725
10586SOL    HW132539   7.251   4.887   5.667 -0.1281  0.4054 -1.4339
10586SOL    HW232540   7.295   5.027   5.632  2.0345  0.3111  0.6143
10587SOL     OW32541   8.033   2.918   7.946  0.0662  0.1523 -0.1338
10587SOL    HW132542   7.946   2.908   7.905 -0.9580  0.6345  1.7915
10587SOL    HW232543   8.089   2.858   7.897 -1.6570 -1.1233 -0.6588
10588SOL     OW32544   6.023   4.556   8.161 -0.1497  0.3346  0.3545
10588SOL    HW132545   6.018   4.534   8.254 -1.0352 -1.1096 -0.0045
10588SOL    HW232546   6.055   4.477   8.119 -0.2772  0.7930 -0.6332
10589SOL     OW32547   8.217   2.894   2.807  0.6611 -0.0809  0.8648
10589SOL    HW132548   8.206   2.960   2.739  1.4105 -0.4864  0.3389
10589SOL    HW232549   8.152   2.827   2.786  0.8415 -0.1701  0.5801
10590SOL     OW32550   4.476   4.651   7.314  0.0801  0.2284 -0.5862
10590SOL    HW132551   4.465   4.567   7.269 -0.7867  0.9452 -1.7693
10590SOL    HW232552   4.484   4.715   7.243  0.0508  1.2358  0.2958
10591SOL     OW32553   6.124   2.065   4.477 -0.1400 -0.2550  0.3291
10591SOL    HW132554   6.127   2.100   4.566  1.2371  2.7553 -0.7776
10591SOL    HW232555   6.212   2.031   4.461 -0.2407 -0.3402 -0.0668
10592SOL     OW32556   1.629   7.953   4.118 -0.2967 -0.4988  0.3491
10592SOL    HW132557   1.569   7.878   4.128 -1.2566  0.0796 -0.7892
10592SOL    HW232558   1.658   7.948   4.027 -0.0635  0.2886  0.3736
10593SOL     OW32559   6.618   1.311   7.110  0.2970 -0.8071  0.2008
10593SOL    HW132560   6.610   1.259   7.190  2.4270 -1.7600 -0.1396
10593SOL    HW232561   6.665   1.255   7.049  0.8362  0.7806 -0.9154
10594SOL     OW32562   0.211   6.565   8.002 -0.7772  0.1000  0.0772
10594SOL    HW132563   0.138   6.624   7.983 -0.5861 -0.4222 -2.8463
10594SOL    HW232564   0.287   6.608   7.961  0.2381 -0.2040  1.5673
10595SOL     OW32565   6.300   0.201   0.963 -0.4301  0.0259 -0.2533
10595SOL    HW132566   6.349   0.119   0.953 -0.0249  0.2493 -0.1549
10595SOL    HW232567   6.256   0.213   0.880 -2.0221 -1.2556  0.3479
10596SOL     OW32568   8.198   6.620   3.589 -0.6851  0.3750  0.1139
10596SOL    HW132569   8.137   6.684   3.553 -1.3699 -0.1065  0.3913
10596SOL    HW232570   8.284   6.660   3.579 -1.0541  1.1000 -0.2078
10597SOL     OW32571   2.126   3.682   6.900 -0.4434 -0.5685  0.1732
10597SOL    HW132572   2.059   3.750   6.909 -0.9282 -1.1870  1.4730
10597SOL    HW232573   2.190   3.703   6.968 -0.7495 -1.5649  0.7842
10598SOL     OW32574   3.072   4.962   5.421  0.4861 -0.6385  1.0362
10598SOL    HW132575   2.994   4.909   5.436 -0.2623  0.4189  0.9315
10598SOL    HW232576   3.045   5.052   5.438  1.1216 -0.0142 -0.9430
10599SOL     OW32577   1.507   1.562   4.576  0.0387  0.2889 -0.3595
10599SOL    HW132578   1.579   1.624   4.589  0.5074 -0.1960 -0.5731
10599SOL    HW232579   1.457   1.598   4.502 -0.4337  1.0669  0.3273
10600SOL     OW32580   7.272   5.682   0.259 -0.3068 -0.0820 -1.1426
10600SOL    HW132581   7.319   5.633   0.192  1.1749 -0.6414  0.2217
10600SOL    HW232582   7.295   5.638   0.341  0.0010  2.0599 -0.0034
10601SOL     OW32583   8.203   1.135   1.830  0.7012 -0.2093 -0.4991
10601SOL    HW132584   8.281   1.104   1.784  0.6371 -0.2796 -0.5598
10601SOL    HW232585   8.231   1.145   1.921  1.2878  1.5142 -0.8274
10602SOL     OW32586   3.345   2.282   1.699  0.1695  0.1113 -0.1583
10602SOL    HW132587   3.438   2.258   1.697  0.1220 -0.0346 -1.8074
10602SOL    HW232588   3.339   2.350   1.766  1.5639  0.4829 -0.3862
10603SOL     OW32589   7.021   5.703   0.184 -0.6560 -0.1036  0.1679
10603SOL    HW132590   7.015   5.799   0.178 -0.1604 -0.0512  0.4356
10603SOL    HW232591   7.104   5.687   0.228 -0.0823 -0.6957 -1.0781
10604SOL     OW32592   2.822   0.329   7.035  0.3358  0.2510  0.0237
10604SOL    HW132593   2.907   0.352   7.000  1.2145 -0.8475  1.3026
10604SOL    HW232594   2.774   0.411   7.039  1.1450  0.8039 -1.1688
10605SOL     OW32595   1.495   7.099   3.591  0.3327  0.0711  0.2464
10605SOL    HW132596   1.406   7.073   3.569  0.5784  0.8669 -1.8605
10605SOL    HW232597   1.546   7.018   3.583  0.2973  0.1985 -1.6268
10606SOL     OW32598   0.379   1.272   2.105  0.0832 -0.2477 -0.2695
10606SOL    HW132599   0.312   1.329   2.145 -0.7042 -1.2737 -0.0719
10606SOL    HW232600   0.435   1.332   2.056  0.7437  1.0093  1.8824
10607SOL     OW32601   2.668   2.328   7.945  0.1899 -0.2894 -0.3657
10607SOL    HW132602   2.702   2.289   8.025  0.3075  1.4624  0.4742
10607SOL    HW232603   2.739   2.381   7.911 -0.5140  0.5546 -0.5493
10608SOL     OW32604   3.361   4.142   3.083  0.2823  0.0275 -0.2360
10608SOL    HW132605   3.293   4.080   3.055  0.3978 -0.8453  1.3119
10608SOL    HW232606   3.443   4.094   3.073  0.3850 -0.0418  0.8623
10609SOL     OW32607   7.695   7.621   5.197  0.6671 -0.2006 -0.5863
10609SOL    HW132608   7.711   7.656   5.109  2.3477  0.6806  0.0436
10609SOL    HW232609   7.758   7.550   5.207  0.4248 -0.3558 -0.1193
10610SOL     OW32610   3.730   6.780   3.474 -1.2369  0.1247 -0.1351
10610SOL    HW132611   3.697   6.757   3.561 -0.2008 -1.6260 -0.1550
10610SOL    HW232612   3.812   6.732   3.466 -1.8345 -0.6349 -2.5068
10611SOL     OW32613   7.756   1.283   1.714 -0.1658  0.4453  0.0967
10611SOL    HW132614   7.832   1.243   1.672  1.1114  2.0580  0.8053
10611SOL    HW232615   7.682   1.232   1.682  1.0703 -0.3342 -1.6424
10612SOL     OW32616   5.922   1.081   0.029 -0.2504 -0.0474  0.2159
10612SOL    HW132617   5.922   1.165   0.075  0.2437 -0.8745  1.7876
10612SOL    HW232618   6.014   1.061   0.016 -0.3816  0.1223 -1.0986
10613SOL     OW32619   4.060   0.827   2.617  0.2327 -0.3231  1.1439
10613SOL    HW132620   4.149   0.849   2.589 -0.4168  0.6658 -0.2170
10613SOL    HW232621   4.048   0.875   2.699  0.4799  0.6727  0.6117
10614SOL     OW32622   3.176   1.082   4.193 -0.3788  0.2273  0.3053
10614SOL    HW132623   3.120   1.066   4.116  2.3993  0.0446 -1.8506
10614SOL    HW232624   3.235   1.007   4.195  0.8175  1.1696  1.5230
10615SOL     OW32625   7.258   1.080   7.484 -0.3989 -0.6089  0.3645
10615SOL    HW132626   7.311   1.018   7.434  0.4408 -0.1917  0.7215
10615SOL    HW232627   7.274   1.165   7.442 -0.3186 -0.3866  0.8352
10616SOL     OW32628   7.416   4.494   5.276 -0.6635 -0.1461  0.1661
10616SOL    HW132629   7.500   4.459   5.307 -0.1843  1.7741  1.2283
10616SOL    HW232630   7.434   4.524   5.187 -0.4726 -0.5903  0.0531
10617SOL     OW32631   0.054   6.975   1.177 -1.1974  0.1340 -0.2934
10617SOL    HW132632  -0.020   6.941   1.228 -0.4619 -0.0545  0.6977
10617SOL    HW232633   0.126   6.916   1.199 -0.6418  0.5798 -0.8934
10618SOL     OW32634   2.274   6.561   2.560  0.1824  0.1111 -0.3238
10618SOL    HW132635   2.367   6.546   2.575  0.1791 -2.1648 -2.0095
10618SOL    HW232636   2.230   6.497   2.615 -0.4682  1.5211  0.8626
10619SOL     OW32637   8.287   1.272   5.175 -0.1110 -0.5645 -0.5308
10619SOL    HW132638   8.328   1.196   5.216  1.0138  0.5171  0.4375
10619SOL    HW232639   8.297   1.257   5.081  2.1819 -0.5681 -0.3493
10620SOL     OW32640   3.864   0.635   3.773 -0.5632 -0.2227  0.4665
10620SOL    HW132641   3.935   0.696   3.754 -0.6972 -0.1023  0.3527
10620SOL    HW232642   3.857   0.580   3.695 -1.1956  0.3529  0.1175
10621SOL     OW32643   0.904   3.595   1.701  0.0636 -0.0592 -0.0154
10621SOL    HW132644   0.822   3.574   1.656 -0.1363 -0.7040  0.6149
10621SOL    HW232645   0.972   3.550   1.651 -0.3032 -1.8925  1.0314
10622SOL     OW32646   6.872   2.249   5.194 -0.3504  0.5606  1.3245
10622SOL    HW132647   6.852   2.242   5.101 -1.2363  0.1374  1.5303
10622SOL    HW232648   6.835   2.333   5.220 -1.2637  0.1114  1.5460
10623SOL     OW32649   1.752   5.894   6.366 -0.3418 -0.3778  0.2831
10623SOL    HW132650   1.696   5.846   6.305 -1.7483 -0.4887  1.6133
10623SOL    HW232651   1.836   5.902   6.320 -0.3418 -3.2037 -0.3988
10624SOL     OW32652   4.000   2.588   5.944 -0.2499 -0.8156 -0.0768
10624SOL    HW132653   3.927   2.638   5.908  0.0411  0.3851  0.9289
10624SOL    HW232654   4.030   2.640   6.019  3.3701  0.2156 -1.9656
10625SOL     OW32655   6.207   2.750   6.267  0.0537  0.8604  0.1270
10625SOL    HW132656   6.204   2.735   6.173  0.3772  1.1268  0.0752
10625SOL    HW232657   6.287   2.706   6.296  0.1370  1.0797  0.2267
10626SOL     OW32658   0.054   6.276   7.318 -0.6504 -0.1783 -0.6240
10626SOL    HW132659   0.107   6.347   7.354 -1.9271  1.8719 -2.5061
10626SOL    HW232660   0.089   6.263   7.229 -2.1612  0.0109 -1.2703
10627SOL     OW32661   4.027   8.073   2.950 -0.0358  0.0515  0.1223
10627SOL    HW132662   4.044   8.035   2.864 -0.3062 -1.7028  0.8085
10627SOL    HW232663   4.103   8.130   2.967  0.3899 -0.1857 -0.9313
10628SOL     OW32664   1.678   3.488   4.152  0.0260  0.6260 -0.3641
10628SOL    HW132665   1.689   3.411   4.208  0.7798  1.6126  0.8949
10628SOL    HW232666   1.618   3.544   4.200  0.7960  1.5562 -0.4606
10629SOL     OW32667   7.338   6.435   6.061  0.7007 -0.1167 -0.6714
10629SOL    HW132668   7.333   6.498   5.989  0.7363  0.9720  0.2377
10629SOL    HW232669   7.398   6.367   6.031  1.4964  0.8360 -1.2809
10630SOL     OW32670   2.491   0.056   7.759 -0.0404  0.1539 -0.1184
10630SOL    HW132671   2.567   0.114   7.767  1.7581 -1.9655 -0.7667
10630SOL    HW232672   2.449   0.060   7.844  0.9595  1.1801  0.3568
10631SOL     OW32673   5.217   7.144   3.472 -0.1374  0.5223 -0.1505
10631SOL    HW132674   5.292   7.198   3.445  0.1666  0.0334 -0.3016
10631SOL    HW232675   5.180   7.113   3.389  0.7322 -0.9014 -0.0398
10632SOL     OW32676   2.278   2.437   4.706 -0.6696  0.3043 -0.0476
10632SOL    HW132677   2.308   2.378   4.636  0.8002  1.4333 -0.4204
10632SOL    HW232678   2.217   2.497   4.662 -0.2764  0.5862 -0.2082
10633SOL     OW32679   7.390   2.677   2.817 -0.2001  0.4358  0.0366
10633SOL    HW132680   7.368   2.744   2.753  0.5766 -0.4467 -1.1952
10633SOL    HW232681   7.407   2.599   2.765 -0.5496 -0.5781  1.4047
10634SOL     OW32682   7.983   7.036   1.595 -1.1294  0.7304  1.0138
10634SOL    HW132683   8.048   7.017   1.527 -0.1227 -2.4190  2.6815
10634SOL    HW232684   7.904   7.061   1.546  0.6878  2.7927 -1.1238
10635SOL     OW32685   4.820   4.181   2.672 -0.1051 -0.2615 -0.4012
10635SOL    HW132686   4.754   4.208   2.607  0.1487  1.5183  0.0213
10635SOL    HW232687   4.901   4.222   2.641  0.0290  0.5634  0.9726
10636SOL     OW32688   6.856   7.290   3.190  0.0951  0.7567  0.0464
10636SOL    HW132689   6.828   7.379   3.168 -0.6171  0.1405 -1.7322
10636SOL    HW232690   6.928   7.272   3.129  0.1989  0.0913  0.3563
10637SOL     OW32691   1.064   8.083   2.382 -0.3734 -0.1115 -0.1144
10637SOL    HW132692   1.079   7.997   2.341  1.2457  0.0209  0.1350
10637SOL    HW232693   1.047   8.062   2.474  1.5026 -0.1225  0.2674
10638SOL     OW32694   3.492   5.945   3.559 -0.1452  0.4369  0.1159
10638SOL    HW132695   3.565   5.937   3.497 -0.5580 -1.1818 -0.2063
10638SOL    HW232696   3.500   5.868   3.615  0.1245  1.7913  2.0297
10639SOL     OW32697   7.793   5.821   3.367 -0.0724  0.3323  0.2202
10639SOL    HW132698   7.792   5.728   3.388  1.0936  0.7978  2.7536
10639SOL    HW232699   7.744   5.862   3.439 -1.4288  1.6441 -1.3565
10640SOL     OW32700   8.316   1.456   3.011 -0.3813 -0.7137  0.0348
10640SOL    HW132701   8.363   1.539   3.022 -0.3121 -0.9470  1.6433
10640SOL    HW232702   8.370   1.407   2.949  1.8542 -1.1687  2.1876
10641SOL     OW32703   4.492   4.315   2.177 -0.1021 -0.2589  0.5626
10641SOL    HW132704   4.502   4.299   2.083  0.6065  0.2089  0.5488
10641SOL    HW232705   4.419   4.259   2.204  0.7150 -1.6135  0.0458
10642SOL     OW32706   5.663   3.586   5.788 -0.2150 -0.2054  0.0582
10642SOL    HW132707   5.694   3.630   5.867 -1.6351 -0.6427  0.9098
10642SOL    HW232708   5.635   3.499   5.819 -0.0468 -0.6746 -1.0708
10643SOL     OW32709   0.782   7.101   5.043  0.0125 -0.5005 -0.1521
10643SOL    HW132710   0.780   7.007   5.060 -1.4943 -0.6460 -1.0330
10643SOL    HW232711   0.695   7.122   5.011  0.3247  1.2126  0.0248
10644SOL     OW32712   4.004   1.922   6.862  0.1928  0.0690  0.2488
10644SOL    HW132713   4.039   1.974   6.789  1.6383  1.0231  1.5400
10644SOL    HW232714   3.919   1.962   6.882 -0.7439 -0.9100 -1.5801
10645SOL     OW32715   3.173   2.867   1.870  0.0084  0.1304 -0.0438
10645SOL    HW132716   3.256   2.913   1.879  0.2473 -0.1218 -0.8566
10645SOL    HW232717   3.181   2.791   1.927 -0.2261  0.8568  0.9792
10646SOL     OW32718   2.466   3.573   0.050  0.0448 -0.1416  0.1375
10646SOL    HW132719   2.420   3.643   0.003  0.0216 -0.7469 -0.7770
10646SOL    HW232720   2.502   3.518  -0.019  1.2381 -0.2753  0.8463
10647SOL     OW32721   2.757   4.027   4.439  0.2655 -0.4351 -0.3651
10647SOL    HW132722   2.811   4.032   4.359 -1.3207 -0.1928 -1.4697
10647SOL    HW232723   2.679   4.079   4.418 -0.4316 -0.8181  1.1635
10648SOL     OW32724   1.883   4.680   4.571 -0.1245  0.7151 -0.4818
10648SOL    HW132725   1.890   4.585   4.565 -1.5774  0.5709 -0.3899
10648SOL    HW232726   1.848   4.707   4.486  1.1160  1.2821 -0.8297
10649SOL     OW32727   0.448   2.197   6.858  0.2590  0.3876 -0.2710
10649SOL    HW132728   0.480   2.206   6.948 -1.3600 -1.5870  0.5914
10649SOL    HW232729   0.526   2.205   6.803  1.2602  1.8437  1.2758
10650SOL     OW32730   2.411   6.153   5.343 -0.3183 -0.3884 -0.0880
10650SOL    HW132731   2.486   6.093   5.347 -0.0087 -0.3127 -2.9056
10650SOL    HW232732   2.431   6.213   5.272 -2.0729  1.0937  0.5752
10651SOL     OW32733   6.202   7.648   0.304 -0.0793  0.2317 -0.0574
10651SOL    HW132734   6.225   7.555   0.294  1.3818  0.5866 -0.1096
10651SOL    HW232735   6.213   7.684   0.216 -1.6093  0.2724 -0.2582
10652SOL     OW32736   6.017   5.214   4.402  0.3028 -1.0774  0.1705
10652SOL    HW132737   5.997   5.136   4.351  0.5383 -1.1461  0.1820
10652SOL    HW232738   6.104   5.241   4.371  0.5043 -1.1986  0.6362
10653SOL     OW32739   2.008   6.925   0.126  0.2978 -0.7512  0.4639
10653SOL    HW132740   2.070   6.853   0.114  0.5005 -0.3692 -0.9519
10653SOL    HW232741   2.047   6.979   0.195  0.2354 -1.8552  1.4115
10654SOL     OW32742   8.095   1.813   1.879  0.6567 -0.0871 -0.4855
10654SOL    HW132743   8.040   1.809   1.957 -1.2188 -0.9783 -1.7792
10654SOL    HW232744   8.103   1.722   1.851  0.1744  0.3272 -2.0426
10655SOL     OW32745   8.262   5.511   5.824  0.0083 -0.6881  0.5507
10655SOL    HW132746   8.192   5.447   5.837  1.6400 -2.4593  1.0820
10655SOL    HW232747   8.313   5.509   5.905  0.2335  1.1814  0.5037
10656SOL     OW32748   4.566   3.212   4.409  0.7284 -0.8703 -0.0670
10656SOL    HW132749   4.651   3.247   4.380 -0.0175  0.0237 -1.2552
10656SOL    HW232750   4.530   3.170   4.331 -0.3080 -0.4753  0.1844
10657SOL     OW32751   4.060   4.950   0.701  0.3266 -0.7371 -0.3280
10657SOL    HW132752   3.972   4.987   0.692  0.1616 -0.8314  0.7927
10657SOL    HW232753   4.110   4.991   0.630 -0.2237  0.5332 -0.0097
10658SOL     OW32754   7.811   5.976   2.186  0.4450 -0.7308 -0.0072
10658SOL    HW132755   7.733   6.012   2.143  0.3887  0.0028  0.6908
10658SOL    HW232756   7.779   5.901   2.235  0.0869 -0.1805  0.6231
10659SOL     OW32757   1.507   6.654   3.958 -0.0564  0.2506 -0.6458
10659SOL    HW132758   1.496   6.578   3.902  0.3554  0.1293 -0.5669
10659SOL    HW232759   1.580   6.703   3.919 -1.3369  1.4474 -1.6247
10660SOL     OW32760   4.241   0.805   6.540 -0.9472 -0.2288 -0.4373
10660SOL    HW132761   4.227   0.880   6.596 -1.6799 -0.6028 -0.1115
10660SOL    HW232762   4.329   0.775   6.562 -0.8363  0.2399 -0.2294
10661SOL     OW32763   5.074   4.665   2.679 -0.0379  0.3116  0.1504
10661SOL    HW132764   5.054   4.573   2.663 -0.6941  0.3768  0.5446
10661SOL    HW232765   5.038   4.711   2.603  2.8268  0.0088 -1.5303
10662SOL     OW32766   0.708   2.579   0.914 -0.1109  0.3760 -0.2599
10662SOL    HW132767   0.775   2.642   0.938  0.1429  0.1732 -0.4337
10662SOL    HW232768   0.717   2.508   0.978  1.3713 -0.7449 -1.6360
10663SOL     OW32769   0.394   6.905   7.026  0.2282  0.1872 -0.7395
10663SOL    HW132770   0.461   6.941   7.084 -1.9690  1.2310  1.3101
10663SOL    HW232771   0.318   6.889   7.083 -0.6657 -2.8527 -2.5691
10664SOL     OW32772   3.012   6.148   6.429  0.2610 -0.1853  0.2008
10664SOL    HW132773   2.922   6.138   6.399 -0.2660 -1.4482  1.9851
10664SOL    HW232774   3.065   6.107   6.360 -0.3488  1.7424 -1.5058
10665SOL     OW32775   1.607   2.196   6.047 -0.7092 -0.1978  0.1472
10665SOL    HW132776   1.522   2.196   6.004 -0.7588  1.0530  0.2298
10665SOL    HW232777   1.650   2.276   6.017  1.2728 -1.7743 -1.4866
10666SOL     OW32778   0.758   2.644   4.920  0.2056  0.1242  0.1080
10666SOL    HW132779   0.845   2.607   4.908  0.2927  0.4608 -0.3454
10666SOL    HW232780   0.700   2.582   4.875  0.2199 -0.0553  0.3359
10667SOL     OW32781   1.671   2.234   6.540 -0.0268 -0.2501  0.4060
10667SOL    HW132782   1.725   2.159   6.512  1.4136  1.2878 -1.1530
10667SOL    HW232783   1.656   2.219   6.633  2.6011 -1.1019  0.7733
10668SOL     OW32784   3.281   7.961   6.415 -0.4470  0.4549  0.0487
10668SOL    HW132785   3.279   8.054   6.393 -1.9221  0.1925 -1.0122
10668SOL    HW232786   3.197   7.943   6.456  0.0218 -0.3285  0.7238
10669SOL     OW32787   6.778   4.846   0.222 -0.1901  0.0367 -0.1021
10669SOL    HW132788   6.741   4.893   0.147  1.2835 -0.2776 -1.0647
10669SOL    HW232789   6.843   4.906   0.258 -0.0548 -0.2875  0.1923
10670SOL     OW32790   0.201   7.301   7.012  0.0765 -0.6388 -0.0337
10670SOL    HW132791   0.293   7.285   6.992  0.3307  1.4729 -0.7603
10670SOL    HW232792   0.202   7.344   7.098 -0.0919  0.6380 -0.6494
10671SOL     OW32793   3.641   3.950   1.404  0.3950 -0.1321 -0.3717
10671SOL    HW132794   3.551   3.924   1.423 -0.3105  1.9491 -0.5357
10671SOL    HW232795   3.632   4.018   1.337  2.2014 -0.7695 -1.3257
10672SOL     OW32796   4.178   6.905   5.380 -0.4421 -0.0376  0.3023
10672SOL    HW132797   4.248   6.884   5.318 -0.8353 -3.2124  0.7519
10672SOL    HW232798   4.113   6.951   5.327  1.6784  2.5924 -0.2175
10673SOL     OW32799   4.982   4.671   0.010 -0.1463 -0.2935  0.1371
10673SOL    HW132800   4.985   4.585  -0.033 -1.0100  0.5280 -1.6942
10673SOL    HW232801   5.013   4.732  -0.057 -2.4078  1.1785  0.3207
10674SOL     OW32802   5.353   3.788   6.600 -0.5081  0.1686  0.0680
10674SOL    HW132803   5.391   3.875   6.594 -1.0402  0.3080 -1.7999
10674SOL    HW232804   5.316   3.771   6.513 -2.6262 -0.9052  1.0867
10675SOL     OW32805   5.112   2.113   8.196 -0.2520  0.7296  0.1397
10675SOL    HW132806   5.107   2.037   8.254 -0.4835  1.9209  1.7466
10675SOL    HW232807   5.051   2.092   8.125 -2.4122  0.5319  1.9349
10676SOL     OW32808   3.574   1.980   6.114 -0.2993 -0.3194  0.1414
10676SOL    HW132809   3.614   2.039   6.050 -1.4454  0.9082  0.5181
10676SOL    HW232810   3.627   1.901   6.110  2.0262  1.1335  0.4401
10677SOL     OW32811   7.774   2.615   5.083  0.4153 -0.0830 -0.2047
10677SOL    HW132812   7.838   2.651   5.021  0.5170  0.1626  0.0431
10677SOL    HW232813   7.714   2.565   5.028  1.8465 -1.8458 -0.2583
10678SOL     OW32814   7.607   0.259   2.870  0.3253  0.3466 -0.0736
10678SOL    HW132815   7.552   0.299   2.803  0.5020  1.2708  0.3231
10678SOL    HW232816   7.571   0.171   2.882 -3.5375  2.0446  2.8321
10679SOL     OW32817   6.728   0.704   5.699  0.4207  0.4692  0.0394
10679SOL    HW132818   6.784   0.753   5.759  0.6474 -0.7415  0.8603
10679SOL    HW232819   6.684   0.771   5.647 -0.3651  1.6386  2.0873
10680SOL     OW32820   4.204   1.309   0.987 -0.1105  0.6535  0.2157
10680SOL    HW132821   4.189   1.216   1.005  0.6201  0.0488 -1.9104
10680SOL    HW232822   4.117   1.344   0.967 -0.3460  0.3486  0.6926
10681SOL     OW32823   1.757   0.037   7.924  0.8028 -0.7668 -0.8504
10681SOL    HW132824   1.726  -0.054   7.925  0.1409 -0.5488  0.5295
10681SOL    HW232825   1.706   0.081   7.992  1.5909  0.4871 -1.0332
10682SOL     OW32826   5.834   2.393   6.607  0.1405 -0.5318  0.2259
10682SOL    HW132827   5.768   2.375   6.540 -0.5727  1.9605  0.1733
10682SOL    HW232828   5.792   2.455   6.666  1.8452 -0.2468  1.1972
10683SOL     OW32829   3.733   7.378   3.425  0.3751  0.4330  0.2178
10683SOL    HW132830   3.780   7.429   3.359  0.8062  0.5822  0.6313
10683SOL    HW232831   3.732   7.434   3.502 -0.6361  0.4945  0.1709
10684SOL     OW32832   6.421   6.227   0.869  0.2225 -0.1103 -0.7932
10684SOL    HW132833   6.421   6.302   0.809 -0.2333 -0.3236 -1.0694
10684SOL    HW232834   6.507   6.187   0.858  0.5133  0.4330 -0.5627
10685SOL     OW32835   2.492   6.555   1.869  0.0311  0.0515 -0.0741
10685SOL    HW132836   2.500   6.523   1.959 -0.3710  0.3399  0.0646
10685SOL    HW232837   2.582   6.574   1.843  0.3241 -1.4204 -0.2467
10686SOL     OW32838   3.845   5.319   3.439  0.4518  0.3217 -0.2000
10686SOL    HW132839   3.850   5.225   3.425  0.6704  0.3732 -0.4777
10686SOL    HW232840   3.752   5.340   3.425  0.1956 -0.0099  0.9331
10687SOL     OW32841   6.354   3.191   5.908  0.0945  0.1597  0.0173
10687SOL    HW132842   6.361   3.102   5.874  0.3431  0.3898 -0.5470
10687SOL    HW232843   6.266   3.195   5.946  0.0111 -0.2681 -0.1282
10688SOL     OW32844   2.208   8.129   7.677  0.5462 -0.1266  0.2688
10688SOL    HW132845   2.161   8.204   7.713  1.0043 -0.6046  1.9411
10688SOL    HW232846   2.144   8.086   7.620 -0.3206  0.4687  0.7631
10689SOL     OW32847   8.297   6.593   7.221  0.1274 -0.4863 -0.0935
10689SOL    HW132848   8.253   6.581   7.305 -1.0284 -0.9039 -0.7398
10689SOL    HW232849   8.234   6.564   7.156  1.2641 -0.8369 -1.0845
10690SOL     OW32850   5.328   1.235   4.967  0.0890 -0.3596 -0.2598
10690SOL    HW132851   5.388   1.284   5.025 -0.2697  1.7566 -1.5642
10690SOL    HW232852   5.384   1.169   4.926  0.6099 -1.1067  1.5335
10691SOL     OW32853   1.278   5.838   6.646  0.1075 -0.2805 -0.4558
10691SOL    HW132854   1.329   5.772   6.599 -0.2575 -0.9694  0.1023
10691SOL    HW232855   1.318   5.842   6.733 -1.5129 -1.7483  0.4337
10692SOL     OW32856   5.494   1.299   5.166  0.3160  0.3163 -0.0162
10692SOL    HW132857   5.576   1.321   5.121  0.1825  0.5311 -0.1530
10692SOL    HW232858   5.498   1.204   5.178  0.9607  0.4239  0.7012
10693SOL     OW32859   7.485   1.075   3.705 -0.1416 -0.2596 -0.4541
10693SOL    HW132860   7.574   1.070   3.671  0.8072 -2.6303  2.0253
10693SOL    HW232861   7.433   1.022   3.644  1.0228 -2.3307  0.2526
10694SOL     OW32862   7.894   1.483   1.031 -0.1476 -0.2108  0.0149
10694SOL    HW132863   7.798   1.478   1.029 -0.0863 -1.6355 -1.2345
10694SOL    HW232864   7.918   1.438   1.112 -0.5398  1.2445  0.9892
10695SOL     OW32865   2.454   6.011   4.347 -0.0378  0.3129  0.1460
10695SOL    HW132866   2.449   6.045   4.258 -2.5818 -0.5239 -0.1092
10695SOL    HW232867   2.453   6.089   4.403 -1.0077  0.7902 -0.5137
10696SOL     OW32868   2.706   3.611   0.465 -0.4918  0.3490  0.4437
10696SOL    HW132869   2.789   3.653   0.440 -1.2534  0.8346 -1.4081
10696SOL    HW232870   2.691   3.545   0.398 -1.6642  0.3328  0.7038
10697SOL     OW32871   1.321   5.060   0.793  0.0347  0.5209 -0.4593
10697SOL    HW132872   1.333   4.966   0.800  1.1054  0.7488  2.7975
10697SOL    HW232873   1.392   5.089   0.736 -0.8690 -0.6811 -2.2638
10698SOL     OW32874   0.954   7.937   1.517 -0.0798 -0.0811 -0.1117
10698SOL    HW132875   1.020   7.973   1.458  1.7400 -1.3769  1.0335
10698SOL    HW232876   0.908   7.872   1.465  0.8744 -0.5432 -0.4074
10699SOL     OW32877   0.617   6.942   3.183 -0.2954  0.1448  0.7410
10699SOL    HW132878   0.543   6.892   3.218  0.7914  0.2567  3.4042
10699SOL    HW232879   0.694   6.894   3.212  0.7322  2.0291  1.2231
10700SOL     OW32880   2.750   6.394   4.713  0.5829  0.6540 -0.2797
10700SOL    HW132881   2.654   6.396   4.719  0.4773 -1.4687 -0.3815
10700SOL    HW232882   2.780   6.407   4.803 -0.0191 -2.7496  0.5639
10701SOL     OW32883   0.217   7.235   0.179  0.1842 -0.2354  0.6665
10701SOL    HW132884   0.143   7.291   0.154  0.3513 -0.4538 -0.3693
10701SOL    HW232885   0.289   7.265   0.123  1.1893  0.6322  2.3376
10702SOL     OW32886   5.538   7.443   5.036  0.4882 -0.4010  0.0922
10702SOL    HW132887   5.482   7.370   5.009 -1.4447  0.7054  0.8841
10702SOL    HW232888   5.547   7.432   5.130  1.6479 -0.5714 -0.0314
10703SOL     OW32889   2.422   4.237   3.484 -0.8977  0.1201  0.2788
10703SOL    HW132890   2.457   4.189   3.409 -0.2415 -1.1860  1.3752
10703SOL    HW232891   2.337   4.196   3.502 -0.7556 -0.0351  0.6317
10704SOL     OW32892   0.283   6.001   4.311 -0.0004  0.5494  0.1702
10704SOL    HW132893   0.252   5.916   4.343  2.2796 -0.2112  0.5271
10704SOL    HW232894   0.306   5.985   4.219  0.5538  0.7294  0.2733
10705SOL     OW32895   1.826   6.342   3.956  0.0289  0.0648 -0.6155
10705SOL    HW132896   1.820   6.258   3.911  1.1345 -1.0603  1.1818
10705SOL    HW232897   1.881   6.395   3.899  0.7527 -1.0403 -0.9946
10706SOL     OW32898   6.556   4.118   4.595 -0.1569  0.3172  0.7652
10706SOL    HW132899   6.578   4.062   4.520 -1.1034  0.5923  0.2758
10706SOL    HW232900   6.633   4.173   4.606  0.1063  0.0800  0.1744
10707SOL     OW32901   3.144   7.523   3.072  0.5131 -0.0418 -0.4066
10707SOL    HW132902   3.145   7.517   3.168  1.9401  0.7795 -0.3377
10707SOL    HW232903   3.057   7.556   3.052  0.8382  1.7286  0.7914
10708SOL     OW32904   0.386   0.119   3.927  0.3450 -0.4335  0.2352
10708SOL    HW132905   0.443   0.089   3.998 -0.2138 -3.5456 -0.4803
10708SOL    HW232906   0.441   0.177   3.874  1.7470 -0.5902  1.4562
10709SOL     OW32907   7.546   6.845   1.660  0.4252  0.4808 -0.2375
10709SOL    HW132908   7.598   6.796   1.597  0.4894 -0.6510  0.6583
10709SOL    HW232909   7.541   6.933   1.624  2.0290  0.3403 -0.8838
10710SOL     OW32910   0.675   6.785   2.361 -0.0226 -0.5361 -0.3157
10710SOL    HW132911   0.761   6.798   2.402 -0.1263 -0.6318 -0.0658
10710SOL    HW232912   0.693   6.726   2.288  0.6356  1.7730 -2.1306
10711SOL     OW32913   6.322   3.178   0.458 -0.5238  0.3255 -0.6644
10711SOL    HW132914   6.229   3.159   0.462 -0.3248 -0.9465 -1.4220
10711SOL    HW232915   6.365   3.092   0.461  0.6140  0.8782 -0.4277
10712SOL     OW32916   2.792   6.162   5.102  0.3283  0.0449 -0.3215
10712SOL    HW132917   2.875   6.136   5.142  0.1957 -1.4723 -0.9558
10712SOL    HW232918   2.727   6.104   5.143 -0.4813  1.3594  0.3283
10713SOL     OW32919   5.570   2.903   3.591  0.3318 -0.1140 -0.0400
10713SOL    HW132920   5.517   2.943   3.522  1.0925  1.9218  0.4605
10713SOL    HW232921   5.586   2.814   3.561 -0.7227  0.2099 -1.6882
10714SOL     OW32922   6.502   2.674   7.638  0.2942 -0.1805  0.1468
10714SOL    HW132923   6.543   2.732   7.574  1.1507 -2.3188 -1.3808
10714SOL    HW232924   6.420   2.647   7.597  0.0057 -0.2440  0.7453
10715SOL     OW32925   6.688   6.084   0.912  0.2344 -0.3075 -0.5559
10715SOL    HW132926   6.667   6.028   0.837 -1.6099  1.4608 -1.4609
10715SOL    HW232927   6.659   6.033   0.988  1.2936 -1.7553 -1.0793
10716SOL     OW32928   5.013   3.581   3.400 -0.0713  0.1440 -0.1108
10716SOL    HW132929   5.041   3.491   3.420 -0.8318  0.3142  2.0340
10716SOL    HW232930   5.084   3.636   3.432 -1.1181  0.4046  1.9937
10717SOL     OW32931   1.063   7.814   4.071  0.0151 -0.4322  0.1275
10717SOL    HW132932   1.034   7.902   4.046 -0.9983 -0.7799  0.0347
10717SOL    HW232933   1.017   7.795   4.152  2.3701  0.1998  1.7178
10718SOL     OW32934   4.233   8.119   3.168  0.2224 -0.2877  0.1674
10718SOL    HW132935   4.228   8.100   3.262  0.4339  1.0321  0.4692
10718SOL    HW232936   4.251   8.213   3.164  1.1258 -0.4896 -1.1821
10719SOL     OW32937   2.890   1.899   7.361 -0.2219  0.1617 -0.0916
10719SOL    HW132938   2.939   1.850   7.427  0.7885  1.7473  0.3795
10719SOL    HW232939   2.895   1.990   7.389  0.9122  1.0168 -2.7315
10720SOL     OW32940   8.235   3.142   1.889  0.0669 -0.9668  0.1382
10720SOL    HW132941   8.240   3.079   1.960  0.4903  0.7999  1.7796
10720SOL    HW232942   8.303   3.116   1.828  1.3291 -1.1978  1.5855
10721SOL     OW32943   1.084   3.389   0.952  0.8346 -0.0277 -0.2123
10721SOL    HW132944   1.117   3.392   0.862  0.3852 -1.0857 -0.4264
10721SOL    HW232945   1.068   3.296   0.969 -0.7194  0.3244  0.3665
10722SOL     OW32946   1.997   1.384   0.936  0.5445 -0.3979 -0.0531
10722SOL    HW132947   2.073   1.343   0.977  0.6912  1.2913  1.4823
10722SOL    HW232948   1.926   1.321   0.949  1.2750 -1.2301  0.0217
10723SOL     OW32949   8.214   7.529   3.213 -0.1989  0.3134 -0.4057
10723SOL    HW132950   8.277   7.549   3.281 -0.7586 -0.7659  0.4657
10723SOL    HW232951   8.136   7.580   3.235 -0.1457  0.4938 -0.6294
10724SOL     OW32952   3.553   2.933   0.035  0.2679 -0.0537 -0.1877
10724SOL    HW132953   3.576   2.840   0.036  1.2800  0.1790  1.5825
10724SOL    HW232954   3.475   2.939   0.091  1.3981  0.4057  1.3930
10725SOL     OW32955   3.291   3.675   6.213 -0.2914  0.0436 -0.1072
10725SOL    HW132956   3.268   3.599   6.159 -2.1313  0.1292  0.4693
10725SOL    HW232957   3.296   3.641   6.302  0.0681  0.3777  0.0027
10726SOL     OW32958   6.935   2.368   1.093  0.4050 -0.0113 -0.1187
10726SOL    HW132959   6.941   2.452   1.047  1.0733  0.9680  1.6671
10726SOL    HW232960   6.874   2.384   1.165 -0.9300 -1.6186 -0.8075
10727SOL     OW32961   2.673   6.175   0.253  0.1583  0.3405  0.2194
10727SOL    HW132962   2.640   6.176   0.163 -0.7901  0.1487  0.5584
10727SOL    HW232963   2.758   6.220   0.248  0.2418  0.0906 -0.8151
10728SOL     OW32964   6.364   6.967   1.819  0.4691 -0.6614 -0.8356
10728SOL    HW132965   6.409   6.908   1.758  1.5463 -0.4940 -0.2343
10728SOL    HW232966   6.420   6.968   1.897 -0.5498 -0.3743 -0.0793
10729SOL     OW32967   5.267   3.223   5.542 -0.3252  0.1918  0.3379
10729SOL    HW132968   5.219   3.306   5.545 -1.1738 -0.1911 -1.3885
10729SOL    HW232969   5.209   3.163   5.495 -0.2966 -1.8007  2.6735
10730SOL     OW32970   2.049   0.990   4.919  0.0609  0.4068 -0.8634
10730SOL    HW132971   1.969   1.041   4.906 -0.5146 -0.3521 -0.3851
10730SOL    HW232972   2.036   0.946   5.004  1.0893  0.4651 -0.6599
10731SOL     OW32973   7.590   3.851   0.712  0.1187 -0.1825  0.2206
10731SOL    HW132974   7.640   3.818   0.638  0.4509 -0.0295  0.3723
10731SOL    HW232975   7.500   3.826   0.694  0.3847 -1.3342  0.4227
10732SOL     OW32976   7.821   2.848   7.770  0.4280  1.1018  0.1798
10732SOL    HW132977   7.812   2.923   7.710  1.5668  0.9022 -0.2834
10732SOL    HW232978   7.739   2.846   7.819  0.6581  3.1268  0.7550
10733SOL     OW32979   1.427   5.894   3.051 -0.1554  0.0282 -0.0483
10733SOL    HW132980   1.472   5.812   3.031 -1.1890 -0.7164  0.6006
10733SOL    HW232981   1.370   5.909   2.975 -2.2220 -1.4918  1.0969
10734SOL     OW32982   3.754   7.668   5.256 -1.2137  0.5120  0.6958
10734SOL    HW132983   3.809   7.626   5.323  1.2964  0.9758 -0.9270
10734SOL    HW232984   3.802   7.655   5.175 -1.9861  3.6175 -0.3869
10735SOL     OW32985   5.120   8.322   4.108  0.1613  0.0663 -0.5779
10735SOL    HW132986   5.209   8.329   4.144  0.0560  1.6933 -0.5397
10735SOL    HW232987   5.071   8.390   4.154 -1.0411 -0.6225 -0.8184
10736SOL     OW32988   4.358   4.628   0.234 -0.4575 -1.3242 -0.5629
10736SOL    HW132989   4.405   4.705   0.263 -2.7609 -0.5090  1.4098
10736SOL    HW232990   4.415   4.586   0.170  2.5731 -0.1204  1.1675
10737SOL     OW32991   6.509   5.511   7.293  0.5783  0.3091  0.1800
10737SOL    HW132992   6.593   5.549   7.267  0.4389  2.2924  2.2742
10737SOL    HW232993   6.522   5.487   7.385 -0.8195 -0.3938  0.2092
10738SOL     OW32994   1.461   0.764   6.343 -0.6537 -0.4453  0.1578
10738SOL    HW132995   1.407   0.777   6.265 -0.6018  0.9212  0.3164
10738SOL    HW232996   1.512   0.685   6.325 -0.4855 -0.0305 -1.2925
10739SOL     OW32997   0.326   3.017   1.833  0.4343  0.7137  0.4071
10739SOL    HW132998   0.325   2.925   1.859 -1.2569  0.0673 -1.6439
10739SOL    HW232999   0.415   3.032   1.801  0.6437 -0.2846  0.4805
10740SOL     OW33000   6.663   7.154   1.726 -0.2675 -0.4177  0.2846
10740SOL    HW133001   6.715   7.235   1.730 -1.0232  0.0203  2.2059
10740SOL    HW233002   6.670   7.126   1.634  1.9978  0.4960  0.1043
10741SOL     OW33003   6.937   0.322   1.038  0.7324 -0.2467 -0.6100
10741SOL    HW133004   6.897   0.360   1.116  0.6662  0.8007 -1.1380
10741SOL    HW233005   6.864   0.304   0.979  0.8200 -0.6422 -0.6004
10742SOL     OW33006   4.231   7.045   7.024 -0.2386  0.0434  0.6441
10742SOL    HW133007   4.236   7.013   6.934 -1.0747  0.9264  0.2740
10742SOL    HW233008   4.154   7.101   7.026  0.6946  1.3633  1.4795
10743SOL     OW33009   1.409   6.871   4.915 -0.0244  0.5663  0.6176
10743SOL    HW133010   1.439   6.906   4.831 -0.7890 -0.6065 -0.1773
10743SOL    HW233011   1.488   6.864   4.968  1.0992 -1.8017 -1.1777
10744SOL     OW33012   3.480   1.935   0.970 -0.1101 -1.0804 -0.6614
10744SOL    HW133013   3.489   1.941   0.875  1.2135 -0.4693 -0.5060
10744SOL    HW233014   3.567   1.914   1.002 -0.2526  0.0148  0.5289
10745SOL     OW33015   3.588   7.805   0.694  0.1085  0.6156  0.2044
10745SOL    HW133016   3.559   7.758   0.773  0.0046  0.4156  0.0488
10745SOL    HW233017   3.641   7.741   0.647 -1.4540  0.0439 -0.8830
10746SOL     OW33018   1.303   7.664   2.410 -0.4215 -0.3321 -0.1424
10746SOL    HW133019   1.242   7.602   2.450  1.7250 -1.0431  2.2844
10746SOL    HW233020   1.249   7.740   2.388 -2.0540 -0.4021  3.0910
10747SOL     OW33021   4.866   2.175   6.146 -0.0797 -0.0478  0.2229
10747SOL    HW133022   4.830   2.109   6.087  0.8053 -0.5101  0.1831
10747SOL    HW233023   4.961   2.159   6.146 -0.0126  0.2209  1.4181
10748SOL     OW33024   0.077   5.019   3.849 -0.2504  0.0785  0.1402
10748SOL    HW133025   0.169   5.003   3.870 -0.7381 -0.2462  2.2531
10748SOL    HW233026   0.069   4.992   3.757  1.7392  0.0787 -0.0838
10749SOL     OW33027   4.913   6.272   1.770  0.0096  0.2357 -0.1774
10749SOL    HW133028   4.989   6.268   1.827  0.8346  0.6958 -1.2037
10749SOL    HW233029   4.940   6.330   1.699  0.0227 -2.3309 -2.4456
10750SOL     OW33030   5.624   3.535   8.210 -0.4290 -0.3228  0.2545
10750SOL    HW133031   5.577   3.493   8.138 -0.2155  0.5793 -0.4388
10750SOL    HW233032   5.680   3.600   8.167 -1.4408  1.3333  1.3103
10751SOL     OW33033   4.581   5.422   6.825 -0.5921  0.2413  0.4214
10751SOL    HW133034   4.622   5.378   6.750  1.9442 -0.4464  2.0750
10751SOL    HW233035   4.532   5.353   6.869  1.0565 -0.3381  1.4385
10752SOL     OW33036   2.887   0.944   4.226  0.2069 -0.0960  0.1155
10752SOL    HW133037   2.938   0.973   4.302 -1.0370 -1.1560  1.4013
10752SOL    HW233038   2.926   0.992   4.152 -0.0662  2.8443  1.7092
10753SOL     OW33039   4.948   1.955   5.806 -0.3840 -0.1415  0.0657
10753SOL    HW133040   4.872   2.001   5.840 -0.8634 -1.2437  0.5598
10753SOL    HW233041   4.978   1.901   5.880  0.1682 -0.5849 -0.4682
10754SOL     OW33042   2.753   5.100   2.563 -0.0057  0.7232  0.9851
10754SOL    HW133043   2.790   5.012   2.563 -0.7087  0.3673 -1.3195
10754SOL    HW233044   2.824   5.156   2.531 -0.1485  0.6970  0.6218
10755SOL     OW33045   6.499   7.075   4.175 -0.5301 -0.1665  0.2732
10755SOL    HW133046   6.593   7.088   4.193 -0.1489 -0.6283 -1.2301
10755SOL    HW233047   6.495   6.993   4.126 -1.4177  1.0068 -1.7893
10756SOL     OW33048   4.124   0.217   1.329 -0.6407  0.4678 -0.1566
10756SOL    HW133049   4.205   0.256   1.361 -0.6765  0.4599 -0.0562
10756SOL    HW233050   4.070   0.292   1.302 -0.9544  0.5292  0.6086
10757SOL     OW33051   8.188   1.898   2.329  0.7842  0.1097 -0.0354
10757SOL    HW133052   8.192   1.884   2.423 -1.6886 -0.9195 -0.0243
10757SOL    HW233053   8.150   1.818   2.293 -0.8311  1.4692 -1.5736
10758SOL     OW33054   2.772   7.138   3.125  0.2873 -0.1741 -0.2629
10758SOL    HW133055   2.838   7.192   3.169  1.9075 -0.4028 -2.2823
10758SOL    HW233056   2.690   7.156   3.173  1.7963 -0.0664  2.4875
10759SOL     OW33057   6.694   3.287   3.287  0.4913  0.2821  0.1242
10759SOL    HW133058   6.678   3.358   3.224  1.6074  0.3199 -0.1425
10759SOL    HW233059   6.676   3.207   3.237  2.3293  0.2663 -0.6007
10760SOL     OW33060   6.624   4.419   3.770  0.1460 -0.1427  0.1578
10760SOL    HW133061   6.618   4.492   3.708 -0.5077 -0.3813 -0.0638
10760SOL    HW233062   6.566   4.444   3.842 -0.9336 -0.9367 -0.4272
10761SOL     OW33063   7.225   1.129   3.354 -0.1167 -0.1740 -0.6435
10761SOL    HW133064   7.183   1.056   3.398 -0.5593 -0.8691 -2.1676
10761SOL    HW233065   7.170   1.205   3.375 -0.4405 -0.5217 -0.2105
10762SOL     OW33066   2.385   7.209   4.552 -0.0391  0.2069 -0.7709
10762SOL    HW133067   2.327   7.138   4.525 -0.9619  0.3339  0.7215
10762SOL    HW233068   2.400   7.193   4.645  1.2776  0.9197 -0.8434
10763SOL     OW33069   2.731   7.169   4.538 -0.6847  0.0303  0.3434
10763SOL    HW133070   2.705   7.235   4.603 -0.1767  0.0850  0.4913
10763SOL    HW233071   2.763   7.221   4.464  1.1909 -0.0463  1.0583
10764SOL     OW33072   0.841   6.661   5.828  0.2398 -0.1982  0.0897
10764SOL    HW133073   0.818   6.640   5.918 -0.3121 -0.6901 -0.1632
10764SOL    HW233074   0.924   6.708   5.835 -0.2755  0.6095  0.9210
10765SOL     OW33075   3.477   5.154   0.519  0.2404  0.8305 -0.3585
10765SOL    HW133076   3.503   5.172   0.609  1.1239 -0.9071 -0.2133
10765SOL    HW233077   3.409   5.218   0.500 -0.1123  1.1056  1.6127
10766SOL     OW33078   2.898   0.738   0.203 -0.6831  0.6169 -0.6955
10766SOL    HW133079   2.923   0.685   0.127 -0.5058  0.3390 -0.4428
10766SOL    HW233080   2.824   0.791   0.171 -1.7671 -0.7603 -0.5658
10767SOL     OW33081   2.526   4.921   6.837 -0.0118  0.1603 -0.0843
10767SOL    HW133082   2.615   4.904   6.805  0.1287 -0.5119  0.6372
10767SOL    HW233083   2.518   4.868   6.916 -1.8566 -1.6778 -1.3846
10768SOL     OW33084   6.736   6.692   3.642  0.4853 -0.1627  0.1402
10768SOL    HW133085   6.790   6.619   3.671  1.0862 -0.3096 -1.2745
10768SOL    HW233086   6.798   6.756   3.607 -0.1916 -0.1298 -1.0723
10769SOL     OW33087   3.898   1.821   1.611  0.6182 -1.1414 -0.1572
10769SOL    HW133088   3.927   1.910   1.591  1.4112 -0.3043  3.7802
10769SOL    HW233089   3.957   1.764   1.561  0.0453  0.4344 -2.8151
10770SOL     OW33090   4.411   4.611   0.699 -0.1756 -0.4109 -0.1503
10770SOL    HW133091   4.421   4.557   0.621  1.4771  2.5236 -2.1575
10770SOL    HW233092   4.322   4.646   0.692 -0.3183 -0.7909 -0.2617
10771SOL     OW33093   2.619   5.455   6.834 -0.1744  0.1807 -0.0755
10771SOL    HW133094   2.690   5.397   6.860 -0.8780 -0.5198  0.3581
10771SOL    HW233095   2.545   5.427   6.888 -0.6743  1.1395 -0.2460
10772SOL     OW33096   2.800   6.707   5.772  0.5607  0.4835  0.0380
10772SOL    HW133097   2.867   6.760   5.813 -0.8154  1.1332  1.5558
10772SOL    HW233098   2.794   6.628   5.827  0.7428 -0.0259 -0.6523
10773SOL     OW33099   7.471   3.179   0.204 -0.2897 -0.3619  0.4894
10773SOL    HW133100   7.467   3.204   0.296  0.4749 -0.0152  0.4379
10773SOL    HW233101   7.473   3.083   0.205  1.5453 -0.3588  0.9461
10774SOL     OW33102   2.147   0.499   5.687 -0.3645 -0.0854 -0.2093
10774SOL    HW133103   2.237   0.530   5.695 -0.8747  0.9368  3.2915
10774SOL    HW233104   2.099   0.573   5.651 -0.3060  0.5087  0.9110
10775SOL     OW33105   4.673   8.245   3.886  0.3557 -0.1837  0.0899
10775SOL    HW133106   4.608   8.183   3.852  0.1254  0.3481 -0.4542
10775SOL    HW233107   4.623   8.303   3.943  0.6194 -0.6529  0.8128
10776SOL     OW33108   7.305   2.577   3.069 -0.7294 -0.8120 -0.4612
10776SOL    HW133109   7.276   2.520   2.998  0.4111 -1.2706 -0.5839
10776SOL    HW233110   7.340   2.654   3.024  0.0763 -1.1419 -0.4099
10777SOL     OW33111   3.159   5.108   0.525 -0.1655  1.1865  0.4006
10777SOL    HW133112   3.067   5.113   0.548 -0.2347  1.4351  0.0792
10777SOL    HW233113   3.192   5.033   0.575 -0.7904  0.4282 -0.2884
10778SOL     OW33114   0.107   0.982   4.501 -0.0132  0.2013 -0.3904
10778SOL    HW133115   0.179   0.990   4.437 -0.7453 -0.4282 -1.3280
10778SOL    HW233116   0.028   0.976   4.447 -1.0595  3.0771  0.6387
10779SOL     OW33117   5.718   6.059   0.190  0.0808  0.0164  0.1657
10779SOL    HW133118   5.668   6.115   0.131  0.5015 -0.8299 -1.0395
10779SOL    HW233119   5.682   5.971   0.174  0.4431 -0.2751  0.9201
10780SOL     OW33120   3.155   4.515   0.292  0.0071  0.4151 -0.1288
10780SOL    HW133121   3.153   4.420   0.279  0.8381  0.2303  0.9350
10780SOL    HW233122   3.232   4.544   0.242  0.7096  0.2902  0.8586
10781SOL     OW33123   3.947   5.306   2.005  0.1116 -0.0055 -0.0210
10781SOL    HW133124   4.037   5.336   1.990  0.2830 -1.3051 -2.0582
10781SOL    HW233125   3.893   5.366   1.954 -0.0888  0.2302  0.4690
10782SOL     OW33126   2.988   7.108   4.782 -0.5237 -0.4729  0.6471
10782SOL    HW133127   2.971   7.194   4.744  0.5619  0.0769  1.3614
10782SOL    HW233128   2.966   7.046   4.712  1.5413  0.5023 -0.9894
10783SOL     OW33129   8.117   7.841   6.405 -0.5539 -0.2435 -0.1860
10783SOL    HW133130   8.122   7.936   6.409 -2.1544 -0.1267 -0.2914
10783SOL    HW233131   8.185   7.811   6.466 -0.8829  0.9910  0.8414
10784SOL     OW33132   7.358   7.807   0.927  0.0371  0.5726  0.0986
10784SOL    HW133133   7.422   7.824   0.996  1.3533  0.6888 -1.1172
10784SOL    HW233134   7.406   7.819   0.845 -0.7193 -2.2634 -0.8895
10785SOL     OW33135   1.642   0.560   7.562  1.0624 -0.1627 -0.5830
10785SOL    HW133136   1.659   0.476   7.521  0.5771 -0.7272  0.3276
10785SOL    HW233137   1.548   0.575   7.548  0.9057 -0.3253  0.2091
10786SOL     OW33138   5.300   1.651   2.812 -0.2797  0.3557  0.3026
10786SOL    HW133139   5.241   1.579   2.787 -1.1844 -0.1954  3.5159
10786SOL    HW233140   5.245   1.729   2.806 -0.6084  0.1758  0.8193
10787SOL     OW33141   7.760   6.836   2.546 -0.1886  0.4273 -0.0290
10787SOL    HW133142   7.738   6.926   2.524 -1.5951  0.0706 -0.1583
10787SOL    HW233143   7.676   6.793   2.561  0.3319 -1.3134 -1.6666
10788SOL     OW33144   3.046   6.969   2.042 -0.5104  0.1456  0.1378
10788SOL    HW133145   3.046   6.999   1.951  0.9755  0.0624  0.0888
10788SOL    HW233146   2.972   6.909   2.047 -0.8636  0.4698 -0.9105
10789SOL     OW33147   3.311   1.513   4.393 -0.2607 -0.0660  0.2969
10789SOL    HW133148   3.312   1.471   4.307  1.8413  1.7428 -0.6376
10789SOL    HW233149   3.332   1.442   4.454  0.2458 -0.9793 -0.9015
10790SOL     OW33150   4.252   5.996   2.526 -0.1282  0.2705 -0.1712
10790SOL    HW133151   4.289   5.917   2.485  0.4833  0.9321 -0.9241
10790SOL    HW233152   4.319   6.024   2.588 -0.2177  0.3736 -0.1222
10791SOL     OW33153   3.359   7.534   8.161  0.1685  0.1085 -0.2012
10791SOL    HW133154   3.315   7.618   8.170 -0.4827 -0.3185  0.8985
10791SOL    HW233155   3.327   7.482   8.235 -0.3415 -1.5042 -1.4731
10792SOL     OW33156   7.282   5.443   2.275  0.2177  0.1520  0.0879
10792SOL    HW133157   7.234   5.471   2.354 -0.3817 -0.7494  0.0570
10792SOL    HW233158   7.367   5.486   2.282 -0.3383  1.2179  0.5077
10793SOL     OW33159   4.876   6.768   2.224  0.3611 -0.2778 -0.5504
10793SOL    HW133160   4.807   6.780   2.159 -0.8753 -0.0464  0.7600
10793SOL    HW233161   4.944   6.718   2.178  0.4131  1.5092 -2.5921
10794SOL     OW33162   0.693   2.196   6.753  0.0175  0.1515 -0.3377
10794SOL    HW133163   0.725   2.147   6.677  1.4542  1.4093 -0.5927
10794SOL    HW233164   0.745   2.277   6.753 -1.4096  1.1218  0.7814
10795SOL     OW33165   0.880   5.190   3.365 -0.7538  0.1026  0.2911
10795SOL    HW133166   0.789   5.171   3.389 -0.8652  1.2796  0.8677
10795SOL    HW233167   0.930   5.115   3.398 -1.8648 -2.5060 -3.2996
10796SOL     OW33168   8.177   1.256   3.453  0.2804  0.0549 -0.0967
10796SOL    HW133169   8.198   1.329   3.395 -0.0142  1.1432  1.1071
10796SOL    HW233170   8.116   1.202   3.403  0.1699  0.8711 -0.8579
10797SOL     OW33171   6.610   3.698   8.058 -0.0861 -0.3485 -0.3123
10797SOL    HW133172   6.694   3.662   8.083 -1.1436 -2.5604  0.2995
10797SOL    HW233173   6.554   3.683   8.134 -0.6679  2.6022 -0.0363
10798SOL     OW33174   7.017   1.923   1.394  0.2777  0.2792 -0.9633
10798SOL    HW133175   6.949   1.977   1.354 -1.4187 -0.1827  1.1283
10798SOL    HW233176   7.002   1.836   1.358 -0.2843  0.1734 -0.4909
10799SOL     OW33177   2.945   7.350   4.685 -0.4188 -0.3840 -0.3522
10799SOL    HW133178   2.982   7.409   4.750 -0.5446 -0.1187 -0.5214
10799SOL    HW233179   2.867   7.395   4.653 -0.9126 -0.9454  0.0281
10800SOL     OW33180   7.388   7.797   3.724  0.3052  0.0702  0.0166
10800SOL    HW133181   7.463   7.820   3.779  0.5143 -1.0302  0.2119
10800SOL    HW233182   7.381   7.870   3.662  0.9975  0.5996  0.5400
10801SOL     OW33183   6.450   0.636   7.785 -0.7623  0.7601  0.5400
10801SOL    HW133184   6.493   0.702   7.839 -1.2668  0.7414  0.9767
10801SOL    HW233185   6.381   0.684   7.739 -0.1896  0.8219 -0.2759
10802SOL     OW33186   3.632   7.927   7.891  0.0510 -0.1248 -0.1111
10802SOL    HW133187   3.624   7.946   7.797 -1.1389 -0.2599 -0.0579
10802SOL    HW233188   3.682   8.001   7.925  0.7309 -0.2078 -0.8937
10803SOL     OW33189   1.700   3.609   6.467 -0.5153 -0.7871 -0.3750
10803SOL    HW133190   1.795   3.611   6.469 -0.3828  3.3556 -2.1354
10803SOL    HW233191   1.673   3.642   6.553 -0.2813  0.0408 -0.6151
10804SOL     OW33192   7.083   4.028   4.537  0.2400 -0.3483  0.0546
10804SOL    HW133193   7.057   4.049   4.447  0.5507 -1.3079 -0.2682
10804SOL    HW233194   7.113   3.938   4.533  1.0104 -0.1500  0.9729
10805SOL     OW33195   3.637   2.110   2.038  0.2517 -0.4954  0.2684
10805SOL    HW133196   3.605   2.043   2.098  0.6929 -1.2297 -0.2940
10805SOL    HW233197   3.624   2.072   1.951 -0.4473  0.5794 -0.1237
10806SOL     OW33198   3.918   5.284   6.289  0.3682 -0.3245  0.6391
10806SOL    HW133199   3.927   5.317   6.379  0.9701  2.1811 -0.2570
10806SOL    HW233200   4.007   5.289   6.254  0.0097 -0.6033 -0.3273
10807SOL     OW33201   7.358   3.762   5.361 -0.1287  0.0054 -0.0972
10807SOL    HW133202   7.345   3.677   5.404  1.5907 -0.2177  0.0781
10807SOL    HW233203   7.295   3.763   5.289  0.4787 -1.8607 -0.7135
10808SOL     OW33204   7.089   0.478   1.430 -0.4723  0.3533 -0.0672
10808SOL    HW133205   7.007   0.440   1.461 -1.2584  1.2255 -0.9864
10808SOL    HW233206   7.117   0.420   1.359 -1.2511  1.0171 -0.9401
10809SOL     OW33207   1.704   1.883   6.885 -0.3793  0.2190 -0.3784
10809SOL    HW133208   1.662   1.809   6.929  1.0759  0.1744  1.0199
10809SOL    HW233209   1.734   1.847   6.802 -0.1044 -0.6633  0.0881
10810SOL     OW33210   1.437   2.955   7.650  0.4588  0.6656  0.4939
10810SOL    HW133211   1.525   2.985   7.626  1.0432 -0.5811  0.9935
10810SOL    HW233212   1.412   2.895   7.580  0.8739 -0.5456  1.3398
10811SOL     OW33213   7.125   6.542   3.835 -0.1024  0.4112 -0.4905
10811SOL    HW133214   7.186   6.543   3.761  1.0919 -0.3103  0.4332
10811SOL    HW233215   7.127   6.632   3.870  2.3892 -0.1236  0.9976
10812SOL     OW33216   6.342   0.997   2.732  0.2646  0.2419 -0.3147
10812SOL    HW133217   6.367   0.906   2.716 -2.9029 -1.1152  1.4614
10812SOL    HW233218   6.321   1.032   2.646  4.4199  0.4602 -1.4578
10813SOL     OW33219   2.676   3.408   0.285  0.1917  0.2867  0.2033
10813SOL    HW133220   2.685   3.446   0.198 -1.2090  0.7118  0.2222
10813SOL    HW233221   2.641   3.320   0.270  3.6226 -1.2041  0.1462
10814SOL     OW33222   2.743   0.672   1.952 -0.4651 -0.0181 -0.2414
10814SOL    HW133223   2.763   0.670   1.859 -2.2419  1.0055 -0.6988
10814SOL    HW233224   2.787   0.751   1.985  2.6112 -1.8864  0.4949
10815SOL     OW33225   0.163   5.422   4.660  0.0879  0.1510  0.2730
10815SOL    HW133226   0.240   5.376   4.626  0.0521  0.1832  0.1459
10815SOL    HW233227   0.104   5.427   4.585 -0.3386 -0.5078  0.5607
10816SOL     OW33228   1.886   3.093   7.996  1.1157  0.0049  0.2702
10816SOL    HW133229   1.924   3.035   7.930 -1.5243  0.5757 -1.9784
10816SOL    HW233230   1.825   3.148   7.946 -1.3556  0.2424  3.2361
10817SOL     OW33231   2.191   3.437   7.981  0.5545  0.0353  0.4055
10817SOL    HW133232   2.206   3.525   7.946 -0.7132 -0.2579 -0.9473
10817SOL    HW233233   2.105   3.443   8.022  0.9785 -0.2814  1.3720
10818SOL     OW33234   0.794   1.159   6.035  0.0935  0.1477  0.3159
10818SOL    HW133235   0.807   1.254   6.039  0.9475 -0.0006  1.7723
10818SOL    HW233236   0.874   1.122   6.074  0.3514 -1.2236 -1.3817
10819SOL     OW33237   2.026   5.248   3.226 -0.2882 -0.1372  0.0964
10819SOL    HW133238   2.069   5.287   3.302 -0.1229 -1.4694  0.7167
10819SOL    HW233239   1.955   5.309   3.205 -0.1174  0.4299  1.1028
10820SOL     OW33240   0.541   1.447   8.060  0.2992  0.3898  0.0980
10820SOL    HW133241   0.473   1.405   8.007 -1.3063  0.5488  1.9179
10820SOL    HW233242   0.510   1.536   8.072  1.2760  0.7155  0.2574
10821SOL     OW33243   0.150   1.192   8.159 -0.2324  0.1434 -0.1367
10821SOL    HW133244   0.162   1.132   8.085  0.8534 -0.3694  0.4257
10821SOL    HW233245   0.229   1.246   8.158 -1.6321  2.3186 -1.2444
10822SOL     OW33246   3.032   1.202   1.070  0.3037 -0.4818  0.0674
10822SOL    HW133247   3.007   1.111   1.086  1.7119 -0.9339 -0.2316
10822SOL    HW233248   2.953   1.252   1.091 -0.9658 -1.8723 -1.1866
10823SOL     OW33249   4.759   6.404   0.212 -0.2767 -0.3963 -0.2056
10823SOL    HW133250   4.836   6.356   0.181  0.2796  0.3923 -0.0615
10823SOL    HW233251   4.777   6.424   0.303  0.2600  1.5317 -0.6893
10824SOL     OW33252   5.167   7.839   6.984  0.4294  0.3287 -0.0661
10824SOL    HW133253   5.244   7.844   6.927  1.9234  2.2000  1.9549
10824SOL    HW233254   5.191   7.892   7.061 -1.7983 -1.3521  1.9174
10825SOL     OW33255   0.390   4.084   4.530  0.8556 -0.5086  0.6164
10825SOL    HW133256   0.346   4.067   4.447 -0.6789  0.5284  1.1821
10825SOL    HW233257   0.384   4.001   4.578  0.3588 -0.6477  0.3183
10826SOL     OW33258   0.141   6.439   0.996 -0.1440  0.3307  0.4228
10826SOL    HW133259   0.215   6.379   0.987 -1.1059 -0.9125  0.5278
10826SOL    HW233260   0.074   6.402   0.938 -0.5296  1.6948 -0.0297
10827SOL     OW33261   7.719   0.541   1.606  0.4984  0.4698  0.5209
10827SOL    HW133262   7.657   0.612   1.593 -0.2074  0.0228  1.2624
10827SOL    HW233263   7.754   0.556   1.694 -0.2209 -0.4951  0.9891
10828SOL     OW33264   4.674   6.597   7.774 -0.3818 -0.2328 -0.5104
10828SOL    HW133265   4.698   6.559   7.690 -0.0190 -0.7087 -0.1938
10828SOL    HW233266   4.603   6.657   7.753  1.3276  1.5490 -1.5341
10829SOL     OW33267   5.009   3.961   7.157  0.3417  0.1608  0.2564
10829SOL    HW133268   5.069   3.968   7.231 -0.0078 -0.4314  0.6036
10829SOL    HW233269   4.940   4.026   7.175  0.3870  0.1907  0.3190
10830SOL     OW33270   3.832   0.410   6.104  0.2146 -0.3351  0.1416
10830SOL    HW133271   3.837   0.315   6.104  1.2449 -0.3327  2.3945
10830SOL    HW233272   3.923   0.439   6.096 -0.1827  0.5260 -1.9494
10831SOL     OW33273   5.931   0.256   1.575  0.0037 -0.0491 -0.5459
10831SOL    HW133274   5.859   0.262   1.637 -0.4554 -0.8022 -0.9898
10831SOL    HW233275   6.008   0.234   1.628 -0.6005 -1.8726 -0.3534
10832SOL     OW33276   0.198   0.654   3.416  0.3525 -0.3527 -0.1504
10832SOL    HW133277   0.132   0.723   3.424  1.5524  0.7636  0.5573
10832SOL    HW233278   0.187   0.600   3.494  0.1127 -0.3071 -0.1542
10833SOL     OW33279   5.289   3.012   4.286 -0.3518  0.1291  0.5579
10833SOL    HW133280   5.347   2.938   4.301  0.2405  0.5083  0.1719
10833SOL    HW233281   5.271   3.010   4.192 -0.4961  0.3503  0.5793
10834SOL     OW33282   2.518   3.861   5.939  0.1645 -0.4096  0.0760
10834SOL    HW133283   2.545   3.829   5.852  1.4157  0.2581  0.1884
10834SOL    HW233284   2.555   3.797   6.000  1.1851  0.2731  0.2074
10835SOL     OW33285   4.921   1.000   2.120 -0.2231  0.3826 -0.4105
10835SOL    HW133286   4.884   1.063   2.182  1.2228 -0.4597  1.4233
10835SOL    HW233287   4.894   0.914   2.154 -1.2407 -0.0749 -2.2447
10836SOL     OW33288   6.968   0.122   4.400  0.1837 -0.1314  0.6900
10836SOL    HW133289   6.910   0.196   4.380 -0.2651 -0.2588  1.4879
10836SOL    HW233290   6.944   0.056   4.334  0.7846  0.5198 -0.2059
10837SOL     OW33291   6.152   7.971   5.715  0.2012  0.1995 -0.1610
10837SOL    HW133292   6.193   8.040   5.662 -1.3343 -1.1252 -3.3795
10837SOL    HW233293   6.058   7.980   5.696 -0.3644 -0.7760  1.9553
10838SOL     OW33294   5.827   6.564   4.170 -0.0168 -0.3758 -0.3401
10838SOL    HW133295   5.735   6.588   4.154  0.0642  0.4299  0.3188
10838SOL    HW233296   5.823   6.471   4.195 -0.8075 -0.0617  0.8069
10839SOL     OW33297   6.956   3.768   6.483 -0.2698  0.1567  0.0558
10839SOL    HW133298   6.995   3.800   6.564 -0.9065 -0.6131  0.6786
10839SOL    HW233299   6.936   3.847   6.433  0.4740  0.6258  0.4825
10840SOL     OW33300   5.610   0.228   0.772 -0.2516  1.2094  0.0577
10840SOL    HW133301   5.622   0.241   0.866 -0.4608  1.3613  0.0628
10840SOL    HW233302   5.693   0.255   0.734 -0.2658  1.4211  0.1746
10841SOL     OW33303   2.246   0.516   6.357  0.5946 -0.0630  0.1441
10841SOL    HW133304   2.228   0.593   6.410  0.5697 -0.2684  0.4359
10841SOL    HW233305   2.172   0.511   6.296  1.7815  1.5565 -1.5660
10842SOL     OW33306   5.109   4.816   1.124 -0.5032  0.3412 -0.3865
10842SOL    HW133307   5.089   4.908   1.135 -0.4460  0.5371 -1.7240
10842SOL    HW233308   5.197   4.815   1.085 -1.0695 -0.1992 -1.7096
10843SOL     OW33309   4.066   4.952   6.665  0.7095  0.0561 -0.0665
10843SOL    HW133310   4.124   4.991   6.600  0.5153  0.9491  0.2898
10843SOL    HW233311   3.978   4.978   6.638  0.1886 -3.1997 -1.9504
10844SOL     OW33312   0.487   0.585   6.426  0.2220  0.1613 -0.1453
10844SOL    HW133313   0.559   0.648   6.423 -0.1290  0.5476 -0.6558
10844SOL    HW233314   0.520   0.513   6.479  0.7184  0.6706  0.2483
10845SOL     OW33315   0.365   4.105   0.307 -0.1077  0.4242  0.4903
10845SOL    HW133316   0.434   4.053   0.349 -1.3487 -0.7584  1.1302
10845SOL    HW233317   0.381   4.195   0.338  1.0363  0.1511  0.7521
10846SOL     OW33318   7.167   0.584   6.947  0.0176 -0.0012  0.3861
10846SOL    HW133319   7.167   0.678   6.930  1.0104  0.1691  1.1930
10846SOL    HW233320   7.080   0.565   6.982 -0.8248  0.2623 -1.4735
10847SOL     OW33321   5.012   5.303   5.004  0.4680 -0.4190 -0.1001
10847SOL    HW133322   5.083   5.279   4.944 -0.5748 -0.5040 -1.3298
10847SOL    HW233323   5.054   5.359   5.070  1.7845 -0.9382 -0.4693
10848SOL     OW33324   3.153   6.158   0.277  0.3929  0.5867 -0.6008
10848SOL    HW133325   3.215   6.206   0.332  0.7187  0.5672 -0.9471
10848SOL    HW233326   3.071   6.205   0.288  0.4548  0.5899 -0.1077
10849SOL     OW33327   2.981   0.741   3.489 -0.0847 -0.3928  0.1780
10849SOL    HW133328   3.040   0.691   3.545 -0.0859 -0.7172 -0.1107
10849SOL    HW233329   3.021   0.737   3.402 -1.0040 -1.3841 -0.2085
10850SOL     OW33330   3.204   5.093   3.068 -0.2023 -0.0203  0.0568
10850SOL    HW133331   3.217   5.022   3.130 -1.0860  1.8772  2.6137
10850SOL    HW233332   3.291   5.129   3.054 -0.1249  0.2564  1.1789
10851SOL     OW33333   4.561   3.782   3.757  0.6742  0.0121 -0.8341
10851SOL    HW133334   4.568   3.869   3.718  0.6345 -0.6141 -2.3037
10851SOL    HW233335   4.633   3.733   3.719  0.4115 -0.7317 -0.3822
10852SOL     OW33336   4.073   2.707   5.408 -0.0391 -0.6153 -0.3665
10852SOL    HW133337   4.002   2.706   5.344  0.2764 -1.7743 -0.7287
10852SOL    HW233338   4.114   2.793   5.398 -1.7962  0.3507  0.3408
10853SOL     OW33339   7.207   6.390   8.085 -0.2414  0.1907 -0.4587
10853SOL    HW133340   7.180   6.482   8.083  0.4841  0.4010 -1.8818
10853SOL    HW233341   7.222   6.368   7.993  0.7411 -0.9986 -0.0333
10854SOL     OW33342   6.147   2.305   3.178 -0.3065  0.4845  0.5120
10854SOL    HW133343   6.115   2.346   3.099 -0.9686  0.3929  0.7252
10854SOL    HW233344   6.238   2.282   3.159 -0.5394  0.2221 -0.3142
10855SOL     OW33345   4.362   5.432   5.097  0.3783  0.0580 -0.2186
10855SOL    HW133346   4.280   5.386   5.079  0.9536 -0.6553 -1.1614
10855SOL    HW233347   4.376   5.487   5.020 -0.0259  1.4397  0.6637
10856SOL     OW33348   3.821   7.463   5.448 -0.1650  0.3483 -1.0474
10856SOL    HW133349   3.772   7.459   5.531 -1.2599  1.2756 -1.6222
10856SOL    HW233350   3.895   7.404   5.462  0.5583  1.6437  1.1767
10857SOL     OW33351   4.404   5.372   2.405  0.3397 -0.1676  0.2052
10857SOL    HW133352   4.313   5.365   2.434 -0.0537 -0.4141 -1.0172
10857SOL    HW233353   4.452   5.405   2.481 -0.1516 -3.1684  1.9734
10858SOL     OW33354   8.157   0.085   1.282 -0.1215  0.0740  0.3475
10858SOL    HW133355   8.191   0.050   1.364  0.1122  2.6179  1.4489
10858SOL    HW233356   8.193   0.028   1.214  1.5397 -0.8016  1.8739
10859SOL     OW33357   0.578   4.934   0.672  0.3672  0.5948  0.3894
10859SOL    HW133358   0.647   4.955   0.609 -0.3676 -0.6494 -0.9054
10859SOL    HW233359   0.535   5.018   0.690  0.4750  0.9651 -0.9537
10860SOL     OW33360   6.946   5.491   4.579  0.1843 -0.1050  0.0116
10860SOL    HW133361   6.979   5.406   4.607  3.3569  0.9851 -0.0285
10860SOL    HW233362   6.977   5.500   4.489 -1.4023  0.5165 -0.5050
10861SOL     OW33363   2.528   0.276   3.877 -0.9800 -0.1610  0.0477
10861SOL    HW133364   2.496   0.275   3.967  2.7307  0.3777  1.5391
10861SOL    HW233365   2.594   0.207   3.873  0.5050  1.2322 -1.5581
10862SOL     OW33366   1.302   0.400   4.434  0.5838  0.0264 -0.2415
10862SOL    HW133367   1.325   0.353   4.354 -0.8257  1.9841 -1.9226
10862SOL    HW233368   1.225   0.356   4.468  1.5033 -1.1453  0.4086
10863SOL     OW33369   3.776   6.672   1.907 -0.1097  0.2699  1.0904
10863SOL    HW133370   3.756   6.681   2.000 -0.2445  0.6507  1.0251
10863SOL    HW233371   3.777   6.578   1.892 -2.1127  0.2021  1.0473
10864SOL     OW33372   2.980   7.459   4.998  0.1723 -0.1769  0.3840
10864SOL    HW133373   2.933   7.375   4.999 -3.2942  1.5524  2.3490
10864SOL    HW233374   3.029   7.459   5.080 -0.2491 -0.1093  0.6416
10865SOL     OW33375   6.154   0.385   5.518 -0.1504  0.0016 -0.2972
10865SOL    HW133376   6.080   0.444   5.503  0.7212  0.9604 -0.9410
10865SOL    HW233377   6.117   0.313   5.570 -1.6340  0.2166 -1.0038
10866SOL     OW33378   0.161   2.920   6.794  0.3508 -0.0899 -0.3394
10866SOL    HW133379   0.255   2.903   6.801  0.1862 -0.3100  1.7870
10866SOL    HW233380   0.149   3.006   6.835 -0.5981 -0.8633  1.0686
10867SOL     OW33381   6.392   4.792   4.233  0.6817 -0.0524 -0.1510
10867SOL    HW133382   6.410   4.704   4.266  1.7600  0.8666  1.8500
10867SOL    HW233383   6.461   4.808   4.169  2.0932  0.2676  1.3792
10868SOL     OW33384   5.162   0.953   5.555 -0.9373 -0.2088 -0.2498
10868SOL    HW133385   5.213   0.873   5.541 -0.8949 -0.1296 -0.5543
10868SOL    HW233386   5.223   1.024   5.536 -0.6754 -0.0783  1.0260
10869SOL     OW33387   0.172   6.251   7.060  0.3059  1.0278 -0.1859
10869SOL    HW133388   0.225   6.325   7.031 -0.4594  1.0473 -1.5971
10869SOL    HW233389   0.234   6.177   7.062  0.9237  1.5436  0.6027
10870SOL     OW33390   3.494   6.107   0.341 -0.1155 -0.3647  0.2095
10870SOL    HW133391   3.526   6.063   0.420 -0.4170  0.8252  1.0402
10870SOL    HW233392   3.443   6.181   0.375 -0.2499  0.1737 -1.1111
10871SOL     OW33393   3.589   8.037   8.204  0.0052  0.3163  0.2258
10871SOL    HW133394   3.633   7.966   8.252 -0.4963 -0.5997 -0.6216
10871SOL    HW233395   3.637   8.043   8.121 -0.7385  0.0868 -0.2332
10872SOL     OW33396   7.023   4.743   0.691  0.2009  0.1605  0.3845
10872SOL    HW133397   6.959   4.769   0.757 -1.4111  1.0717 -1.4542
10872SOL    HW233398   7.099   4.800   0.707  0.3033 -0.3992  2.0962
10873SOL     OW33399   0.462   0.464   4.373 -0.1782 -0.0044  0.3985
10873SOL    HW133400   0.504   0.394   4.422 -2.5486 -1.9088 -0.0991
10873SOL    HW233401   0.473   0.542   4.428  1.5095 -0.9915  1.5307
10874SOL     OW33402   2.342   1.980   2.474  0.4434  1.0470  0.0170
10874SOL    HW133403   2.287   1.941   2.542 -0.5443  1.2786 -0.6298
10874SOL    HW233404   2.348   2.072   2.498  0.1287  1.1207 -0.1816
10875SOL     OW33405   0.034   0.743   5.200  0.2556 -0.1296 -0.3590
10875SOL    HW133406  -0.025   0.703   5.137 -0.5155  1.1901 -0.5091
10875SOL    HW233407   0.039   0.680   5.272 -0.8476 -0.5337 -0.6151
10876SOL     OW33408   5.761   2.568   3.815 -0.1011  0.3972 -0.4469
10876SOL    HW133409   5.699   2.630   3.853 -0.7275 -1.0422  0.9975
10876SOL    HW233410   5.787   2.608   3.732 -2.5761  1.2966 -0.8775
10877SOL     OW33411   7.628   0.052   6.023  0.0929  0.0251 -0.3701
10877SOL    HW133412   7.678  -0.009   6.075  0.7705 -1.3109 -2.4692
10877SOL    HW233413   7.581  -0.002   5.960  0.5996  1.6073 -2.2233
10878SOL     OW33414   5.870   4.554   5.783 -0.1667  0.1357  0.3345
10878SOL    HW133415   5.792   4.503   5.761  0.1532 -1.0471  1.7487
10878SOL    HW233416   5.882   4.540   5.877  2.0658 -0.2015  0.0521
10879SOL     OW33417   3.805   1.813   3.618  0.1493  0.5105  0.2501
10879SOL    HW133418   3.822   1.881   3.684 -1.3068 -0.1697  1.3897
10879SOL    HW233419   3.892   1.786   3.589  0.8060  1.5314  1.1544
10880SOL     OW33420   1.800   1.068   3.709 -0.2510  0.5116 -0.1133
10880SOL    HW133421   1.810   1.045   3.617 -0.3356 -0.4540  0.1102
10880SOL    HW233422   1.885   1.047   3.748 -0.2016  0.9581  0.0212
10881SOL     OW33423   2.989   3.475   6.979 -0.5447  0.3038 -0.2502
10881SOL    HW133424   3.072   3.442   6.945 -1.4801  1.0846 -3.7680
10881SOL    HW233425   2.934   3.486   6.901 -3.4936  1.1473  1.7556
10882SOL     OW33426   1.512   0.633   0.425  0.2789 -0.3017  0.2452
10882SOL    HW133427   1.478   0.686   0.352  0.0068 -0.0343  0.5630
10882SOL    HW233428   1.449   0.646   0.495  0.0066 -1.3535  0.2117
10883SOL     OW33429   2.579   5.285   4.709 -0.1277  0.0739  0.0299
10883SOL    HW133430   2.514   5.216   4.714  1.4715 -1.6885 -1.6139
10883SOL    HW233431   2.529   5.365   4.692 -1.8651 -1.2638 -1.6110
10884SOL     OW33432   4.814   4.858   6.908 -0.4402  0.0357  0.0450
10884SOL    HW133433   4.834   4.827   6.997  3.6274  1.4931 -0.1878
10884SOL    HW233434   4.812   4.953   6.916  1.3285  0.2524 -1.6050
10885SOL     OW33435   7.732   4.230   6.209  0.5536  0.1034  0.1602
10885SOL    HW133436   7.741   4.285   6.131  0.2300  1.0405  0.7720
10885SOL    HW233437   7.819   4.228   6.248  1.2052 -1.9309 -1.2094
10886SOL     OW33438   2.728   7.608   5.776 -0.4277  0.4394  0.7311
10886SOL    HW133439   2.745   7.702   5.777  0.9892  0.2211 -0.2550
10886SOL    HW233440   2.643   7.599   5.732 -1.3594  1.3281  2.2541
10887SOL     OW33441   5.556   1.197   4.151  0.2496 -0.2508 -0.3648
10887SOL    HW133442   5.557   1.106   4.119  2.0991  0.1402 -1.5583
10887SOL    HW233443   5.514   1.192   4.236  0.5223 -2.2824 -0.3057
10888SOL     OW33444   2.436   5.026   1.081  0.2285  0.0041 -0.0533
10888SOL    HW133445   2.531   5.030   1.090  0.2286  1.6886 -0.4179
10888SOL    HW233446   2.410   5.116   1.060 -1.3871 -0.5351 -0.5373
10889SOL     OW33447   2.104   1.090   6.838 -0.3524 -0.6338  0.1475
10889SOL    HW133448   2.066   1.034   6.770 -1.9676  0.3677  0.1886
10889SOL    HW233449   2.035   1.100   6.903  0.1642  0.8016  0.5130
10890SOL     OW33450   7.430   6.179   2.256 -0.4206 -0.4537 -0.1260
10890SOL    HW133451   7.474   6.114   2.201  0.5643 -1.9182  2.2554
10890SOL    HW233452   7.501   6.222   2.304 -1.3149  0.1481  0.6856
10891SOL     OW33453   4.632   4.940   1.700 -0.1247  0.5161 -0.1657
10891SOL    HW133454   4.577   4.975   1.629 -1.8461 -0.6705  0.4969
10891SOL    HW233455   4.624   4.845   1.691 -0.3442  0.3402  1.5681
10892SOL     OW33456   3.134   1.402   1.371 -0.3427 -0.0573  0.1469
10892SOL    HW133457   3.190   1.343   1.421  0.0284  0.5820  0.5133
10892SOL    HW233458   3.045   1.375   1.393 -0.1950 -1.1416 -0.5098
10893SOL     OW33459   8.310   8.236   3.467 -0.7344  0.3162  0.2935
10893SOL    HW133460   8.391   8.218   3.419 -1.8684 -2.0640 -0.9354
10893SOL    HW233461   8.268   8.307   3.419 -0.1152  0.4669 -0.0229
10894SOL     OW33462   6.341   8.121   4.243 -0.1867 -0.3206 -0.2124
10894SOL    HW133463   6.380   8.094   4.325 -0.2812 -0.9635 -0.3761
10894SOL    HW233464   6.415   8.148   4.189 -0.1887  0.9372  0.3709
10895SOL     OW33465   3.545   5.944   1.244  0.0343 -0.0026  0.0217
10895SOL    HW133466   3.502   5.882   1.185  0.0567  1.3147 -1.4448
10895SOL    HW233467   3.579   6.013   1.187 -0.4342  1.6392  1.6038
10896SOL     OW33468   2.289   8.059   4.251  0.1542  0.4814 -0.3117
10896SOL    HW133469   2.376   8.034   4.218  1.4906  1.1689  2.3668
10896SOL    HW233470   2.271   7.997   4.322 -1.3358  0.6527 -0.5134
10897SOL     OW33471   3.183   5.909   7.484  0.1050 -0.2075  0.4170
10897SOL    HW133472   3.158   5.985   7.536 -0.0413 -0.9659  1.5028
10897SOL    HW233473   3.230   5.853   7.546  1.6129 -0.2924 -0.7623
10898SOL     OW33474   3.600   3.946   6.906 -0.3278 -0.3499 -0.0250
10898SOL    HW133475   3.562   3.887   6.840 -1.6691  0.7388 -0.2886
10898SOL    HW233476   3.624   3.888   6.978  1.1677 -1.5834 -1.4205
10899SOL     OW33477   1.545   5.795   6.209 -0.1212  0.2713  0.1267
10899SOL    HW133478   1.500   5.731   6.264 -0.3805  2.2027  2.3519
10899SOL    HW233479   1.473   5.842   6.165 -0.1905  1.4960  1.4853
10900SOL     OW33480   7.821   0.036   7.360  0.2715 -0.1427  0.5339
10900SOL    HW133481   7.781  -0.046   7.389  0.0424 -0.9621 -1.9042
10900SOL    HW233482   7.805   0.096   7.433 -2.1131 -1.4633  1.2368
10901SOL     OW33483   7.707   5.015   3.492  0.0616 -0.1160 -0.5547
10901SOL    HW133484   7.761   4.986   3.419 -1.7651 -1.2904 -1.5259
10901SOL    HW233485   7.623   5.038   3.452 -0.2521  1.4844  0.9144
10902SOL     OW33486   5.586   5.128   7.734  0.0355  0.0945  0.1128
10902SOL    HW133487   5.633   5.188   7.677  1.5362 -1.3611 -0.2612
10902SOL    HW233488   5.540   5.069   7.675  2.1641 -1.8681  0.2576
10903SOL     OW33489   7.944   2.693   7.212 -0.2417  0.3231  0.2946
10903SOL    HW133490   7.920   2.603   7.238 -0.4200 -0.2718 -1.7339
10903SOL    HW233491   7.862   2.742   7.221 -0.3789  0.0542  0.5469
10904SOL     OW33492   0.367   7.628   0.627  0.4344  0.3593  0.2561
10904SOL    HW133493   0.353   7.542   0.588 -0.2111  0.8860 -0.7403
10904SOL    HW233494   0.302   7.634   0.696 -0.9096  0.7897 -0.9829
10905SOL     OW33495   0.885   5.832   6.426 -0.3106 -0.3150  0.6449
10905SOL    HW133496   0.907   5.923   6.444  0.8448 -1.0419  3.3442
10905SOL    HW233497   0.800   5.819   6.469  0.0355 -0.7761  1.1984
10906SOL     OW33498   4.706   6.632   4.301  0.1614  0.3591 -0.1360
10906SOL    HW133499   4.750   6.670   4.377  0.5633  1.3325 -0.8277
10906SOL    HW233500   4.772   6.634   4.232 -0.7629  1.3407 -1.0399
10907SOL     OW33501   1.656   5.529   1.632  0.0415 -0.2560  0.0525
10907SOL    HW133502   1.589   5.536   1.564  0.5470  1.3104 -0.3082
10907SOL    HW233503   1.739   5.525   1.585  0.3116 -0.7594  0.5475
10908SOL     OW33504   1.181   2.798   1.010  0.0793  0.3775 -0.1401
10908SOL    HW133505   1.188   2.889   0.982 -0.6603 -0.2638 -2.6871
10908SOL    HW233506   1.268   2.762   0.995  0.1021  0.4194 -0.1084
10909SOL     OW33507   2.940   0.253   4.702  0.2897  0.2947 -0.1521
10909SOL    HW133508   2.930   0.186   4.771 -0.1848  1.3123  0.7987
10909SOL    HW233509   2.911   0.209   4.622  0.9620 -0.9573  0.2642
10910SOL     OW33510   4.722   5.593   5.149 -0.2714 -0.0160 -0.2965
10910SOL    HW133511   4.718   5.674   5.097 -0.0392  0.8033  0.9119
10910SOL    HW233512   4.640   5.592   5.198  0.2821  0.1757  0.6594
10911SOL     OW33513   5.312   4.665   0.301 -0.4165 -0.1407 -0.3116
10911SOL    HW133514   5.395   4.699   0.336 -0.2947 -1.3617  0.6361
10911SOL    HW233515   5.321   4.570   0.306 -1.5221 -0.3010 -1.0667
10912SOL     OW33516   7.035   3.612   7.483 -0.1159 -0.1735 -0.0833
10912SOL    HW133517   6.966   3.664   7.525  0.1405 -2.4365  3.6229
10912SOL    HW233518   6.990   3.532   7.455  0.6988 -1.1147  1.2023
10913SOL     OW33519   3.199   3.860   3.125  0.8859  0.2541 -0.7567
10913SOL    HW133520   3.235   3.797   3.187 -2.3559  0.2613  1.3548
10913SOL    HW233521   3.150   3.807   3.061 -0.4224  0.4721  0.0279
10914SOL     OW33522   6.819   3.237   2.777  0.1410 -0.3005 -0.1608
10914SOL    HW133523   6.731   3.239   2.815  0.4655 -0.6726  0.6381
10914SOL    HW233524   6.869   3.300   2.830  0.3317 -0.0218 -0.6696
10915SOL     OW33525   4.878   7.362   1.579 -0.7905 -0.6032  0.4985
10915SOL    HW133526   4.786   7.376   1.560 -0.7358  1.1943  1.3107
10915SOL    HW233527   4.891   7.402   1.665  0.2184 -3.1260  1.6102
10916SOL     OW33528   0.156   4.326   0.508  0.1450  0.7956  0.0009
10916SOL    HW133529   0.080   4.268   0.499 -0.9611  2.0338  0.8583
10916SOL    HW233530   0.156   4.377   0.427  1.6944 -0.9866 -1.1844
10917SOL     OW33531   1.885   5.822   1.868  0.1140 -0.2064 -0.4149
10917SOL    HW133532   1.829   5.747   1.888 -1.6136  1.0308 -0.5044
10917SOL    HW233533   1.909   5.857   1.953 -0.7445  0.3388 -0.3922
10918SOL     OW33534   5.075   6.759   3.978  0.1530 -0.4076  0.3325
10918SOL    HW133535   5.019   6.830   3.949  0.9148 -0.2909 -0.9704
10918SOL    HW233536   5.039   6.681   3.936  0.9706 -0.3191 -0.5834
10919SOL     OW33537   5.977   1.926   0.339 -0.2764 -0.5904  0.4279
10919SOL    HW133538   6.039   1.975   0.284  0.0382 -1.1188  0.3104
10919SOL    HW233539   6.033   1.883   0.404 -0.6876  0.5697  1.6073
10920SOL     OW33540   5.774   6.267   1.332  0.1609  0.2485  0.0651
10920SOL    HW133541   5.867   6.251   1.344  0.1348 -1.2382 -1.3298
10920SOL    HW233542   5.767   6.361   1.318  1.5896  0.2282 -0.9563
10921SOL     OW33543   1.894   6.725   0.453  0.2867 -0.0098 -0.0905
10921SOL    HW133544   1.872   6.653   0.394  2.4356  0.0309 -1.0363
10921SOL    HW233545   1.833   6.716   0.526  0.6594 -3.0035 -0.0340
10922SOL     OW33546   0.615   4.834   1.813  0.3729 -0.9283  0.7200
10922SOL    HW133547   0.682   4.879   1.761 -0.8415  2.0368  1.5121
10922SOL    HW233548   0.556   4.795   1.748  0.4464  0.2544 -0.0800
10923SOL     OW33549   4.699   7.404   2.113  0.4151 -0.5091 -0.0613
10923SOL    HW133550   4.640   7.412   2.038  0.4272 -0.9656 -0.1227
10923SOL    HW233551   4.697   7.310   2.135 -0.0340 -0.2867  0.8746
10924SOL     OW33552   0.907   3.036   4.471  0.5501  0.1975 -0.1332
10924SOL    HW133553   0.834   2.977   4.490  1.0954 -0.1786  0.9214
10924SOL    HW233554   0.926   3.022   4.378 -1.7052  1.4686 -0.8490
10925SOL     OW33555   4.427   1.889   4.977  0.2904 -0.0695 -0.0105
10925SOL    HW133556   4.343   1.858   5.012  1.5826  0.1493  3.6657
10925SOL    HW233557   4.404   1.971   4.932 -1.5132 -0.2067  0.5561
10926SOL     OW33558   7.944   6.235   6.983  0.9071 -0.5878 -0.0942
10926SOL    HW133559   7.946   6.210   6.891 -0.7151 -0.7215 -0.1196
10926SOL    HW233560   8.002   6.172   7.026  0.0777 -1.8498 -0.7460
10927SOL     OW33561   5.384   3.007   6.166  0.6940  0.5958  0.7234
10927SOL    HW133562   5.464   2.955   6.179 -0.3041 -0.9160  1.0806
10927SOL    HW233563   5.377   3.015   6.071  0.9971  0.2921  0.6718
10928SOL     OW33564   5.770   1.925   2.678  0.0192  0.0456 -0.0173
10928SOL    HW133565   5.835   1.897   2.613  1.3609  0.8589  0.9008
10928SOL    HW233566   5.762   1.850   2.737  2.3340  0.8339  1.4714
10929SOL     OW33567   5.817   0.166   3.170  0.2993 -0.0710 -0.4158
10929SOL    HW133568   5.911   0.167   3.188  0.1775 -0.3596  0.2542
10929SOL    HW233569   5.802   0.085   3.123  0.2817 -0.3423  0.0564
10930SOL     OW33570   1.113   1.387   7.805 -0.5042 -0.3802 -0.0647
10930SOL    HW133571   1.043   1.361   7.865 -2.5138 -0.6545 -2.3646
10930SOL    HW233572   1.138   1.306   7.760  0.1503 -0.0005 -0.4034
10931SOL     OW33573   6.222   1.209   4.515 -0.1279  0.4198  0.1056
10931SOL    HW133574   6.280   1.200   4.590 -0.1897  1.2231  0.2523
10931SOL    HW233575   6.257   1.282   4.465 -1.0585  0.9872  0.2498
10932SOL     OW33576   0.369   5.302   4.563 -0.2778 -0.2533 -0.0205
10932SOL    HW133577   0.398   5.220   4.524 -1.2854 -0.0670 -1.2400
10932SOL    HW233578   0.445   5.360   4.556 -0.1326 -0.5236 -0.8635
10933SOL     OW33579   3.234   1.979   2.911 -0.4444  0.3866  0.2445
10933SOL    HW133580   3.317   2.013   2.943 -1.1116  2.5293 -0.1854
10933SOL    HW233581   3.258   1.918   2.841  0.7718  0.2255  0.7803
10934SOL     OW33582   5.542   5.160   5.222  0.2707  0.3573 -0.1369
10934SOL    HW133583   5.570   5.210   5.299 -2.4599  2.3526 -0.3035
10934SOL    HW233584   5.477   5.098   5.256  1.2354 -0.8670 -0.4453
10935SOL     OW33585   2.558   0.029   3.064 -0.3520 -0.2162 -0.0905
10935SOL    HW133586   2.462   0.033   3.059 -0.3356 -1.2469 -1.5533
10935SOL    HW233587   2.576   0.021   3.158 -1.8141 -2.2875  0.0905
10936SOL     OW33588   1.773   1.263   8.039 -0.1736 -0.2564  0.1706
10936SOL    HW133589   1.719   1.246   8.117  0.4451 -1.4001  0.3586
10936SOL    HW233590   1.812   1.179   8.017 -1.4323 -0.3019 -2.2440
10937SOL     OW33591   1.476   2.880   2.687 -0.3183 -0.1415 -0.1511
10937SOL    HW133592   1.528   2.807   2.653 -0.6232 -0.2486 -0.3946
10937SOL    HW233593   1.436   2.919   2.609  0.2409  0.5998 -0.0717
10938SOL     OW33594   7.308   3.824   4.500 -0.5151 -0.1258 -0.3403
10938SOL    HW133595   7.304   3.914   4.531 -3.0086 -0.4504  0.4669
10938SOL    HW233596   7.399   3.798   4.513 -0.6145  0.9318  3.4376
10939SOL     OW33597   3.429   1.792   6.466  0.3084 -0.1929  0.3879
10939SOL    HW133598   3.474   1.717   6.427 -0.5563  0.2675 -1.6505
10939SOL    HW233599   3.482   1.867   6.440  1.5936 -0.0515  3.0487
10940SOL     OW33600   2.771   0.477   1.190  0.1316 -0.2049  0.1754
10940SOL    HW133601   2.764   0.381   1.195  0.2702 -0.1871  0.7037
10940SOL    HW233602   2.816   0.492   1.107  0.3114 -0.6083  0.1949
10941SOL     OW33603   4.478   5.620   3.605  0.5885  0.1602  0.1647
10941SOL    HW133604   4.416   5.628   3.677  1.2481  1.0803  0.6522
10941SOL    HW233605   4.524   5.537   3.621  2.9473  1.7788  2.6627
10942SOL     OW33606   4.941   7.862   5.256  0.2243 -0.6067 -0.2849
10942SOL    HW133607   4.888   7.934   5.289  0.6470 -0.2045 -0.4659
10942SOL    HW233608   4.908   7.785   5.302 -0.0816 -0.2633  0.0839
10943SOL     OW33609   2.346   7.788   2.475  0.0522 -0.1795  0.2156
10943SOL    HW133610   2.407   7.719   2.501  0.8493  0.0540 -0.9437
10943SOL    HW233611   2.324   7.833   2.556 -1.1042 -2.2559  1.1345
10944SOL     OW33612   7.625   1.585   1.104 -0.2657  0.6055  0.0841
10944SOL    HW133613   7.575   1.601   1.184  0.4396 -0.2111  0.7207
10944SOL    HW233614   7.569   1.529   1.051 -1.4925  2.6294 -0.8295
10945SOL     OW33615   0.667   1.313   6.629 -0.4414  0.0972 -0.1068
10945SOL    HW133616   0.751   1.315   6.675 -1.8166  0.3162  2.5600
10945SOL    HW233617   0.621   1.238   6.666 -1.8571  0.6426 -0.7034
10946SOL     OW33618   7.283   7.675   5.970 -0.1772  0.1273 -0.4148
10946SOL    HW133619   7.284   7.640   6.059  1.3864 -0.7228 -0.7275
10946SOL    HW233620   7.251   7.602   5.917 -1.7070  0.8277 -0.5213
10947SOL     OW33621   4.552   3.158   3.713  0.5268 -0.1092  0.1283
10947SOL    HW133622   4.635   3.204   3.727 -0.4459  2.2719 -1.4046
10947SOL    HW233623   4.502   3.215   3.655 -1.9223 -1.8292  0.3967
10948SOL     OW33624   3.799   1.246   4.795  0.5878 -0.6662  0.3675
10948SOL    HW133625   3.796   1.308   4.868 -0.4327 -2.5445  1.9943
10948SOL    HW233626   3.785   1.160   4.835 -0.0172 -1.7753 -2.0341
10949SOL     OW33627   5.933   6.554   6.965  0.1355  0.2764 -0.9602
10949SOL    HW133628   5.966   6.643   6.960  0.4862  0.1889 -0.1980
10949SOL    HW233629   5.999   6.501   6.920 -0.1986  0.4202 -1.6464
10950SOL     OW33630   0.713   6.354   2.178  0.3790  0.5647 -0.0218
10950SOL    HW133631   0.761   6.375   2.258  1.1426  1.0348 -0.5902
10950SOL    HW233632   0.642   6.419   2.175 -0.3026 -0.1017  0.7931
10951SOL     OW33633   6.278   4.623   3.345 -0.1723 -0.1025 -0.1005
10951SOL    HW133634   6.360   4.646   3.300 -0.6523  1.0488 -0.4222
10951SOL    HW233635   6.209   4.650   3.285 -0.8065 -1.4743 -0.0245
10952SOL     OW33636   2.269   8.194   3.706 -0.0778 -0.4074 -0.0185
10952SOL    HW133637   2.253   8.126   3.641  1.2260 -0.8355  0.0768
10952SOL    HW233638   2.186   8.241   3.714 -0.6101 -1.1577 -1.0497
10953SOL     OW33639   5.255   1.364   6.313 -0.4335 -0.1146 -0.0941
10953SOL    HW133640   5.287   1.275   6.320  2.3122  0.7154 -0.7976
10953SOL    HW233641   5.233   1.375   6.220  2.1639  0.7443 -0.6887
10954SOL     OW33642   6.622   0.702   4.915 -0.3712  0.8349 -0.5270
10954SOL    HW133643   6.561   0.726   4.985 -1.7373 -1.6334 -0.7489
10954SOL    HW233644   6.681   0.638   4.955  0.4778  1.2794 -1.0149
10955SOL     OW33645   8.134   0.935   6.683  0.8818 -0.0849 -0.2629
10955SOL    HW133646   8.217   0.927   6.636 -0.2295 -0.8381 -2.1972
10955SOL    HW233647   8.113   1.029   6.681  0.8447 -0.1102 -1.3127
10956SOL     OW33648   0.935   4.618   3.139  0.2367  0.1525  0.2185
10956SOL    HW133649   0.983   4.647   3.061  0.0017 -0.8654 -0.3126
10956SOL    HW233650   0.999   4.624   3.210  0.7552  0.0785 -0.2395
10957SOL     OW33651   3.363   0.434   6.051 -0.2579  0.3750 -0.1348
10957SOL    HW133652   3.450   0.461   6.023  0.5356 -1.3175  0.5754
10957SOL    HW233653   3.305   0.504   6.020  1.6463  3.0180  1.8630
10958SOL     OW33654   5.384   3.701   5.784  0.0001 -0.9199  0.4302
10958SOL    HW133655   5.463   3.729   5.830  0.2215 -0.7660 -0.0308
10958SOL    HW233656   5.364   3.774   5.725  0.1796 -1.4472 -0.2909
10959SOL     OW33657   0.202   4.152   0.088 -0.0146  0.3209  0.3882
10959SOL    HW133658   0.258   4.221   0.052  1.7032 -2.3559 -2.6982
10959SOL    HW233659   0.254   4.114   0.159  1.3439 -0.8289 -1.1303
10960SOL     OW33660   7.343   5.692   6.222 -0.1173  0.2380  0.1796
10960SOL    HW133661   7.262   5.643   6.234  0.1422 -0.3174 -0.3183
10960SOL    HW233662   7.376   5.706   6.310 -2.1599  2.8861  0.6614
10961SOL     OW33663   7.399   5.990   5.950 -0.2331  0.0419  0.0983
10961SOL    HW133664   7.493   5.973   5.959 -0.3697 -0.3505  0.7982
10961SOL    HW233665   7.395   6.080   5.918  0.4064 -0.2538 -0.8692
10962SOL     OW33666   1.333   8.010   6.430 -0.0641  0.3811  0.0262
10962SOL    HW133667   1.361   7.970   6.512 -1.1620 -0.3707  0.0536
10962SOL    HW233668   1.280   7.943   6.388 -0.1140  1.0251 -0.9663
10963SOL     OW33669   1.652   7.965   1.106 -0.3055  0.3360  0.2801
10963SOL    HW133670   1.637   8.011   1.023  1.1173  1.9413  0.8461
10963SOL    HW233671   1.737   7.924   1.095 -0.2989  0.2071  0.7902
10964SOL     OW33672   6.826   5.650   4.746  0.3929 -0.0325  0.3201
10964SOL    HW133673   6.857   5.604   4.668  0.4869 -0.0164  0.3478
10964SOL    HW233674   6.771   5.721   4.712  0.7574  0.2174  0.2552
10965SOL     OW33675   6.311   7.973   3.076 -0.2039 -1.0972  0.2324
10965SOL    HW133676   6.398   7.937   3.057 -0.4198 -1.4369 -0.1197
10965SOL    HW233677   6.258   7.897   3.099 -0.7168 -1.0399 -0.7054
10966SOL     OW33678   4.767   2.591   0.167  0.4787  0.3140 -0.6144
10966SOL    HW133679   4.806   2.675   0.189 -0.5303  0.0177  2.7806
10966SOL    HW233680   4.841   2.530   0.164  1.1544  1.1354 -2.6638
10967SOL     OW33681   5.449   7.730   0.113 -0.4621  0.2039  0.0846
10967SOL    HW133682   5.520   7.728   0.048  0.2155 -1.8680  0.8326
10967SOL    HW233683   5.393   7.803   0.084 -0.4184 -0.8593 -3.0485
10968SOL     OW33684   0.992   7.226   5.593  0.1930  0.0097 -0.0623
10968SOL    HW133685   0.975   7.188   5.679  0.8800 -0.4916 -0.1392
10968SOL    HW233686   1.085   7.208   5.577 -0.4522 -2.0281 -1.9356
10969SOL     OW33687   2.594   6.944   5.008  0.2799 -0.3360 -0.3851
10969SOL    HW133688   2.599   6.920   4.916  1.0393  1.8042 -0.9594
10969SOL    HW233689   2.668   6.899   5.049 -0.8840 -2.4603 -0.4549
10970SOL     OW33690   4.111   3.634   8.127  0.4675 -0.0460  0.0345
10970SOL    HW133691   4.095   3.725   8.152 -1.2985 -0.3043 -0.0398
10970SOL    HW233692   4.206   3.629   8.114  0.3874  2.4977 -2.6992
10971SOL     OW33693   7.093   3.538   7.768 -0.1392 -0.4560 -0.2214
10971SOL    HW133694   7.160   3.595   7.806 -0.3371  0.4688 -1.1973
10971SOL    HW233695   7.106   3.546   7.673 -1.3447 -0.5874 -0.4164
10972SOL     OW33696   1.914   1.012   0.640  0.4927  0.1978 -0.1024
10972SOL    HW133697   1.983   0.983   0.701  0.3440 -0.4771 -0.2420
10972SOL    HW233698   1.940   0.973   0.556 -0.3693 -0.5699 -0.0276
10973SOL     OW33699   2.825   5.477   0.990 -0.0892 -0.0799 -0.3308
10973SOL    HW133700   2.862   5.436   0.912 -1.4285 -1.3914 -0.3140
10973SOL    HW233701   2.892   5.539   1.019  1.3098 -1.1010 -1.2921
10974SOL     OW33702   3.327   5.723   2.724 -0.4387 -0.0655  0.0554
10974SOL    HW133703   3.241   5.700   2.760 -0.3218 -0.6629 -0.0327
10974SOL    HW233704   3.339   5.815   2.747 -0.7566 -0.1944  0.7651
10975SOL     OW33705   5.324   5.261   7.013  0.1577 -0.3780  0.9146
10975SOL    HW133706   5.322   5.166   7.006 -3.3934 -0.4249  0.7097
10975SOL    HW233707   5.371   5.290   6.935 -1.7623 -1.9659 -0.9519
10976SOL     OW33708   5.782   7.874   2.927 -0.0675 -0.0770 -0.3062
10976SOL    HW133709   5.782   7.892   3.021  0.2093 -0.5622 -0.2078
10976SOL    HW233710   5.692   7.850   2.907 -0.5948  1.9338 -0.5550
10977SOL     OW33711   2.499   4.307   4.007 -0.5912  0.3216  0.5503
10977SOL    HW133712   2.560   4.376   4.035 -0.5474  0.2451  0.6445
10977SOL    HW233713   2.546   4.225   4.024 -0.3927  0.2872 -0.1612
10978SOL     OW33714   8.006   4.094   5.867  0.1851  0.2392 -0.0551
10978SOL    HW133715   8.009   4.048   5.951  0.8926 -0.6594 -0.5514
10978SOL    HW233716   8.059   4.173   5.880 -0.5756  0.6486  0.6404
10979SOL     OW33717   6.751   3.978   6.449 -0.4918 -0.6225  0.3339
10979SOL    HW133718   6.682   4.041   6.427  0.1040 -0.5009 -1.3068
10979SOL    HW233719   6.716   3.894   6.421 -1.3439 -1.1142  2.6489
10980SOL     OW33720   0.481   4.243   2.597  0.2951 -0.0651  0.0499
10980SOL    HW133721   0.388   4.234   2.577  0.5002 -0.0088 -1.0155
10980SOL    HW233722   0.496   4.338   2.601  0.4664 -0.0594 -0.6281
10981SOL     OW33723   1.963   1.388   4.700 -0.0215  0.2543  0.4107
10981SOL    HW133724   1.907   1.353   4.770 -0.7414  0.4550 -0.0463
10981SOL    HW233725   2.043   1.335   4.704  0.1990  0.6739  1.7757
10982SOL     OW33726   1.580   0.972   0.955 -0.0663  0.8191 -0.4912
10982SOL    HW133727   1.492   1.009   0.952 -0.2337  0.3691 -1.2646
10982SOL    HW233728   1.593   0.949   1.048 -0.4115  1.6977 -0.2158
10983SOL     OW33729   6.451   3.530   3.674  0.6587 -0.6366 -0.0175
10983SOL    HW133730   6.434   3.523   3.768 -0.0739 -0.3032 -0.1214
10983SOL    HW233731   6.494   3.614   3.664  1.0177 -0.8078  0.0524
10984SOL     OW33732   6.136   0.430   8.192 -0.0966  0.4969  0.7964
10984SOL    HW133733   6.098   0.434   8.105  0.0929 -1.7086  0.5541
10984SOL    HW233734   6.203   0.499   8.193 -1.3580  1.7826 -0.1164
10985SOL     OW33735   1.465   2.125   7.147  0.8583  0.0146 -0.8264
10985SOL    HW133736   1.512   2.198   7.187  1.4206 -0.4767 -0.5926
10985SOL    HW233737   1.384   2.118   7.198  0.5748  0.7680 -1.1449
10986SOL     OW33738   1.392   2.935   3.533  0.3343 -0.2012 -0.3417
10986SOL    HW133739   1.386   2.843   3.557  0.8651  0.2038  1.5561
10986SOL    HW233740   1.475   2.944   3.487  0.7945 -0.4963  0.4224
10987SOL     OW33741   3.392   7.665   3.710  0.2100  0.2485 -0.3852
10987SOL    HW133742   3.347   7.705   3.636  2.5494 -1.0874 -2.6878
10987SOL    HW233743   3.472   7.716   3.720 -1.0892  1.8881  2.8964
10988SOL     OW33744   0.556   6.591   4.390 -0.3112  0.8148 -0.2579
10988SOL    HW133745   0.521   6.584   4.301 -1.0158  1.0067 -0.0095
10988SOL    HW233746   0.550   6.684   4.411  0.6855  0.9018 -0.3275
10989SOL     OW33747   3.634   3.891   4.257 -0.2685 -0.0898 -0.2125
10989SOL    HW133748   3.709   3.870   4.201  0.4157  0.9929  0.2693
10989SOL    HW233749   3.625   3.986   4.250 -0.9154 -0.0815  0.6033
10990SOL     OW33750   5.313   2.018   0.843 -0.7015 -0.4195  0.0579
10990SOL    HW133751   5.339   2.010   0.935 -1.8832  0.4415  0.4884
10990SOL    HW233752   5.386   2.063   0.802  0.0615 -1.2617  0.4530
10991SOL     OW33753   6.429   1.611   2.303  0.3078  0.1030  0.3470
10991SOL    HW133754   6.430   1.569   2.217 -0.7536 -1.9076  1.2559
10991SOL    HW233755   6.510   1.582   2.344  1.2600  1.7808 -0.2346
10992SOL     OW33756   7.473   1.676   3.945 -0.4658  0.0478 -0.3129
10992SOL    HW133757   7.500   1.625   4.022  0.9428  1.7618  0.4117
10992SOL    HW233758   7.394   1.722   3.973 -0.9165 -0.6209 -0.4771
10993SOL     OW33759   8.105   5.257   4.221 -0.3396 -0.1858  0.1520
10993SOL    HW133760   8.017   5.283   4.247  0.2340  0.1116  1.9575
10993SOL    HW233761   8.093   5.174   4.175 -1.5643 -0.1308  0.3534
10994SOL     OW33762   1.452   2.393   2.053  0.5567  0.4493 -0.7186
10994SOL    HW133763   1.524   2.336   2.079  0.6220  0.1659 -1.4901
10994SOL    HW233764   1.473   2.419   1.963 -0.3919  0.1928 -1.0298
10995SOL     OW33765   7.318   8.322   0.377 -0.0545  0.0945  0.1825
10995SOL    HW133766   7.400   8.291   0.415 -0.2571 -1.0155 -0.2368
10995SOL    HW233767   7.274   8.369   0.448  1.5901  2.0367  0.0074
10996SOL     OW33768   2.805   2.270   1.165 -0.2566 -0.0596  0.3735
10996SOL    HW133769   2.792   2.235   1.077 -0.8075  0.7451  0.1172
10996SOL    HW233770   2.831   2.195   1.218  0.5679 -0.4607 -0.5825
10997SOL     OW33771   7.659   0.049   0.054  0.1228  0.3848 -0.0304
10997SOL    HW133772   7.602   0.121   0.082  0.4717  1.1533 -1.2075
10997SOL    HW233773   7.599  -0.025   0.043 -0.4856  0.8901 -0.2052
10998SOL     OW33774   7.948   7.230   6.822 -0.7613  0.1013  1.1352
10998SOL    HW133775   7.852   7.230   6.820 -0.7628  0.5915  1.2411
10998SOL    HW233776   7.971   7.137   6.818 -1.2192  0.0166  0.0664
10999SOL     OW33777   3.270   8.288   0.374 -0.2120  0.0306  0.2237
10999SOL    HW133778   3.272   8.257   0.283  3.9287  0.9744 -0.2159
10999SOL    HW233779   3.220   8.221   0.421  0.0111 -2.0603 -2.2830
11000SOL     OW33780   7.429   6.489   1.407  0.0021 -0.3429  0.1342
11000SOL    HW133781   7.417   6.503   1.501 -0.2905  0.5628 -0.0338
11000SOL    HW233782   7.400   6.399   1.392 -1.3491 -0.0166  0.6636
11001SOL     OW33783   0.262   7.085   3.899  0.3252 -0.6290 -0.0399
11001SOL    HW133784   0.301   7.087   3.812  1.1731  1.0652  0.3431
11001SOL    HW233785   0.313   7.147   3.950 -1.1920 -0.3598  1.2320
11002SOL     OW33786   4.698   4.414   5.463 -0.0149 -0.1738  0.4384
11002SOL    HW133787   4.735   4.433   5.377  0.4213 -0.1848  0.6209
11002SOL    HW233788   4.736   4.481   5.520  0.0245 -0.4229  0.7055
11003SOL     OW33789   5.182   6.705   2.233  0.0879 -0.3901 -0.4155
11003SOL    HW133790   5.139   6.741   2.311 -0.6104  0.1340 -1.0202
11003SOL    HW233791   5.272   6.738   2.238  0.5189 -1.6749  0.9802
11004SOL     OW33792   4.665   6.822   0.908  0.2104 -0.2158 -0.1423
11004SOL    HW133793   4.573   6.804   0.927 -0.3005  3.3332  1.6671
11004SOL    HW233794   4.663   6.906   0.861  2.5121 -0.3928 -0.6643
11005SOL     OW33795   7.372   5.299   7.180  0.1373  0.7345  0.4565
11005SOL    HW133796   7.308   5.357   7.138 -2.4203 -1.5174  0.9775
11005SOL    HW233797   7.420   5.260   7.106 -0.9578  0.4729 -0.1461
11006SOL     OW33798   4.437   0.931   0.046  0.1449  0.6956  0.1753
11006SOL    HW133799   4.398   0.900   0.128  0.1176 -3.1041 -1.0716
11006SOL    HW233800   4.363   0.954  -0.009  0.0806  1.4353  0.5610
11007SOL     OW33801   2.108   1.501   2.634 -0.3972 -0.5351  0.6825
11007SOL    HW133802   2.052   1.510   2.711 -1.6615 -1.4791 -0.0948
11007SOL    HW233803   2.197   1.495   2.670 -0.6506  1.7390  1.8972
11008SOL     OW33804   1.599   1.624   6.961  0.3813 -0.0727 -0.0598
11008SOL    HW133805   1.651   1.557   6.917 -0.7027 -0.5345 -0.6881
11008SOL    HW233806   1.514   1.583   6.975  0.3497  0.4688  1.4716
11009SOL     OW33807   3.115   8.245   6.720  0.2393  0.8324  0.0729
11009SOL    HW133808   3.113   8.304   6.795 -0.5898  1.2986 -0.3018
11009SOL    HW233809   3.099   8.302   6.645  1.6414  0.4633 -0.5289
11010SOL     OW33810   7.423   1.565   7.941  0.4885  0.0228  0.0524
11010SOL    HW133811   7.483   1.603   8.006 -0.0517  0.9011  0.0537
11010SOL    HW233812   7.457   1.596   7.857  0.8624 -0.6587 -0.0555
11011SOL     OW33813   0.864   5.636   2.155 -0.8221  0.3903  0.3491
11011SOL    HW133814   0.956   5.658   2.145 -0.7381  0.3298  0.9474
11011SOL    HW233815   0.818   5.720   2.145 -0.5070  0.8951  2.5460
11012SOL     OW33816   0.904   4.110   6.924 -0.0383  0.0454 -0.1221
11012SOL    HW133817   0.888   4.183   6.863  0.3720  1.0369  0.9321
11012SOL    HW233818   0.886   4.032   6.872 -2.2650  0.9138 -0.7874
11013SOL     OW33819   4.558   0.310   3.976 -0.8157 -0.2980 -0.2392
11013SOL    HW133820   4.627   0.333   3.915 -0.6202 -2.0444 -0.7348
11013SOL    HW233821   4.496   0.259   3.923 -0.7120 -1.7229  0.9687
11014SOL     OW33822   5.205   1.232   6.067  0.1147 -0.1113 -0.1450
11014SOL    HW133823   5.255   1.163   6.110  0.2412 -0.2350 -0.4902
11014SOL    HW233824   5.244   1.241   5.981  0.3300  0.6470  0.0225
11015SOL     OW33825   6.748   4.986   5.066  0.2614 -0.4296 -0.1909
11015SOL    HW133826   6.777   5.075   5.081 -2.3330  0.6587 -1.0220
11015SOL    HW233827   6.783   4.936   5.140  1.6654  1.2810  0.3444
11016SOL     OW33828   7.132   2.016   0.936 -0.3199  0.1898  0.4159
11016SOL    HW133829   7.129   2.059   0.851  2.7025 -0.7270 -0.2668
11016SOL    HW233830   7.100   1.928   0.920  0.1830  0.0388  0.2389
11017SOL     OW33831   1.643   3.916   2.684  0.5438 -0.4344 -0.7943
11017SOL    HW133832   1.716   3.946   2.738  0.1400  0.8529 -0.9302
11017SOL    HW233833   1.597   3.852   2.739  1.6115 -1.0520 -0.6089
11018SOL     OW33834   3.976   7.677   5.059 -0.3724  0.3379 -0.0269
11018SOL    HW133835   4.011   7.592   5.086 -0.2735 -0.2944 -1.9761
11018SOL    HW233836   4.023   7.741   5.113 -0.3527 -0.8222  1.3831
11019SOL     OW33837   2.850   6.903   3.376 -0.4087  0.6269 -0.9504
11019SOL    HW133838   2.793   6.972   3.342 -1.1319 -0.2327 -1.5251
11019SOL    HW233839   2.898   6.871   3.299  0.3996  0.9131 -0.5792
11020SOL     OW33840   0.367   6.076   6.962 -0.1068  0.7952  0.3401
11020SOL    HW133841   0.377   5.997   6.908 -1.3072  0.2906  0.8096
11020SOL    HW233842   0.422   6.142   6.920 -2.7034  1.1385 -2.9261
11021SOL     OW33843   6.716   1.859   8.081 -0.3659  0.4383  0.6265
11021SOL    HW133844   6.622   1.872   8.068 -0.3639 -0.2238 -0.1540
11021SOL    HW233845   6.723   1.778   8.131 -0.1701 -0.5461 -0.9452
11022SOL     OW33846   4.735   6.048   5.978 -0.2497 -0.1932 -0.7414
11022SOL    HW133847   4.825   6.072   6.000 -0.1873 -0.7868 -0.3291
11022SOL    HW233848   4.686   6.130   5.986  0.3603  0.2635 -1.5675
11023SOL     OW33849   5.501   7.844   4.082  0.2960 -0.6249 -0.7220
11023SOL    HW133850   5.423   7.813   4.128  1.5721 -1.1657  1.2005
11023SOL    HW233851   5.556   7.882   4.150  2.6006 -2.1089 -1.6084
11024SOL     OW33852   2.361   2.282   0.597  0.8962 -0.5583 -0.0927
11024SOL    HW133853   2.457   2.281   0.595  0.9184  0.7807 -0.6780
11024SOL    HW233854   2.340   2.318   0.683  0.9433  0.0093 -0.3136
11025SOL     OW33855   6.582   0.965   5.257 -0.7035 -0.5078  0.2097
11025SOL    HW133856   6.608   1.051   5.290 -0.7906 -0.8254  1.1193
11025SOL    HW233857   6.662   0.927   5.222 -0.3883 -0.6024  1.0259
11026SOL     OW33858   0.160   0.803   7.007 -0.5379 -0.5052 -0.2105
11026SOL    HW133859   0.078   0.807   6.959 -0.9228 -0.0085  0.4703
11026SOL    HW233860   0.202   0.887   6.989 -0.4927 -0.4869 -0.0283
11027SOL     OW33861   2.803   2.949   3.985 -0.2328 -0.2451 -0.5751
11027SOL    HW133862   2.872   2.956   4.051 -1.9840  0.1241  1.3198
11027SOL    HW233863   2.817   3.026   3.928  0.3493  0.3485  0.3441
11028SOL     OW33864   3.933   3.129   6.842  0.4807 -0.0512  0.0930
11028SOL    HW133865   3.849   3.109   6.803 -0.3092  1.4043  0.9717
11028SOL    HW233866   3.917   3.126   6.937  1.3486  0.4675  0.2716
11029SOL     OW33867   5.175   2.206   2.446  0.5467  0.8454 -0.0472
11029SOL    HW133868   5.227   2.224   2.367  0.4629  0.0604 -0.2841
11029SOL    HW233869   5.156   2.293   2.481 -1.1314  1.3350 -1.9789
11030SOL     OW33870   6.975   7.682   4.883  0.2132 -0.1687  0.2706
11030SOL    HW133871   6.921   7.719   4.953 -0.3747  2.2013 -1.3194
11030SOL    HW233872   7.064   7.709   4.906 -0.0469  1.1203 -0.1358
11031SOL     OW33873   1.106   4.724   8.231 -0.0208  0.3358  0.4511
11031SOL    HW133874   1.172   4.743   8.164  1.1106 -1.3932  1.0139
11031SOL    HW233875   1.101   4.629   8.233 -1.3984  0.4032  1.5443
11032SOL     OW33876   7.817   1.635   3.634  0.1718  0.1510  0.3028
11032SOL    HW133877   7.815   1.721   3.592  0.0586 -0.4556 -0.9887
11032SOL    HW233878   7.738   1.591   3.603  0.5826 -0.6722  0.3915
11033SOL     OW33879   1.464   3.067   0.107  0.3098  0.1335 -0.4970
11033SOL    HW133880   1.523   3.018   0.164  1.1974  0.1840 -1.3488
11033SOL    HW233881   1.444   3.007   0.035 -0.7579  0.0875 -0.1873
11034SOL     OW33882   6.185   4.888   6.704  0.5259  0.2457 -0.4627
11034SOL    HW133883   6.175   4.857   6.614  0.6328 -3.2586  0.5943
11034SOL    HW233884   6.095   4.906   6.733  0.1095 -1.7919 -0.3396
11035SOL     OW33885   0.636   0.351   5.199 -0.0844  0.6032 -0.7695
11035SOL    HW133886   0.664   0.292   5.269 -3.3782 -2.2487 -1.5972
11035SOL    HW233887   0.688   0.325   5.123 -1.6608 -1.5318 -1.1842
11036SOL     OW33888   2.760   5.799   6.321 -0.1131 -0.5151  0.1165
11036SOL    HW133889   2.705   5.869   6.358 -0.6586 -0.7843 -0.1724
11036SOL    HW233890   2.698   5.740   6.279  0.3424 -1.1914  0.3780
11037SOL     OW33891   4.567   2.727   3.705 -0.0335 -0.5307 -0.0953
11037SOL    HW133892   4.496   2.773   3.661  1.8266  1.0340 -1.6574
11037SOL    HW233893   4.524   2.667   3.765 -2.6400  0.3886 -0.9381
11038SOL     OW33894   5.566   3.087   4.001 -0.2392 -0.4478  0.1407
11038SOL    HW133895   5.642   3.029   3.996 -0.0112 -0.1351 -0.0197
11038SOL    HW233896   5.525   3.064   4.085  1.0356  0.6061  1.0967
11039SOL     OW33897   5.330   3.781   5.316  0.3836  0.0063 -0.2329
11039SOL    HW133898   5.416   3.739   5.306  1.3367  1.6966  0.3160
11039SOL    HW233899   5.326   3.804   5.409 -0.2109  0.8436 -0.4582
11040SOL     OW33900   2.661   8.009   1.535  0.7189 -0.0843 -0.3349
11040SOL    HW133901   2.566   8.016   1.548  0.5968 -1.1915 -0.4996
11040SOL    HW233902   2.693   7.969   1.616  0.8171 -1.1685 -0.8889
11041SOL     OW33903   4.271   0.089   5.709 -0.2768 -0.4173  0.3826
11041SOL    HW133904   4.196   0.076   5.652  0.1764  0.6371 -0.5062
11041SOL    HW233905   4.308   0.002   5.721 -1.5431 -0.9220  0.7178
11042SOL     OW33906   0.459   4.405   5.066  0.2222 -0.0366  0.0133
11042SOL    HW133907   0.445   4.459   5.144  1.2354  1.8736 -1.0493
11042SOL    HW233908   0.544   4.364   5.080  0.1670 -0.1065  0.1417
11043SOL     OW33909   2.796   4.902   5.449 -0.9537  0.0029  0.2167
11043SOL    HW133910   2.738   4.848   5.502 -2.6394  0.3688 -1.1914
11043SOL    HW233911   2.755   4.988   5.449 -0.9141  0.0471 -1.5475
11044SOL     OW33912   1.674   4.836   5.673 -0.7041  0.3112  0.0685
11044SOL    HW133913   1.766   4.854   5.654 -0.2093  0.7552  2.5570
11044SOL    HW233914   1.645   4.781   5.600  1.0138  1.5931 -1.6797
11045SOL     OW33915   3.834   2.123   0.040  0.3980 -0.2416  0.2178
11045SOL    HW133916   3.789   2.190  -0.012  0.7603  0.8230  1.2283
11045SOL    HW233917   3.916   2.164   0.066  1.6054 -1.8575 -0.8730
11046SOL     OW33918   1.776   0.704   1.152 -0.1552 -0.0744  0.3321
11046SOL    HW133919   1.833   0.630   1.172 -1.3079 -1.3462 -0.8870
11046SOL    HW233920   1.753   0.692   1.060 -2.4080  0.3520  0.7824
11047SOL     OW33921   3.522   3.698   7.431 -0.2744  0.8870 -0.1626
11047SOL    HW133922   3.477   3.686   7.347  0.0478 -1.7306 -0.0595
11047SOL    HW233923   3.457   3.671   7.496  0.5993 -0.6270  0.1372
11048SOL     OW33924   0.051   2.218   2.006 -0.0377  0.4754 -0.0580
11048SOL    HW133925   0.027   2.298   2.053 -1.2101  0.3124 -0.3323
11048SOL    HW233926   0.117   2.176   2.060 -1.4557  0.2109  1.5438
11049SOL     OW33927   0.981   5.785   7.295  0.4477 -0.2467 -0.6441
11049SOL    HW133928   0.886   5.773   7.306  0.6801 -0.0842  2.2226
11049SOL    HW233929   1.020   5.706   7.332  1.4763  1.8475  3.4171
11050SOL     OW33930   5.885   6.889   1.322  0.1091 -0.4108 -0.9308
11050SOL    HW133931   5.794   6.914   1.340  0.1064 -0.0835 -1.3645
11050SOL    HW233932   5.886   6.873   1.227  0.3095 -1.2543 -0.7929
11051SOL     OW33933   0.287   3.941   3.536 -0.4013  0.1720  0.3482
11051SOL    HW133934   0.365   3.893   3.564  0.1357 -0.3352 -1.7626
11051SOL    HW233935   0.271   4.005   3.605  2.7889  1.3006  0.2201
11052SOL     OW33936   0.895   4.722   0.690 -0.3179  0.0931  0.0620
11052SOL    HW133937   0.819   4.687   0.736 -1.1184  0.0718 -1.2301
11052SOL    HW233938   0.950   4.646   0.674 -1.0687 -0.2795 -0.8912
11053SOL     OW33939   6.101   0.072   5.887 -0.2600 -0.0588  0.3240
11053SOL    HW133940   6.155   0.149   5.906 -1.2897  0.2270  2.3280
11053SOL    HW233941   6.155  -0.002   5.915  0.3721 -0.0290 -0.7646
11054SOL     OW33942   2.353   7.204   8.203  0.5619 -0.4696  0.4589
11054SOL    HW133943   2.440   7.227   8.234  1.1589 -0.5643 -1.0652
11054SOL    HW233944   2.367   7.128   8.146 -0.7928 -1.8510  1.8700
11055SOL     OW33945   2.313   3.942   6.425 -0.2583  0.0021  0.2723
11055SOL    HW133946   2.272   4.027   6.412 -0.3563  0.2314  1.8024
11055SOL    HW233947   2.305   3.926   6.520  2.4490 -0.3107  0.5375
11056SOL     OW33948   6.349   4.607   0.244 -0.1488  0.8492 -0.2362
11056SOL    HW133949   6.340   4.702   0.245 -0.2597  0.8494 -0.6850
11056SOL    HW233950   6.398   4.586   0.323 -2.3301  1.0363  1.2274
11057SOL     OW33951   2.084   3.343   0.762  0.1525  0.3447  0.0509
11057SOL    HW133952   2.139   3.279   0.717 -0.6086  0.9155 -1.7673
11057SOL    HW233953   2.080   3.418   0.702 -2.0842  0.5721  0.3974
11058SOL     OW33954   3.552   0.631   4.361 -0.3752  0.1406 -0.3565
11058SOL    HW133955   3.481   0.577   4.324  0.2128 -0.5109 -0.5548
11058SOL    HW233956   3.627   0.615   4.304  0.1868  0.1224  0.3669
11059SOL     OW33957   6.203   5.592   7.774  0.4428 -0.3230  0.2087
11059SOL    HW133958   6.156   5.513   7.746 -0.0705  0.2728 -0.6647
11059SOL    HW233959   6.265   5.609   7.703 -0.6749  1.0422 -0.4968
11060SOL     OW33960   4.043   0.077   3.643 -0.4122  0.0008 -0.3921
11060SOL    HW133961   4.047  -0.019   3.648 -1.0212 -0.0907 -1.3120
11060SOL    HW233962   3.949   0.097   3.644 -0.2905  0.5745 -0.3723
11061SOL     OW33963   7.613   3.199   3.093 -0.3947  0.2450 -0.6509
11061SOL    HW133964   7.669   3.276   3.104 -0.6630  0.5888 -1.5736
11061SOL    HW233965   7.657   3.147   3.024 -0.3133 -0.3412 -0.1673
11062SOL     OW33966   3.499   3.508   4.565 -0.2364 -0.2401 -0.0259
11062SOL    HW133967   3.518   3.415   4.574  0.3464 -0.0880  0.3269
11062SOL    HW233968   3.460   3.534   4.648  0.1723 -0.0340  0.1038
11063SOL     OW33969   8.040   7.585   0.879 -0.2021 -0.2571 -0.2917
11063SOL    HW133970   8.087   7.626   0.807 -0.2046 -0.5126 -0.4395
11063SOL    HW233971   8.104   7.584   0.951 -0.0226 -0.4858 -0.4529
11064SOL     OW33972   3.394   5.059   5.065 -0.2477 -0.1021  0.1207
11064SOL    HW133973   3.327   5.119   5.033 -1.1020  0.0757  2.1122
11064SOL    HW233974   3.476   5.109   5.057 -0.8062  0.9481  0.7855
11065SOL     OW33975   0.819   6.077   4.863  0.7843  0.3956  0.2349
11065SOL    HW133976   0.753   6.146   4.856  0.7787  0.5305  1.4096
11065SOL    HW233977   0.771   6.001   4.896  0.9348  0.0544 -0.3270
11066SOL     OW33978   7.778   6.778   5.254 -0.1437  0.3519  0.1648
11066SOL    HW133979   7.748   6.688   5.243  1.2596 -0.4020  2.0165
11066SOL    HW233980   7.835   6.793   5.178 -0.5760 -0.2355 -0.2834
11067SOL     OW33981   7.626   0.325   4.719  0.0196  0.2773 -0.1414
11067SOL    HW133982   7.543   0.345   4.761 -0.5740 -2.1938  0.0297
11067SOL    HW233983   7.611   0.341   4.626 -0.3033  0.8193  0.0021
11068SOL     OW33984   4.991   1.534   6.363 -0.1538  0.3779 -1.1229
11068SOL    HW133985   4.996   1.621   6.402 -1.1664  0.3006 -0.7781
11068SOL    HW233986   5.079   1.498   6.371  0.0107  0.9574 -0.2874
11069SOL     OW33987   2.905   4.555   1.484 -0.1034 -0.0077 -0.1996
11069SOL    HW133988   2.980   4.514   1.441 -0.4422 -0.6638 -0.1637
11069SOL    HW233989   2.844   4.484   1.500 -0.7707  0.5415 -0.2892
11070SOL     OW33990   4.863   7.188   3.952 -0.7158  0.8652 -0.0648
11070SOL    HW133991   4.930   7.154   3.893 -1.6131 -0.6161 -0.2919
11070SOL    HW233992   4.808   7.244   3.896 -1.8217 -0.8758 -0.8300
11071SOL     OW33993   6.349   2.411   4.426  0.1212 -0.0342  0.2471
11071SOL    HW133994   6.438   2.420   4.460 -0.5215  1.7173  1.5814
11071SOL    HW233995   6.294   2.457   4.488 -1.8426 -1.5735 -0.2349
11072SOL     OW33996   7.408   5.317   6.236  0.8255 -0.0968 -0.5547
11072SOL    HW133997   7.438   5.352   6.320  1.3962 -0.6426 -0.5195
11072SOL    HW233998   7.404   5.222   6.250  0.6379 -0.1656 -1.0537
11073SOL     OW33999   1.695   3.224   5.886 -0.1956 -0.1468 -0.3139
11073SOL    HW134000   1.697   3.303   5.831  3.0131  0.9891  1.2064
11073SOL    HW234001   1.630   3.244   5.953  0.6653  1.3361  0.1312
11074SOL     OW34002   8.254   6.956   7.313  0.5303  0.1482  0.3135
11074SOL    HW134003   8.186   6.897   7.280  0.8413 -0.6049  0.9740
11074SOL    HW234004   8.248   7.033   7.257  0.2739 -0.6064 -0.7445
11075SOL     OW34005   7.921   4.825   5.992 -0.1713  0.3318  0.4871
11075SOL    HW134006   7.895   4.745   5.948 -0.3586 -0.0367  1.2493
11075SOL    HW234007   7.844   4.882   5.987  0.0308  0.5459 -0.2305
11076SOL     OW34008   3.989   5.769   0.384  0.1488 -0.2066  0.2939
11076SOL    HW134009   3.972   5.845   0.328 -0.3392 -0.8072 -0.4108
11076SOL    HW234010   4.084   5.758   0.383  0.1161 -0.5544 -0.9243
11077SOL     OW34011   8.092   7.937   1.075  0.1670  1.0357  0.2578
11077SOL    HW134012   8.179   7.951   1.037 -0.3879  1.9714 -0.7172
11077SOL    HW234013   8.034   7.925   1.000 -0.6790  1.1950  0.8697
11078SOL     OW34014   2.131   4.896   2.953  0.3280 -0.5526 -0.0927
11078SOL    HW134015   2.054   4.885   2.896 -0.1833 -2.0354  0.8180
11078SOL    HW234016   2.205   4.902   2.893 -0.6325  3.3157 -1.1173
11079SOL     OW34017   5.072   2.689   1.860 -0.8344  0.5212  0.0256
11079SOL    HW134018   5.131   2.764   1.864 -0.8046  0.5080 -0.1391
11079SOL    HW234019   5.116   2.627   1.801 -0.1362 -0.2698  1.3188
11080SOL     OW34020   5.365   3.975   3.621  0.1525 -0.4515  0.1394
11080SOL    HW134021   5.394   4.047   3.564 -2.5499  0.0572 -0.7187
11080SOL    HW234022   5.341   3.905   3.561 -1.6735 -0.3132  0.6512
11081SOL     OW34023   1.469   4.863   6.444 -0.4275 -0.4202 -0.1726
11081SOL    HW134024   1.486   4.791   6.504 -0.9309 -1.0190 -0.7380
11081SOL    HW234025   1.445   4.821   6.361 -2.1467  0.3617 -0.1192
11082SOL     OW34026   4.411   5.940   4.723 -0.1843  0.1391  0.1891
11082SOL    HW134027   4.488   5.886   4.738 -0.6483 -0.2392  1.3377
11082SOL    HW234028   4.414   5.962   4.630 -0.0483 -1.9981 -0.3627
11083SOL     OW34029   0.707   7.699   6.772 -0.3630  0.7715  0.3655
11083SOL    HW134030   0.727   7.623   6.826  0.2711  0.7919  0.1595
11083SOL    HW234031   0.768   7.695   6.699 -1.5533  0.4587 -0.6572
11084SOL     OW34032   4.995   5.483   1.932 -0.1768 -0.2072  0.2412
11084SOL    HW134033   4.921   5.519   1.981 -0.7484 -0.4187 -0.4645
11084SOL    HW234034   4.979   5.508   1.841  0.4284 -0.5688  0.0286
11085SOL     OW34035   7.059   7.213   7.811 -0.3811 -0.5452  0.0813
11085SOL    HW134036   6.973   7.252   7.825 -0.2592  1.3718 -3.5278
11085SOL    HW234037   7.115   7.256   7.876 -1.9482 -1.5953  2.2782
11086SOL     OW34038   0.034   2.872   1.770 -0.2212 -0.3930  0.0750
11086SOL    HW134039  -0.051   2.885   1.811 -0.2183 -0.4414  0.0971
11086SOL    HW234040   0.083   2.818   1.832 -0.3351 -0.7525 -0.1459
11087SOL     OW34041   1.585   1.622   5.544  0.0863 -0.2150  0.2908
11087SOL    HW134042   1.491   1.615   5.530 -0.0380  1.3374  0.2668
11087SOL    HW234043   1.612   1.699   5.494  1.0765  0.3310  1.6023
11088SOL     OW34044   2.473   5.227   3.754 -0.0368 -0.0644 -0.4883
11088SOL    HW134045   2.419   5.305   3.744 -0.5817 -0.2472  0.8511
11088SOL    HW234046   2.507   5.210   3.666 -1.7089  0.3791 -1.2563
11089SOL     OW34047   7.492   8.289   0.892 -0.4327 -0.3099  0.1943
11089SOL    HW134048   7.529   8.358   0.837 -0.7193  0.0104  0.3983
11089SOL    HW234049   7.459   8.224   0.830 -0.7172  0.0290 -0.0091
11090SOL     OW34050   2.977   5.180   4.141 -0.0605  0.1790  0.0347
11090SOL    HW134051   2.924   5.157   4.217 -1.1966 -0.1112 -0.8007
11090SOL    HW234052   2.944   5.266   4.114 -0.8446 -0.4516 -1.0947
11091SOL     OW34053   3.205   2.748   3.379  0.1730  0.0260 -0.1626
11091SOL    HW134054   3.272   2.783   3.320  1.6139 -0.1517  1.2967
11091SOL    HW234055   3.247   2.747   3.465 -1.3226 -1.1766  0.6032
11092SOL     OW34056   4.186   7.082   1.997  0.5644 -0.1997  0.2054
11092SOL    HW134057   4.097   7.052   1.979  0.3823 -0.5048  1.5096
11092SOL    HW234058   4.242   7.017   1.954  0.1822  0.3581 -1.1889
11093SOL     OW34059   1.367   7.477   2.054  0.0641  0.8831 -0.4492
11093SOL    HW134060   1.290   7.463   2.108  1.0607 -0.1680  0.7524
11093SOL    HW234061   1.435   7.507   2.115  1.6775 -1.8556 -0.7252
11094SOL     OW34062   4.187   2.848   6.508  0.2129  0.2371 -0.3158
11094SOL    HW134063   4.189   2.928   6.561 -1.6093  1.5716 -2.1046
11094SOL    HW234064   4.199   2.878   6.418  1.1403 -1.7295 -0.9044
11095SOL     OW34065   4.363   5.224   8.287  0.1517 -0.3931  0.0209
11095SOL    HW134066   4.280   5.224   8.334  0.6598 -0.3125  0.9333
11095SOL    HW234067   4.400   5.137   8.304  0.8746  0.0461  0.7513
11096SOL     OW34068   1.650   4.334   1.627 -0.6823  0.1675  0.1233
11096SOL    HW134069   1.587   4.331   1.555  0.1786 -0.6651 -0.6193
11096SOL    HW234070   1.600   4.370   1.701 -1.5080  1.2875 -0.9442
11097SOL     OW34071   1.934   7.377   2.229 -0.1285  0.5619  1.1117
11097SOL    HW134072   1.909   7.458   2.184 -0.7868  1.1983  2.5883
11097SOL    HW234073   1.855   7.349   2.274 -0.8201 -2.5837 -1.7193
11098SOL     OW34074   0.729   0.291   0.821  0.1768  0.3141  0.0835
11098SOL    HW134075   0.770   0.318   0.903  1.2222 -1.0819  0.0727
11098SOL    HW234076   0.667   0.222   0.847  0.9301 -0.5365 -0.3410
11099SOL     OW34077   3.554   3.299   6.094  0.0923  0.5142  0.1724
11099SOL    HW134078   3.564   3.336   6.006  1.1391  0.6478  0.3333
11099SOL    HW234079   3.461   3.313   6.115 -0.2471  0.2081 -1.0190
11100SOL     OW34080   4.705   6.236   3.524  0.8271  0.1260 -0.2264
11100SOL    HW134081   4.686   6.246   3.431  1.6325 -1.4705 -0.5917
11100SOL    HW234082   4.626   6.196   3.560  1.4011 -1.5150 -0.7154
11101SOL     OW34083   6.269   2.338   2.128 -0.1771  0.3448  0.0306
11101SOL    HW134084   6.347   2.284   2.136 -1.0355 -0.7629  1.6665
11101SOL    HW234085   6.300   2.427   2.142  0.9405  0.0575 -0.4873
11102SOL     OW34086   6.120   7.092   8.289  0.0309  0.1043 -0.3565
11102SOL    HW134087   6.132   7.126   8.378 -1.6890  1.7189 -0.6687
11102SOL    HW234088   6.189   7.135   8.238 -0.7332  1.4531 -0.3056
11103SOL     OW34089   6.316   7.901   1.826  0.2043 -0.3388  0.2171
11103SOL    HW134090   6.294   7.994   1.817 -1.0720 -0.5234  1.1907
11103SOL    HW234091   6.363   7.895   1.909  0.5325 -0.5310  0.0212
11104SOL     OW34092   5.315   0.610   6.870 -0.2630 -0.1171 -0.5559
11104SOL    HW134093   5.271   0.574   6.793 -1.1275  0.9230 -0.5586
11104SOL    HW234094   5.283   0.700   6.877  1.1914  0.3889 -0.0360
11105SOL     OW34095   3.066   4.399   7.182 -0.3233  0.0141 -0.2101
11105SOL    HW134096   3.153   4.436   7.168 -1.1370  1.7229 -0.9523
11105SOL    HW234097   3.050   4.409   7.276 -0.9742  2.7248 -0.5290
11106SOL     OW34098   6.567   4.909   5.935  0.1999 -0.0288  0.1686
11106SOL    HW134099   6.601   4.820   5.923  0.5831  0.0997  0.2795
11106SOL    HW234100   6.481   4.897   5.975  0.4793 -0.3348  0.6865
11107SOL     OW34101   0.433   3.438   7.835  0.1527  0.0638  0.8866
11107SOL    HW134102   0.403   3.503   7.898 -2.3892  0.5752 -0.6938
11107SOL    HW234103   0.456   3.489   7.757  0.2357 -0.7509  0.3590
11108SOL     OW34104   3.832   2.394   0.226  0.3012 -0.1162 -0.1562
11108SOL    HW134105   3.923   2.371   0.206  0.4721  0.9730 -0.7072
11108SOL    HW234106   3.817   2.475   0.178 -0.9693 -0.2856 -0.0644
11109SOL     OW34107   7.292   1.880   3.994  0.3006  0.5252  0.0052
11109SOL    HW134108   7.211   1.894   4.043 -0.1791 -1.4328 -0.1662
11109SOL    HW234109   7.354   1.941   4.034 -0.9937  1.4238  0.7396
11110SOL     OW34110   0.019   0.464   1.809 -0.3413 -0.3496  0.0076
11110SOL    HW134111   0.058   0.467   1.721 -0.4407  1.7313  0.0018
11110SOL    HW234112  -0.015   0.552   1.824 -1.2129 -0.9361  1.7573
11111SOL     OW34113   8.204   5.942   7.287 -0.4776  0.2478  0.0732
11111SOL    HW134114   8.237   5.938   7.377 -1.5728  1.8046  0.5986
11111SOL    HW234115   8.245   5.869   7.243  0.2196 -0.4642  1.8088
11112SOL     OW34116   6.807   7.316   6.965  0.3154  0.3772  0.0886
11112SOL    HW134117   6.718   7.347   6.980  0.5177  1.3380 -0.6551
11112SOL    HW234118   6.851   7.388   6.920  1.2785 -0.3453 -0.1597
11113SOL     OW34119   6.683   0.085   2.914 -0.0751 -0.1721  0.1259
11113SOL    HW134120   6.659   0.070   2.822 -0.3769 -0.2627  0.2194
11113SOL    HW234121   6.745   0.158   2.911 -1.2438  0.8297 -0.0125
11114SOL     OW34122   7.002   2.855   6.997 -0.3825 -0.4450 -0.1620
11114SOL    HW134123   6.951   2.923   7.041 -0.9966  0.2542 -1.8695
11114SOL    HW234124   6.993   2.875   6.904  1.7528 -1.2111 -0.5923
11115SOL     OW34125   0.103   6.851   4.777 -0.0284 -0.6605  0.0744
11115SOL    HW134126   0.187   6.857   4.822  0.5433 -0.7522 -0.9488
11115SOL    HW234127   0.119   6.889   4.690 -1.4661  0.8360  0.4087
11116SOL     OW34128   1.789   7.554   5.247 -0.0683 -0.3308 -0.3518
11116SOL    HW134129   1.806   7.472   5.294 -0.5243  0.6729  1.6874
11116SOL    HW234130   1.759   7.527   5.161  0.0350 -2.3009  0.1889
11117SOL     OW34131   0.594   5.640   7.843  0.0453  0.0583  0.7033
11117SOL    HW134132   0.526   5.574   7.828  1.4641 -1.3196  0.0763
11117SOL    HW234133   0.549   5.724   7.831 -1.1173 -0.8095 -1.6802
11118SOL     OW34134   3.799   6.251   4.045 -0.9893  0.1192 -0.2257
11118SOL    HW134135   3.728   6.315   4.047  0.1319  1.4119 -0.5536
11118SOL    HW234136   3.876   6.301   4.072 -0.3411 -1.4553  0.9576
11119SOL     OW34137   3.757   4.231   7.964 -0.1168  0.2162 -0.2742
11119SOL    HW134138   3.759   4.252   7.871 -1.0919  0.8056 -0.1694
11119SOL    HW234139   3.741   4.136   7.967  0.7148  0.0526 -0.7005
11120SOL     OW34140   5.627   3.923   8.310  0.0843  0.1063 -0.8791
11120SOL    HW134141   5.596   3.834   8.324 -1.7588  1.0549  2.0480
11120SOL    HW234142   5.719   3.922   8.337 -0.4319 -0.5581  0.9738
11121SOL     OW34143   6.672   7.550   4.839  0.0072  0.4058  0.4065
11121SOL    HW134144   6.748   7.571   4.893  0.0835  0.7729  0.1534
11121SOL    HW234145   6.670   7.617   4.771  0.0753 -0.2079 -0.2185
11122SOL     OW34146   1.449   7.294   1.874  0.1869 -0.6589 -0.4587
11122SOL    HW134147   1.410   7.344   1.946  1.9770  0.5130 -0.2186
11122SOL    HW234148   1.394   7.216   1.866  0.3522 -1.2411  2.6999
11123SOL     OW34149   7.640   2.888   7.050  0.2804 -0.5132 -0.0462
11123SOL    HW134150   7.586   2.939   6.990  2.5597  1.3728 -0.6398
11123SOL    HW234151   7.688   2.827   6.994  2.2916  1.1421 -0.2645
11124SOL     OW34152   5.263   7.032   4.950 -0.1294  0.3806  0.1643
11124SOL    HW134153   5.358   7.028   4.966  0.0171  0.4292 -0.6611
11124SOL    HW234154   5.254   7.079   4.867 -0.8351 -0.3259 -0.1748
11125SOL     OW34155   0.422   2.447   4.338  0.5785 -0.3423 -0.8519
11125SOL    HW134156   0.433   2.355   4.314  0.2252 -0.5003 -0.4116
11125SOL    HW234157   0.327   2.457   4.350  0.7602 -0.3410  0.7693
11126SOL     OW34158   2.437   5.103   4.016  0.0304  0.0644 -0.3832
11126SOL    HW134159   2.462   5.135   3.929  2.3085  1.7099  0.7700
11126SOL    HW234160   2.490   5.155   4.076 -0.5226 -1.9127  1.9466
11127SOL     OW34161   3.489   3.346   1.002 -0.0444 -0.0333 -0.0434
11127SOL    HW134162   3.546   3.277   1.037 -0.3137  0.3376  1.1847
11127SOL    HW234163   3.516   3.425   1.049  0.4923  0.8076 -1.6775
11128SOL     OW34164   1.393   4.738   4.398  0.9295  0.5034  0.4279
11128SOL    HW134165   1.352   4.779   4.321  0.6924 -0.2535  0.1384
11128SOL    HW234166   1.319   4.715   4.454  0.7033 -2.4978 -0.8910
11129SOL     OW34167   5.811   5.650   0.852 -0.1555 -0.0392  0.1768
11129SOL    HW134168   5.823   5.729   0.904 -3.1731  1.4561 -1.1455
11129SOL    HW234169   5.814   5.680   0.761  1.5359 -2.0075 -0.5009
11130SOL     OW34170   5.068   2.528   8.261  0.3352 -0.5493  0.1883
11130SOL    HW134171   5.074   2.612   8.307  1.7803  0.3825 -1.6056
11130SOL    HW234172   5.159   2.498   8.253  0.2211 -0.3613 -2.5403
11131SOL     OW34173   4.426   5.622   5.816 -0.2069 -0.0652 -0.2298
11131SOL    HW134174   4.417   5.621   5.720 -0.6641 -1.3192 -0.2009
11131SOL    HW234175   4.495   5.685   5.833 -0.8093  0.9406 -1.3151
11132SOL     OW34176   2.144   0.083   2.005  0.0176 -0.3026 -0.1455
11132SOL    HW134177   2.091   0.007   2.030  0.0575  0.2274  1.7407
11132SOL    HW234178   2.080   0.152   1.986 -0.0028 -0.4358 -0.5607
11133SOL     OW34179   8.142   4.600   3.357 -0.2832  0.1712  0.0535
11133SOL    HW134180   8.159   4.564   3.270 -0.6415 -1.8411  0.7685
11133SOL    HW234181   8.226   4.592   3.403 -0.2364  0.7409  0.0781
11134SOL     OW34182   6.307   1.186   3.209  0.3937  0.2244 -0.0617
11134SOL    HW134183   6.343   1.177   3.121 -2.6866 -0.6268 -1.3689
11134SOL    HW234184   6.225   1.234   3.197 -1.1987 -1.7337  1.9721
11135SOL     OW34185   2.748   4.378   0.849  0.0242 -0.9000 -0.1010
11135SOL    HW134186   2.724   4.298   0.803 -2.3924 -0.2328 -0.1754
11135SOL    HW234187   2.731   4.448   0.786  0.2376 -0.2076  0.5928
11136SOL     OW34188   6.937   3.305   6.222  0.1926  0.0058  0.1416
11136SOL    HW134189   6.904   3.218   6.247 -0.3916  0.1431 -0.1427
11136SOL    HW234190   6.896   3.365   6.285 -0.9175  0.2986 -0.8421
11137SOL     OW34191   4.482   2.364   7.317  0.2831  0.5234  0.2165
11137SOL    HW134192   4.481   2.458   7.332 -1.0266  0.1652  2.8088
11137SOL    HW234193   4.394   2.343   7.286  0.6452  0.1550 -0.5981
11138SOL     OW34194   6.070   4.947   2.598  0.1343  0.0907 -0.0522
11138SOL    HW134195   6.133   4.883   2.632 -0.1701 -0.1884 -0.0133
11138SOL    HW234196   6.024   4.979   2.675  1.3162  1.4816  0.1136
11139SOL     OW34197   3.785   2.342   8.154 -0.2485  0.1961  0.3806
11139SOL    HW134198   3.734   2.325   8.075 -0.8272  0.6757  0.6340
11139SOL    HW234199   3.874   2.316   8.132  0.0573  2.2721 -1.1622
11140SOL     OW34200   5.137   7.875   3.692  0.2314  0.3610  0.1104
11140SOL    HW134201   5.187   7.820   3.752  1.1822  1.2912  0.2013
11140SOL    HW234202   5.055   7.892   3.739  0.2373 -0.3601  0.3938
11141SOL     OW34203   1.875   4.628   0.228  0.2586  0.0067  0.2982
11141SOL    HW134204   1.806   4.575   0.267 -0.0503  0.1123 -0.0963
11141SOL    HW234205   1.841   4.717   0.231  0.7483  0.1778  0.9007
11142SOL     OW34206   1.108   1.872   1.718  0.3261 -0.7865  0.0068
11142SOL    HW134207   1.143   1.849   1.804 -0.6398 -0.8940  0.3835
11142SOL    HW234208   1.136   1.800   1.660 -0.4208 -1.5760  0.5989
11143SOL     OW34209   2.458   2.715   1.913  0.1994  0.7082  0.1100
11143SOL    HW134210   2.481   2.681   1.999 -0.3752 -0.4492 -0.1844
11143SOL    HW234211   2.538   2.759   1.883  1.7035 -2.1062 -0.3370
11144SOL     OW34212   2.143   3.200   4.292  0.4195  0.1890  0.0651
11144SOL    HW134213   2.230   3.200   4.332  0.0199  0.7040  0.9592
11144SOL    HW234214   2.085   3.234   4.360 -0.3188  0.8342 -0.8543
11145SOL     OW34215   2.199   3.069   2.148 -0.1536  0.0283 -0.1296
11145SOL    HW134216   2.205   3.027   2.062 -3.6965  1.2045 -1.1455
11145SOL    HW234217   2.153   3.006   2.203 -0.5594  0.4139 -0.0141
11146SOL     OW34218   3.361   4.986   7.382 -0.1497 -0.2961  0.2041
11146SOL    HW134219   3.288   5.039   7.414 -0.1595  0.6032 -1.1746
11146SOL    HW234220   3.321   4.903   7.355 -0.3898 -0.4314  0.9692
11147SOL     OW34221   3.500   8.135   5.276  0.1933  0.4798  0.4147
11147SOL    HW134222   3.436   8.139   5.347 -0.4469 -2.2947  0.1085
11147SOL    HW234223   3.583   8.116   5.319  0.0144 -0.1074  0.4980
11148SOL     OW34224   5.459   0.685   2.392 -0.7708  0.0145 -0.1949
11148SOL    HW134225   5.383   0.628   2.394 -1.0555  0.4005  0.0990
11148SOL    HW234226   5.434   0.761   2.444  0.4487 -0.6516  1.4698
11149SOL     OW34227   4.331   0.798   1.378 -0.4681  0.2500  0.0695
11149SOL    HW134228   4.393   0.871   1.392 -0.2417  0.1574 -0.4123
11149SOL    HW234229   4.368   0.750   1.304 -1.5657  0.6847 -0.7908
11150SOL     OW34230   3.336   5.247   2.800 -0.4710 -0.1370  0.0626
11150SOL    HW134231   3.422   5.264   2.761 -1.4191 -0.0637 -2.1368
11150SOL    HW234232   3.314   5.327   2.847  0.3484  0.0970  0.0663
11151SOL     OW34233   1.046   1.241   0.041  0.2118 -0.2164  0.0847
11151SOL    HW134234   1.023   1.149   0.052 -1.1042 -0.1206 -1.5782
11151SOL    HW234235   1.142   1.242   0.051  0.5446 -2.1334 -2.0289
11152SOL     OW34236   4.563   1.015   2.060 -0.1946 -0.0644 -0.2421
11152SOL    HW134237   4.613   1.014   2.141  0.4128 -0.6943 -0.6154
11152SOL    HW234238   4.526   1.103   2.056  0.0706  0.0901  0.5331
11153SOL     OW34239   0.041   3.391   4.475 -0.2302  0.2076 -0.5923
11153SOL    HW134240   0.101   3.317   4.483 -3.0410 -2.2234 -0.5183
11153SOL    HW234241  -0.000   3.379   4.390 -0.7217  1.7575 -0.6014
11154SOL     OW34242   6.488   3.080   0.787 -0.0393  0.4203  0.1752
11154SOL    HW134243   6.507   3.128   0.868  0.0796 -1.3126  1.2283
11154SOL    HW234244   6.393   3.072   0.786 -0.1562  1.6797 -0.6337
11155SOL     OW34245   1.231   5.287   2.282 -0.1530 -0.5667  0.0448
11155SOL    HW134246   1.257   5.280   2.190 -0.2106 -0.2410  0.0013
11155SOL    HW234247   1.275   5.367   2.313 -2.0099  0.6692 -0.3387
11156SOL     OW34248   5.955   6.518   6.209  0.5600 -0.0205  0.1969
11156SOL    HW134249   6.035   6.560   6.241  0.9995 -0.5840 -0.1274
11156SOL    HW234250   5.981   6.476   6.127  0.3313 -1.4803  0.8217
11157SOL     OW34251   4.149   4.834   7.699  0.0405  0.4425 -0.5148
11157SOL    HW134252   4.193   4.836   7.615 -1.6131 -0.6610 -1.4754
11157SOL    HW234253   4.161   4.744   7.730  1.1132  0.9819  0.7296
11158SOL     OW34254   1.651   2.680   5.480  0.3003  0.2222  0.0932
11158SOL    HW134255   1.582   2.661   5.544  0.5365  0.8679  0.5527
11158SOL    HW234256   1.711   2.606   5.487  0.1366  0.1125  0.3683
11159SOL     OW34257   2.647   5.119   2.811 -0.0245 -0.4126 -0.7168
11159SOL    HW134258   2.716   5.072   2.857  0.5391 -0.3735 -1.4965
11159SOL    HW234259   2.675   5.120   2.719 -0.0069  1.4632 -0.7326
11160SOL     OW34260   6.465   3.837   0.582 -0.3603 -0.0504  0.0999
11160SOL    HW134261   6.467   3.741   0.581 -2.7880 -0.1910  0.9108
11160SOL    HW234262   6.490   3.862   0.493  0.8598 -1.3806  0.0179
11161SOL     OW34263   5.044   3.303   0.252 -1.0280  0.3167  0.2869
11161SOL    HW134264   5.056   3.376   0.191  0.1270  1.1127  1.4066
11161SOL    HW234265   4.950   3.300   0.269 -0.9583  2.5046  1.3363
11162SOL     OW34266   4.765   1.663   7.650  0.5725  0.3515  0.2440
11162SOL    HW134267   4.813   1.732   7.605  2.2805 -0.7620  0.2717
11162SOL    HW234268   4.831   1.596   7.669 -1.0061 -1.2919  0.2237
11163SOL     OW34269   8.055   5.315   7.210  0.5323  0.3573 -0.6172
11163SOL    HW134270   8.103   5.394   7.187 -1.1367  1.1286 -1.6273
11163SOL    HW234271   8.070   5.304   7.304  1.4584  1.3819 -0.6256
11164SOL     OW34272   6.545   0.541   4.076 -0.8471 -0.6348 -0.4110
11164SOL    HW134273   6.501   0.614   4.120  0.6018 -0.1524  0.3105
11164SOL    HW234274   6.623   0.580   4.037 -0.5956 -1.6166 -0.9207
11165SOL     OW34275   2.319   5.941   6.133  0.0499  0.4518 -0.5711
11165SOL    HW134276   2.322   6.032   6.164 -0.2895  0.9314 -1.8628
11165SOL    HW234277   2.410   5.920   6.114 -0.1587  1.7824 -3.5920
11166SOL     OW34278   3.097   2.830   4.049  0.8272  0.1970 -0.7152
11166SOL    HW134279   3.188   2.830   4.018  1.5216 -1.9195  1.0565
11166SOL    HW234280   3.094   2.901   4.114  0.9125  0.8914 -1.4454
11167SOL     OW34281   3.194   5.657   5.736 -0.1722  0.2046  0.2075
11167SOL    HW134282   3.182   5.569   5.772  0.4322  0.2762  0.6029
11167SOL    HW234283   3.286   5.678   5.753  0.0082  0.4427 -0.9438
11168SOL     OW34284   5.906   4.747   4.198 -0.1871 -0.1940  0.2592
11168SOL    HW134285   5.854   4.717   4.273 -2.2294  3.1861  0.3980
11168SOL    HW234286   5.989   4.775   4.236  0.0176 -1.4034  0.7405
11169SOL     OW34287   3.405   2.189   6.237 -0.4901  0.1445  0.1379
11169SOL    HW134288   3.438   2.114   6.188  2.1946  1.5552 -0.4281
11169SOL    HW234289   3.372   2.152   6.319 -0.7220 -1.7645 -0.7579
11170SOL     OW34290   3.871   4.591   1.858 -0.1240  0.6901  1.0146
11170SOL    HW134291   3.843   4.545   1.937 -0.2319 -0.8444  0.1299
11170SOL    HW234292   3.934   4.656   1.889 -0.0565  0.0324  2.3421
11171SOL     OW34293   0.313   3.493   0.985 -0.1056 -0.5817  0.3168
11171SOL    HW134294   0.226   3.534   0.982  0.6439  1.0206 -1.9334
11171SOL    HW234295   0.369   3.558   1.026  0.0699 -1.6846  1.9241
11172SOL     OW34296   7.204   1.170   6.512 -0.0566 -0.0881 -0.3824
11172SOL    HW134297   7.152   1.224   6.571  0.6881 -1.2459  1.4303
11172SOL    HW234298   7.172   1.081   6.527  1.4160 -0.6402 -0.2914
11173SOL     OW34299   6.511   7.323   4.748 -0.4883  0.3933  0.2280
11173SOL    HW134300   6.570   7.395   4.770 -1.3894  1.1140  0.3610
11173SOL    HW234301   6.546   7.248   4.796  1.3996  0.3186 -1.1762
11174SOL     OW34302   2.626   4.071   0.059  0.0004  0.4331 -0.0961
11174SOL    HW134303   2.535   4.096   0.078  0.4325  0.9606  1.3964
11174SOL    HW234304   2.642   3.997   0.118  0.9822  1.2586  0.6912
11175SOL     OW34305   5.058   5.077   1.211  0.1318 -0.9364 -0.1258
11175SOL    HW134306   5.120   5.116   1.274  0.9360 -0.8398 -0.9524
11175SOL    HW234307   4.998   5.026   1.265 -0.8397  1.2455  0.9950
11176SOL     OW34308   3.900   3.490   8.202 -0.1769 -0.1965 -0.1049
11176SOL    HW134309   3.970   3.543   8.165  2.0998 -2.7168  0.2494
11176SOL    HW234310   3.887   3.524   8.290  0.8148  0.1600 -0.0856
11177SOL     OW34311   4.408   7.530   7.257  0.2549 -0.3828 -0.0815
11177SOL    HW134312   4.430   7.519   7.349 -0.7281 -0.5120  0.1530
11177SOL    HW234313   4.456   7.608   7.230  4.5620 -2.9749 -0.8336
11178SOL     OW34314   1.821   4.892   4.802 -0.4904  0.2048 -0.7874
11178SOL    HW134315   1.729   4.872   4.821 -0.5726  0.8345 -0.5119
11178SOL    HW234316   1.847   4.825   4.739 -0.0580 -2.3244  1.8666
11179SOL     OW34317   2.987   0.907   6.669  0.6063  0.1749 -0.1313
11179SOL    HW134318   3.005   0.998   6.691 -2.8121  0.7866  0.6627
11179SOL    HW234319   3.023   0.857   6.742 -0.0893  1.1870  0.9415
11180SOL     OW34320   6.848   0.929   3.284 -0.3909 -0.0057 -0.1832
11180SOL    HW134321   6.896   0.875   3.220 -0.9963  0.9647 -1.5146
11180SOL    HW234322   6.777   0.872   3.315 -0.3138 -0.3691 -0.6576
11181SOL     OW34323   6.225   0.929   6.345  0.9200  0.5577  0.2678
11181SOL    HW134324   6.313   0.893   6.328  1.0030  0.6324  0.5299
11181SOL    HW234325   6.231   0.966   6.433  0.3193 -0.4137  0.7427
11182SOL     OW34326   4.888   4.656   6.773  0.2688  0.2479 -0.7333
11182SOL    HW134327   4.835   4.662   6.694 -1.5628 -2.1355  0.1921
11182SOL    HW234328   4.859   4.730   6.827 -0.4814  0.2721 -1.1600
11183SOL     OW34329   1.348   7.426   8.110 -0.2431 -0.1209 -0.3277
11183SOL    HW134330   1.332   7.432   8.016 -0.4617 -0.5308 -0.3199
11183SOL    HW234331   1.410   7.496   8.128  0.0946 -0.2765 -0.8455
11184SOL     OW34332   8.294   7.540   6.822  0.1903 -0.7117  0.3544
11184SOL    HW134333   8.214   7.542   6.770 -0.4962 -1.4679  1.3487
11184SOL    HW234334   8.308   7.630   6.849 -0.8248 -0.7068  0.8940
11185SOL     OW34335   3.962   6.485   2.968  0.3483 -0.0993  0.4342
11185SOL    HW134336   4.034   6.494   3.031 -0.8200 -0.3466  1.8678
11185SOL    HW234337   3.969   6.563   2.913 -0.1947  1.6184  2.6270
11186SOL     OW34338   6.880   7.800   8.000 -0.7941  0.3532 -0.5673
11186SOL    HW134339   6.874   7.740   8.075  1.0359 -0.1459 -0.7757
11186SOL    HW234340   6.867   7.744   7.924 -0.2639  0.4198 -0.7105
11187SOL     OW34341   7.592   6.454   4.007 -0.2834 -0.4275  0.3255
11187SOL    HW134342   7.687   6.457   4.009 -0.3210  1.0229  1.8374
11187SOL    HW234343   7.565   6.538   3.969 -0.9832 -0.9377 -0.3620
11188SOL     OW34344   3.940   0.634   5.102  0.8413  0.4444 -0.3208
11188SOL    HW134345   3.943   0.700   5.033  1.9223  0.2516 -0.4742
11188SOL    HW234346   4.025   0.640   5.145 -0.2464  1.4382  1.8584
11189SOL     OW34347   7.384   2.045   5.598  0.4659 -0.1290 -0.1927
11189SOL    HW134348   7.389   2.124   5.544 -0.4523  0.7574  0.9490
11189SOL    HW234349   7.341   2.074   5.679  2.0484 -1.3088  1.1528
11190SOL     OW34350   7.247   1.205   4.620  0.0506 -0.0432 -0.4508
11190SOL    HW134351   7.167   1.158   4.598 -0.7396  0.2881  1.5173
11190SOL    HW234352   7.317   1.142   4.604 -0.8302 -1.2454  0.2883
11191SOL     OW34353   5.091   2.835   2.194  0.0341 -0.1067  0.6455
11191SOL    HW134354   5.059   2.745   2.191 -0.6054  0.1335 -0.2489
11191SOL    HW234355   5.053   2.876   2.117  0.6875  0.8128  0.7996
11192SOL     OW34356   4.368   5.240   4.484  1.3802  0.0528  0.5273
11192SOL    HW134357   4.447   5.227   4.432  1.2148  0.2125  0.2298
11192SOL    HW234358   4.336   5.326   4.457  1.2016  0.0642  0.7751
11193SOL     OW34359   1.675   1.236   8.288  0.3855 -0.3254 -0.2606
11193SOL    HW134360   1.625   1.261   8.365  1.4990 -0.4173  0.5116
11193SOL    HW234361   1.649   1.146   8.270 -0.1222 -0.1924 -0.1949
11194SOL     OW34362   3.028   5.406   7.097  0.6064 -0.0112  0.2608
11194SOL    HW134363   3.116   5.405   7.059  0.2895  0.5200 -0.5035
11194SOL    HW234364   2.986   5.483   7.059 -0.5105 -0.7695 -0.1074
11195SOL     OW34365   4.449   5.340   3.752 -0.3143 -0.6901 -0.1499
11195SOL    HW134366   4.407   5.275   3.696 -1.3445  0.1769 -0.4239
11195SOL    HW234367   4.377   5.381   3.801  0.2403  0.5038 -0.2763
11196SOL     OW34368   3.322   2.848   1.201 -0.1962  0.0846  0.4654
11196SOL    HW134369   3.328   2.764   1.246 -0.0035  0.7727  1.7579
11196SOL    HW234370   3.403   2.894   1.223 -1.0183  1.2674  1.1869
11197SOL     OW34371   2.115   5.361   5.182 -0.1129 -0.4146 -0.4057
11197SOL    HW134372   2.127   5.384   5.090 -2.6524  0.9526 -0.4853
11197SOL    HW234373   2.022   5.341   5.190 -0.0904  0.1195  1.9923
11198SOL     OW34374   0.691   1.191   2.266 -0.5580  0.7017  0.0685
11198SOL    HW134375   0.678   1.160   2.355 -0.4605  2.0727  0.5844
11198SOL    HW234376   0.688   1.112   2.212  0.8780 -0.3517  1.4272
11199SOL     OW34377   5.429   1.874   6.961  0.5932  0.2357 -0.0258
11199SOL    HW134378   5.432   1.970   6.963 -0.0720  0.2606  0.2005
11199SOL    HW234379   5.355   1.852   7.018  1.4823 -0.4552  0.8964
11200SOL     OW34380   2.571   8.257   7.138 -0.0126  0.2132 -0.0150
11200SOL    HW134381   2.488   8.213   7.120 -0.4540  1.5009 -1.2805
11200SOL    HW234382   2.547   8.339   7.182  0.9126 -1.7637  4.8954
11201SOL     OW34383   2.979   3.654   7.583 -0.4449  0.3465  0.6794
11201SOL    HW134384   3.005   3.609   7.503 -1.2016  0.5565  0.3140
11201SOL    HW234385   2.915   3.596   7.624  0.8190 -0.3464  1.7741
11202SOL     OW34386   8.232   5.673   6.898 -0.1642 -0.2177  0.7241
11202SOL    HW134387   8.205   5.752   6.944 -2.8084 -0.0281 -0.9749
11202SOL    HW234388   8.150   5.631   6.872  1.1925 -2.1821 -0.6493
11203SOL     OW34389   5.683   1.409   6.505 -0.0329  0.3468 -0.7752
11203SOL    HW134390   5.707   1.500   6.519  2.1178 -0.4026  1.0408
11203SOL    HW234391   5.651   1.379   6.590  0.0737 -0.8032 -1.1163
11204SOL     OW34392   4.519   1.431   6.066 -0.1741 -0.1367  0.2100
11204SOL    HW134393   4.604   1.404   6.033  0.8626  1.5857  1.2804
11204SOL    HW234394   4.506   1.519   6.030 -1.3766 -0.2711  0.2764
11205SOL     OW34395   0.869   4.067   5.607 -0.1368 -0.5379  0.2996
11205SOL    HW134396   0.961   4.088   5.623  0.2814 -1.8948 -0.1507
11205SOL    HW234397   0.823   4.149   5.622  1.1697  0.2281  0.3172
11206SOL     OW34398   0.536   3.664   6.400 -0.5812  0.0309 -0.2884
11206SOL    HW134399   0.536   3.580   6.446 -1.8336  0.3298  0.3061
11206SOL    HW234400   0.627   3.691   6.399 -0.2082 -1.1615 -0.1680
11207SOL     OW34401   6.372   4.686   5.803  0.2639 -0.3882  0.0746
11207SOL    HW134402   6.283   4.714   5.782  0.3650 -0.2283 -0.1471
11207SOL    HW234403   6.361   4.614   5.866 -0.0045  0.0535  0.5420
11208SOL     OW34404   1.380   1.798   7.677 -0.0311 -0.2110 -0.5539
11208SOL    HW134405   1.326   1.727   7.645 -0.7514 -0.0062  0.1754
11208SOL    HW234406   1.390   1.781   7.771 -2.2346  1.8843  0.1643
11209SOL     OW34407   1.892   4.064   2.747  0.7459  0.3741 -0.3248
11209SOL    HW134408   1.880   4.135   2.684  0.9683  0.1385 -0.6382
11209SOL    HW234409   1.947   4.000   2.700 -0.5183 -0.6020 -0.5305
11210SOL     OW34410   0.468   6.050   4.513 -0.0905 -0.4978  0.3275
11210SOL    HW134411   0.422   6.054   4.429  2.8638 -0.3168 -1.3856
11210SOL    HW234412   0.441   6.130   4.559  1.7390  1.9376 -2.4830
11211SOL     OW34413   3.659   7.036   0.666  0.4831 -0.0915  0.3521
11211SOL    HW134414   3.629   7.041   0.757  0.2968  0.2182  0.2775
11211SOL    HW234415   3.754   7.025   0.672  0.3244 -1.5331  0.6018
11212SOL     OW34416   1.276   7.690   8.211 -0.2364  0.0073 -0.5438
11212SOL    HW134417   1.281   7.684   8.116  0.0118  2.6057 -0.7777
11212SOL    HW234418   1.187   7.660   8.233 -0.1803 -0.9259 -1.5380
11213SOL     OW34419   2.989   2.828   1.293  0.4163  0.3555  0.3539
11213SOL    HW134420   3.020   2.881   1.219 -1.3302  1.1017  0.0896
11213SOL    HW234421   2.987   2.739   1.259 -0.1640  0.6610 -0.4686
11214SOL     OW34422   7.169   0.102   4.678  0.2734 -0.1291  0.3807
11214SOL    HW134423   7.233   0.034   4.658  0.1394 -0.9362  2.3982
11214SOL    HW234424   7.084   0.059   4.669  0.1791 -0.1984  1.4588
11215SOL     OW34425   5.403   5.958   6.613 -0.7194  0.1715  0.0912
11215SOL    HW134426   5.475   5.901   6.588 -0.4192 -0.5680  2.4025
11215SOL    HW234427   5.345   5.902   6.665 -2.7358  0.8777 -1.2756
11216SOL     OW34428   7.458   8.023   4.971  0.5646  0.7821 -0.3304
11216SOL    HW134429   7.536   8.069   5.002 -0.5607  1.7904  1.2084
11216SOL    HW234430   7.412   7.997   5.051 -0.5919  0.0738 -1.1863
11217SOL     OW34431   2.699   3.728   1.814  0.2230  0.5624 -0.3150
11217SOL    HW134432   2.745   3.779   1.747 -0.6124  0.8296 -0.6959
11217SOL    HW234433   2.752   3.650   1.825  0.5574  0.6782 -1.0394
11218SOL     OW34434   6.770   8.222   6.014  0.5648  0.4712  0.1153
11218SOL    HW134435   6.845   8.254   5.963  1.5553  0.0822  1.2799
11218SOL    HW234436   6.788   8.129   6.029 -0.3021  0.2993  0.1740
11219SOL     OW34437   3.674   4.357   6.761 -0.0628 -0.2099  0.2856
11219SOL    HW134438   3.760   4.398   6.761 -0.6179  1.0429  1.2568
11219SOL    HW234439   3.681   4.286   6.698  1.1184  1.0223 -1.0479
11220SOL     OW34440   1.483   0.607   4.437 -0.2479 -0.1208  0.6454
11220SOL    HW134441   1.503   0.687   4.486 -1.6875 -0.7254  2.2986
11220SOL    HW234442   1.413   0.564   4.487 -0.6088 -1.6358 -1.0504
11221SOL     OW34443   8.025   5.712   3.644 -0.2847  0.0260  0.2590
11221SOL    HW134444   7.953   5.709   3.582 -1.4756  1.9171  1.4400
11221SOL    HW234445   8.062   5.624   3.643 -1.7477 -0.6191 -1.3574
11222SOL     OW34446   8.042   6.047   1.495  0.2844  0.3635  0.0272
11222SOL    HW134447   8.058   5.992   1.418  1.8018  0.8929 -0.0833
11222SOL    HW234448   8.014   5.986   1.563 -3.6941  0.1610 -1.5626
11223SOL     OW34449   3.545   2.423   6.303 -0.0275  0.0526  0.3818
11223SOL    HW134450   3.527   2.503   6.253  0.3243  0.0827  0.3058
11223SOL    HW234451   3.473   2.364   6.278 -0.3769  0.3991  0.5643
11224SOL     OW34452   2.480   0.567   0.248  0.0108  0.2462 -0.0596
11224SOL    HW134453   2.391   0.575   0.282  0.4656 -0.6419  1.4051
11224SOL    HW234454   2.496   0.473   0.243  0.4179  0.3673 -1.6125
11225SOL     OW34455   5.324   7.429   6.952  0.5517  0.2578  0.1562
11225SOL    HW134456   5.330   7.508   6.898  3.8747  0.1218  0.0712
11225SOL    HW234457   5.356   7.456   7.038  0.3452 -0.6701  0.5340
11226SOL     OW34458   2.901   0.573   6.810  0.6683  0.0801  0.1586
11226SOL    HW134459   2.958   0.524   6.870  0.6181  1.1338  1.0958
11226SOL    HW234460   2.960   0.629   6.761  0.6422 -0.3308 -0.3513
11227SOL     OW34461   6.158   7.374   3.945  0.4026  0.6965 -0.0876
11227SOL    HW134462   6.246   7.344   3.967 -0.2884  1.0067  3.7019
11227SOL    HW234463   6.164   7.470   3.946  0.2897  0.7373 -1.3561
11228SOL     OW34464   2.553   1.584   6.144 -0.1700 -0.6068 -0.1792
11228SOL    HW134465   2.601   1.667   6.136 -2.9764  1.1991  0.1648
11228SOL    HW234466   2.542   1.554   6.054  0.7309 -0.5150 -0.3233
11229SOL     OW34467   2.510   8.065   6.611 -0.2920 -0.2620 -0.2877
11229SOL    HW134468   2.556   8.112   6.681 -0.4342  1.4942 -1.3003
11229SOL    HW234469   2.417   8.074   6.634 -0.2846 -0.7613 -0.0609
11230SOL     OW34470   3.812   5.642   4.999  0.3667  1.1334 -0.2434
11230SOL    HW134471   3.849   5.624   5.086  3.0802 -0.6390 -1.6116
11230SOL    HW234472   3.855   5.723   4.971  0.7424  0.8501 -0.5131
11231SOL     OW34473   4.118   0.881   3.350 -0.1491 -0.3293 -0.1427
11231SOL    HW134474   4.152   0.967   3.326  0.3426 -0.7334 -0.9437
11231SOL    HW234475   4.121   0.880   3.446  1.7863 -0.2025 -0.1493
11232SOL     OW34476   6.643   3.262   1.012 -0.2845  0.5200 -0.0341
11232SOL    HW134477   6.570   3.324   1.014  1.6460  2.9115  1.1689
11232SOL    HW234478   6.715   3.308   1.054  2.3991 -1.1409 -2.4549
11233SOL     OW34479   1.257   3.828   3.648  0.0856  0.7202 -0.4947
11233SOL    HW134480   1.278   3.838   3.555  2.0212  0.3587 -0.1534
11233SOL    HW234481   1.342   3.832   3.692 -0.6993  0.0570  1.1885
11234SOL     OW34482   5.117   6.715   1.422 -0.2780  0.3947 -0.4468
11234SOL    HW134483   5.205   6.752   1.415 -0.4807  0.7841 -0.9935
11234SOL    HW234484   5.127   6.624   1.392  0.5200 -0.5228  2.2875
11235SOL     OW34485   0.935   3.202   1.212  0.7649 -0.3552  0.3855
11235SOL    HW134486   0.935   3.297   1.225  1.1476  0.0594 -2.0654
11235SOL    HW234487   0.861   3.170   1.262 -1.1594  1.6505 -1.0006
11236SOL     OW34488   8.137   4.023   2.359 -0.2543 -0.1242 -0.2473
11236SOL    HW134489   8.176   4.091   2.304  0.5028  0.5854  1.1018
11236SOL    HW234490   8.167   3.941   2.321 -1.1287  0.2684 -1.8635
11237SOL     OW34491   3.272   1.139   2.786 -0.0721 -0.0211 -0.3154
11237SOL    HW134492   3.297   1.047   2.794  0.5506 -0.0710 -2.3440
11237SOL    HW234493   3.176   1.138   2.784 -0.0587 -0.7294 -1.2315
11238SOL     OW34494   4.382   4.087   6.342  0.7605 -0.3597  0.5473
11238SOL    HW134495   4.300   4.137   6.339  1.5465  0.9553  0.5006
11238SOL    HW234496   4.431   4.116   6.265  0.3438 -2.8466 -0.7503
11239SOL     OW34497   1.969   4.107   1.530  0.0406 -0.2807 -0.0109
11239SOL    HW134498   2.041   4.140   1.584  0.0880  3.0655 -1.8476
11239SOL    HW234499   1.896   4.098   1.591  1.1171 -0.4456  1.2937
11240SOL     OW34500   4.348   4.138   3.369  0.2554  0.3791 -0.8086
11240SOL    HW134501   4.258   4.143   3.401  0.7432  0.7554  0.5549
11240SOL    HW234502   4.395   4.203   3.421  1.7292 -1.2278 -0.0513
11241SOL     OW34503   0.480   5.977   0.050 -0.0532 -0.3960 -0.2320
11241SOL    HW134504   0.405   5.935   0.094 -0.2676 -0.0372 -0.2532
11241SOL    HW234505   0.534   5.903   0.021 -0.4166 -0.6651 -0.2458
11242SOL     OW34506   0.850   4.623   0.397  0.2044 -0.7278 -0.0668
11242SOL    HW134507   0.879   4.709   0.429 -1.8351  0.5109 -1.3173
11242SOL    HW234508   0.785   4.594   0.461 -0.7177 -0.2532 -0.7470
11243SOL     OW34509   1.457   6.661   2.264  0.3048  0.3250 -0.5761
11243SOL    HW134510   1.368   6.696   2.269  0.5880  1.1579 -1.1947
11243SOL    HW234511   1.511   6.735   2.235  1.3766  0.0916  0.7497
11244SOL     OW34512   2.453   6.968   3.720 -0.4905  0.4450  0.0004
11244SOL    HW134513   2.362   6.943   3.732 -0.0511 -0.5786  1.3756
11244SOL    HW234514   2.471   7.029   3.791 -0.0611  0.5386 -0.1824
11245SOL     OW34515   1.037   8.111   1.711  1.1024 -0.0830 -0.0286
11245SOL    HW134516   1.020   8.045   1.643  2.0134  0.3233 -0.6692
11245SOL    HW234517   1.031   8.195   1.665 -0.9259  0.3806  0.9573
11246SOL     OW34518   7.029   6.202   3.882 -0.5225  0.2791  0.1960
11246SOL    HW134519   6.942   6.188   3.844 -0.2364  1.0778 -0.7896
11246SOL    HW234520   7.088   6.200   3.808  0.3814 -0.6928  0.9080
11247SOL     OW34521   7.337   5.948   3.055  0.2645 -0.1166 -1.1262
11247SOL    HW134522   7.333   6.044   3.049  0.3424 -0.0255  0.1227
11247SOL    HW234523   7.401   5.931   3.124 -2.1232 -0.9697  1.0235
11248SOL     OW34524   6.177   1.010   8.311 -0.3289  0.4575 -0.0286
11248SOL    HW134525   6.228   0.992   8.232 -0.4243  2.8633 -0.7134
11248SOL    HW234526   6.241   1.037   8.376 -0.3350 -0.7546  0.5120
11249SOL     OW34527   1.392   2.235   5.807 -0.1722 -0.1676 -0.1090
11249SOL    HW134528   1.400   2.157   5.751  1.3157 -0.0502 -0.1030
11249SOL    HW234529   1.473   2.283   5.792 -0.3789  0.5849  1.0968
11250SOL     OW34530   5.975   1.566   1.665  0.0183  0.0473  0.0432
11250SOL    HW134531   5.926   1.630   1.614  0.0216  1.0834  1.2944
11250SOL    HW234532   5.922   1.551   1.744  1.4631  0.8850  1.2306
11251SOL     OW34533   6.772   5.410   6.222 -0.0054  0.7534  0.3248
11251SOL    HW134534   6.703   5.348   6.200  1.2366 -0.0414 -1.5822
11251SOL    HW234535   6.839   5.358   6.266 -1.0011  1.7277  3.2373
11252SOL     OW34536   5.947   5.313   6.472  0.2966  0.4220  0.0817
11252SOL    HW134537   5.890   5.278   6.403  0.4189  1.7440 -0.7184
11252SOL    HW234538   6.010   5.367   6.426  1.1894  0.3007  1.1294
11253SOL     OW34539   5.714   1.467   3.089 -0.0334  0.2528 -0.0152
11253SOL    HW134540   5.717   1.379   3.051  0.2865  0.9895 -1.7537
11253SOL    HW234541   5.621   1.489   3.089 -0.0483  0.1960 -0.2650
11254SOL     OW34542   3.819   2.971   7.389  0.0034  0.1914 -0.9336
11254SOL    HW134543   3.900   3.011   7.423 -0.2590 -0.4868  0.5828
11254SOL    HW234544   3.794   3.026   7.316  0.6606  1.7216 -0.0536
11255SOL     OW34545   2.628   3.487   6.183  1.0795 -0.1531 -0.1874
11255SOL    HW134546   2.685   3.472   6.258 -1.2428 -1.0926  1.4912
11255SOL    HW234547   2.627   3.582   6.171  2.0159 -0.0478  0.4973
11256SOL     OW34548   3.084   6.809   5.008  0.6204  0.2009 -0.0444
11256SOL    HW134549   3.016   6.743   5.021  0.1741  0.7198  0.2799
11256SOL    HW234550   3.113   6.795   4.918  1.2931 -1.1373  0.3554
11257SOL     OW34551   3.963   2.009   4.288 -0.4457  0.6696  0.6355
11257SOL    HW134552   3.941   1.957   4.210  0.0781  1.5111 -0.0944
11257SOL    HW234553   3.973   1.944   4.357 -0.1469 -0.1830 -0.1733
11258SOL     OW34554   0.956   3.978   6.529  0.2020  0.5269 -0.0167
11258SOL    HW134555   1.004   3.904   6.490  0.4960  0.4012  0.5844
11258SOL    HW234556   0.959   4.046   6.461 -0.1619 -0.0406 -0.6203
11259SOL     OW34557   3.382   2.002   5.838  0.0333 -0.1931 -0.0939
11259SOL    HW134558   3.395   1.987   5.744  1.2915  0.0075  0.0344
11259SOL    HW234559   3.407   2.094   5.851 -0.1390 -0.2180  0.4432
11260SOL     OW34560   3.819   3.099   2.906 -0.1578 -0.6771 -0.1416
11260SOL    HW134561   3.762   3.087   2.982 -0.7395 -3.4323 -0.8958
11260SOL    HW234562   3.899   3.051   2.928  0.1763 -0.4289 -0.7826
11261SOL     OW34563   6.959   0.274   5.902  0.1554 -0.0263  0.5375
11261SOL    HW134564   7.035   0.326   5.875  0.2873 -0.3985  0.1710
11261SOL    HW234565   6.888   0.337   5.912 -0.3873 -0.0292 -2.4282
11262SOL     OW34566   7.807   6.180   0.979  0.2462 -0.1341  0.2295
11262SOL    HW134567   7.884   6.225   1.014  0.8173 -0.3202 -0.7589
11262SOL    HW234568   7.841   6.099   0.941 -0.4185 -0.1763 -0.2952
11263SOL     OW34569   1.012   6.160   1.340 -0.3113  0.3133 -0.4924
11263SOL    HW134570   1.060   6.077   1.340 -0.6301  0.1257 -0.4253
11263SOL    HW234571   0.947   6.150   1.409  0.0812  0.8781 -0.0393
11264SOL     OW34572   5.289   1.861   0.285 -0.1799 -0.3294 -0.6311
11264SOL    HW134573   5.279   1.955   0.271  0.0554 -0.0137  1.0186
11264SOL    HW234574   5.210   1.835   0.333  0.8293 -0.4227  1.1032
11265SOL     OW34575   3.172   0.382   0.809 -0.2579 -0.0112 -0.1686
11265SOL    HW134576   3.260   0.378   0.845 -1.2721 -1.5648  2.3807
11265SOL    HW234577   3.168   0.467   0.764  1.8605  1.0206  1.4413
11266SOL     OW34578   1.809   1.395   4.468 -0.0327  0.2415  1.1842
11266SOL    HW134579   1.864   1.376   4.545 -1.5079 -1.1240  1.9659
11266SOL    HW234580   1.720   1.401   4.503 -0.6079  0.7422 -0.2835
11267SOL     OW34581   4.902   6.537   2.037  0.3704  0.0607  0.0222
11267SOL    HW134582   4.973   6.543   1.973  0.6290 -0.9769  0.1929
11267SOL    HW234583   4.942   6.498   2.115 -0.5747 -1.6107 -0.2581
11268SOL     OW34584   3.001   7.868   1.436  0.6101 -0.3533  0.7904
11268SOL    HW134585   2.992   7.778   1.405  0.4136 -0.4790  1.2178
11268SOL    HW234586   2.965   7.868   1.525 -0.2492  0.3505  0.4633
11269SOL     OW34587   7.207   4.162   5.593 -0.4543  0.3154  0.0265
11269SOL    HW134588   7.119   4.164   5.630 -1.5461  0.9806 -2.3826
11269SOL    HW234589   7.220   4.072   5.565 -1.9320  0.8282 -2.7776
11270SOL     OW34590   3.979   4.294   8.125  0.0432 -0.2093  0.7033
11270SOL    HW134591   3.937   4.272   8.208 -1.5442 -0.3447 -0.0883
11270SOL    HW234592   3.917   4.263   8.058  0.5214  1.3055 -0.5032
11271SOL     OW34593   4.999   6.398   7.104  0.2152  0.0213 -0.6170
11271SOL    HW134594   4.929   6.340   7.134 -1.1508  1.1730 -1.4626
11271SOL    HW234595   5.031   6.359   7.023  1.2941 -1.0347  0.2610
11272SOL     OW34596   3.023   5.800   0.479  0.3911 -0.8089  0.0367
11272SOL    HW134597   2.986   5.749   0.407  1.2640 -0.7603 -0.4729
11272SOL    HW234598   3.007   5.891   0.455 -1.1853 -0.8203  0.9566
11273SOL     OW34599   1.120   4.801   5.856  0.1047 -0.2651  0.1889
11273SOL    HW134600   1.030   4.768   5.845  0.1541  0.1968 -2.0393
11273SOL    HW234601   1.125   4.878   5.800  2.2040 -0.9153 -0.6229
11274SOL     OW34602   4.327   5.923   6.714  0.3152 -0.1827  0.3593
11274SOL    HW134603   4.276   5.847   6.741  1.2918 -1.2851 -0.7653
11274SOL    HW234604   4.382   5.891   6.642 -0.6811  2.0513 -1.5434
11275SOL     OW34605   3.275   3.491   3.350  0.1947  0.7185 -0.2551
11275SOL    HW134606   3.282   3.425   3.280 -2.3463 -0.4293  0.4475
11275SOL    HW234607   3.318   3.451   3.425  0.1573  0.5712 -0.3108
11276SOL     OW34608   4.872   2.711   3.891  0.4328  0.4120 -0.0278
11276SOL    HW134609   4.894   2.802   3.910 -0.1072  0.1582  1.9487
11276SOL    HW234610   4.865   2.708   3.795  3.3631  1.7509 -0.4101
11277SOL     OW34611   2.089   7.506   5.475 -0.2657 -0.3488  0.0876
11277SOL    HW134612   2.152   7.527   5.544 -1.0983 -0.3151  0.8506
11277SOL    HW234613   2.106   7.570   5.406  1.2301 -0.9944 -0.1733
11278SOL     OW34614   2.683   7.831   4.887 -0.3636 -0.4788 -0.0072
11278SOL    HW134615   2.696   7.755   4.944 -0.5725 -0.4359  0.1015
11278SOL    HW234616   2.758   7.888   4.905 -1.5456  0.5954  1.9367
11279SOL     OW34617   2.141   2.129   5.674  0.3329  0.3366  0.1340
11279SOL    HW134618   2.094   2.046   5.684 -0.4215  0.4446 -1.8893
11279SOL    HW234619   2.223   2.105   5.630  0.0247  0.6527 -0.6375
11280SOL     OW34620   7.239   4.861   7.486 -0.1349  0.5015 -0.0118
11280SOL    HW134621   7.168   4.814   7.530 -0.1648  1.5338  1.1036
11280SOL    HW234622   7.205   4.949   7.473  0.8536  0.9527  0.3631
11281SOL     OW34623   4.525   1.061   3.691 -0.6027 -0.1764 -0.1278
11281SOL    HW134624   4.532   1.129   3.758 -0.2746 -0.7281  0.4154
11281SOL    HW234625   4.593   1.082   3.628  0.3358 -0.6912  0.6868
11282SOL     OW34626   8.303   6.618   2.146  0.1563  0.2056  0.3858
11282SOL    HW134627   8.361   6.630   2.221  0.5086  0.8997  0.0179
11282SOL    HW234628   8.249   6.543   2.168  2.3111 -1.5207  0.0704
11283SOL     OW34629   1.262   7.266   6.810  0.0690 -0.4647  0.1066
11283SOL    HW134630   1.168   7.284   6.809  0.2881  0.7767  0.6831
11283SOL    HW234631   1.273   7.196   6.874 -0.3723 -0.0298  0.6616
11284SOL     OW34632   4.991   2.177   0.591  0.1535 -0.5201 -0.1348
11284SOL    HW134633   4.937   2.133   0.524 -1.3425  1.0735 -0.0589
11284SOL    HW234634   5.062   2.218   0.541  0.0873 -0.8541 -0.5141
11285SOL     OW34635   5.596   1.727   7.235  0.2553 -0.2506  0.3378
11285SOL    HW134636   5.516   1.692   7.275  0.1377 -1.2475 -0.7358
11285SOL    HW234637   5.606   1.678   7.154  1.4834  0.4852  0.0214
11286SOL     OW34638   6.217   3.645   5.572 -0.0355 -0.3258  0.1355
11286SOL    HW134639   6.260   3.694   5.642 -1.8671  0.2671  0.9070
11286SOL    HW234640   6.205   3.557   5.608  1.0327 -0.6649 -0.3094
11287SOL     OW34641   4.041   8.021   6.967  0.2970  0.1542 -0.5080
11287SOL    HW134642   4.052   8.115   6.980  0.0113  0.0321  0.7582
11287SOL    HW234643   3.952   8.002   6.998  0.1786 -0.4571 -1.1910
11288SOL     OW34644   5.044   1.586   0.350 -0.4938  1.1392  0.2521
11288SOL    HW134645   5.053   1.509   0.406 -1.7510  0.9518  0.2287
11288SOL    HW234646   5.053   1.661   0.409  0.7122  1.0007  0.2776
11289SOL     OW34647   3.725   8.218   0.624  0.3272 -0.1808  0.0950
11289SOL    HW134648   3.819   8.203   0.634  1.3653  3.9219 -1.4721
11289SOL    HW234649   3.706   8.192   0.533 -0.0892 -0.8785  0.3679
11290SOL     OW34650   2.489   3.563   5.534  0.0661 -0.1372 -0.1045
11290SOL    HW134651   2.511   3.522   5.618 -0.1744 -2.2086 -0.9956
11290SOL    HW234652   2.397   3.544   5.521  0.3068 -0.6311 -1.2368
11291SOL     OW34653   3.304   4.606   0.596 -0.1124 -0.4690  0.2759
11291SOL    HW134654   3.329   4.589   0.505  0.3484 -1.7462  0.6265
11291SOL    HW234655   3.208   4.610   0.594 -0.0847  0.1076 -0.3531
11292SOL     OW34656   1.664   2.804   3.172  0.1356 -0.6409 -0.3833
11292SOL    HW134657   1.717   2.768   3.101 -0.4984 -1.6146 -0.3780
11292SOL    HW234658   1.588   2.841   3.128  0.1884 -0.4137 -0.2844
11293SOL     OW34659   2.632   2.408   5.088 -0.0233 -0.4347 -0.2476
11293SOL    HW134660   2.544   2.370   5.082 -0.2300  0.0883 -0.5837
11293SOL    HW234661   2.631   2.481   5.026  1.1543 -1.3694 -1.4234
11294SOL     OW34662   8.196   1.088   0.742 -0.1727  0.5618  0.0949
11294SOL    HW134663   8.160   1.165   0.787  0.0741  1.4884 -1.2312
11294SOL    HW234664   8.203   1.115   0.650  0.9713 -0.6723 -0.2120
11295SOL     OW34665   1.624   1.481   5.260 -0.1525  0.6420  0.1250
11295SOL    HW134666   1.556   1.530   5.307  0.4302  0.3891  1.2639
11295SOL    HW234667   1.704   1.531   5.274  0.7454 -1.1995  2.4441
11296SOL     OW34668   4.763   2.356   1.436 -0.1551  0.4155  0.2842
11296SOL    HW134669   4.802   2.398   1.514 -0.0146  0.3148  0.2696
11296SOL    HW234670   4.680   2.320   1.467 -0.9712  1.9551 -0.0394
11297SOL     OW34671   0.502   4.750   5.247  0.3559  0.2973  0.0478
11297SOL    HW134672   0.427   4.808   5.262  0.4096  0.3800 -0.0018
11297SOL    HW234673   0.489   4.678   5.308  0.6833  0.7382  0.6580
11298SOL     OW34674   3.126   5.733   2.135  0.6579  0.5916  0.2978
11298SOL    HW134675   3.112   5.689   2.219  0.5800  0.1824  0.0729
11298SOL    HW234676   3.221   5.730   2.123  0.6372  0.3194  0.1958
11299SOL     OW34677   5.812   1.097   6.081 -0.6517 -0.2755 -0.0619
11299SOL    HW134678   5.868   1.082   6.005 -0.5411  1.2102 -0.2994
11299SOL    HW234679   5.872   1.095   6.156 -0.7295 -1.5164  0.0042
11300SOL     OW34680   2.449   8.006   5.263 -0.2675 -0.1233 -0.5924
11300SOL    HW134681   2.512   8.019   5.334  0.3179  2.4588 -1.4464
11300SOL    HW234682   2.365   8.029   5.302 -0.3152 -1.0537 -0.1258
11301SOL     OW34683   8.227   1.487   3.303 -0.3464 -0.4842 -0.4270
11301SOL    HW134684   8.198   1.509   3.215  1.2704  1.3708 -0.5455
11301SOL    HW234685   8.189   1.555   3.359 -0.5600 -1.0897  0.1805
11302SOL     OW34686   1.356   6.000   3.906  0.3701  0.2222  0.0116
11302SOL    HW134687   1.282   6.009   3.845  0.4046 -0.5187 -0.1487
11302SOL    HW234688   1.433   6.003   3.851  0.4397  0.4446  0.1198
11303SOL     OW34689   8.128   0.088   6.525 -0.4466 -0.5779  0.1116
11303SOL    HW134690   8.057   0.067   6.465  0.2921 -0.2579 -0.9030
11303SOL    HW234691   8.203   0.108   6.468  0.5783 -1.3231  1.1365
11304SOL     OW34692   8.119   5.795   2.554 -0.3968 -0.0081 -0.8189
11304SOL    HW134693   8.197   5.837   2.590  1.1979 -2.1874 -1.5364
11304SOL    HW234694   8.095   5.728   2.618 -1.8118  0.7388 -0.5355
11305SOL     OW34695   7.607   4.513   7.061 -0.2882  0.4645  0.8789
11305SOL    HW134696   7.568   4.546   7.142 -0.9856 -0.2795  0.8623
11305SOL    HW234697   7.677   4.454   7.091 -0.3976  0.3630  0.9362
11306SOL     OW34698   0.984   7.549   8.230 -0.2320  0.1312  0.0904
11306SOL    HW134699   1.027   7.489   8.291  0.2887  0.4047 -0.0068
11306SOL    HW234700   1.003   7.515   8.143 -0.6229 -0.0214  0.0627
11307SOL     OW34701   2.123   1.751   4.237 -0.2543  0.4055 -0.3032
11307SOL    HW134702   2.106   1.691   4.310 -2.4475  0.3009 -0.8315
11307SOL    HW234703   2.124   1.838   4.277 -1.3916  0.3431 -0.0970
11308SOL     OW34704   0.094   1.200   1.480  0.2666  0.2513  0.1379
11308SOL    HW134705   0.183   1.224   1.505  1.4321 -3.3188 -0.1146
11308SOL    HW234706   0.096   1.194   1.385 -0.7387  1.6196 -0.0098
11309SOL     OW34707   0.574   7.426   3.024 -0.2387  0.1470 -0.0201
11309SOL    HW134708   0.550   7.488   2.954 -1.8046  2.1475  2.1340
11309SOL    HW234709   0.490   7.393   3.057  0.2833  1.0140  2.3648
11310SOL     OW34710   0.626   1.416   3.793 -0.4927 -0.3611  0.3760
11310SOL    HW134711   0.674   1.334   3.785  0.5775  0.3349 -0.6700
11310SOL    HW234712   0.551   1.407   3.734 -1.1275 -1.0684  1.2603
11311SOL     OW34713   6.311   7.672   3.367 -0.0843  0.2868 -0.1762
11311SOL    HW134714   6.314   7.613   3.442  1.0742 -0.6109 -0.9008
11311SOL    HW234715   6.391   7.725   3.374 -1.2602  2.0588  0.6444
11312SOL     OW34716   5.167   6.249   1.882 -0.3748 -0.0100 -0.9865
11312SOL    HW134717   5.187   6.286   1.967 -2.1259 -0.1456 -0.4771
11312SOL    HW234718   5.212   6.306   1.819  0.9216  0.0925  0.0014
11313SOL     OW34719   5.005   5.397   2.277 -0.2599  0.1618  0.3116
11313SOL    HW134720   4.966   5.401   2.190 -0.4997  1.0185  0.4537
11313SOL    HW234721   5.055   5.477   2.285  3.1038 -1.6752 -0.5584
11314SOL     OW34722   0.521   3.452   4.838  0.0653 -0.8089 -0.2165
11314SOL    HW134723   0.470   3.371   4.835  2.5552 -2.4910 -1.9784
11314SOL    HW234724   0.611   3.424   4.820  1.0537  2.3589 -0.9249
11315SOL     OW34725   5.372   4.398   3.321  0.0180 -0.5365  0.2969
11315SOL    HW134726   5.415   4.446   3.250  1.4547 -0.3439  1.2650
11315SOL    HW234727   5.379   4.456   3.397 -0.7080 -1.1166  0.8265
11316SOL     OW34728   5.490   1.788   3.910 -0.5359 -0.2744  0.1408
11316SOL    HW134729   5.423   1.725   3.882 -1.1024  1.0257 -1.6349
11316SOL    HW234730   5.573   1.744   3.895 -0.9309 -0.7114 -0.8568
11317SOL     OW34731   2.765   0.592   0.401 -0.4732 -0.5015  0.1705
11317SOL    HW134732   2.830   0.630   0.342  0.4280 -0.8166  0.9346
11317SOL    HW234733   2.690   0.572   0.344  0.9896 -2.3986 -1.2360
11318SOL     OW34734   2.431   4.663   2.914 -0.0505  0.0143 -0.3149
11318SOL    HW134735   2.338   4.643   2.901  0.6942 -2.5523 -3.0371
11318SOL    HW234736   2.440   4.754   2.886 -1.7174  0.3159  0.0083
11319SOL     OW34737   2.206   7.537   2.083 -0.1162  0.3110 -0.1663
11319SOL    HW134738   2.166   7.618   2.116 -0.9065 -0.1299 -0.0082
11319SOL    HW234739   2.262   7.565   2.010 -0.4715  0.9866 -0.1846
11320SOL     OW34740   7.125   5.465   1.047 -0.0711 -0.2093  1.0976
11320SOL    HW134741   7.106   5.402   1.117  0.2134 -1.3012  0.2132
11320SOL    HW234742   7.129   5.413   0.967 -0.9065  1.0842  0.1565
11321SOL     OW34743   6.932   5.053   0.303  0.7615  0.1370  0.0456
11321SOL    HW134744   6.858   5.105   0.335 -0.6301 -2.0026  0.4600
11321SOL    HW234745   6.987   5.041   0.380  1.0532  0.8673 -0.0328
11322SOL     OW34746   3.929   1.272   4.380 -0.9435 -0.1163  0.1460
11322SOL    HW134747   3.955   1.363   4.367 -0.4078 -0.4664 -1.3819
11322SOL    HW234748   4.011   1.225   4.392 -0.9957 -0.8152 -1.9402
11323SOL     OW34749   6.219   6.157   6.905  0.2761 -0.3045 -0.2893
11323SOL    HW134750   6.206   6.083   6.845 -2.5577  1.2991 -1.8477
11323SOL    HW234751   6.144   6.153   6.964  1.4956 -0.1320  1.3432
11324SOL     OW34752   6.456   4.584   4.432  0.7668  0.4537  0.1853
11324SOL    HW134753   6.513   4.658   4.414  1.8278 -0.5409 -0.7025
11324SOL    HW234754   6.382   4.622   4.480  1.2538  2.0744 -0.2734
11325SOL     OW34755   1.470   0.901   5.315 -0.4758  0.9070 -0.0331
11325SOL    HW134756   1.509   0.824   5.274 -1.4574  0.1749  0.3750
11325SOL    HW234757   1.379   0.901   5.285 -0.8031  1.2143  0.9248
11326SOL     OW34758   2.709   4.323   3.519 -0.6132 -0.2027 -0.0558
11326SOL    HW134759   2.625   4.308   3.476 -0.3295 -1.0875 -0.3190
11326SOL    HW234760   2.692   4.308   3.612 -0.4271 -1.8963 -0.2636
11327SOL     OW34761   1.387   0.722   4.036  0.0310 -0.9119  0.0735
11327SOL    HW134762   1.355   0.797   4.086  2.6159  0.6643 -0.4431
11327SOL    HW234763   1.320   0.707   3.970 -0.5254  1.0140  0.1348
11328SOL     OW34764   1.601   6.362   6.580  0.0379  0.5318  0.9211
11328SOL    HW134765   1.623   6.412   6.659  0.8769  3.4135 -0.9837
11328SOL    HW234766   1.582   6.429   6.514  1.5800 -1.6604 -1.9364
11329SOL     OW34767   5.588   5.848   3.121 -0.5310 -0.1008 -0.2130
11329SOL    HW134768   5.541   5.764   3.127  1.4382 -1.1539  1.5816
11329SOL    HW234769   5.528   5.912   3.160 -1.7263 -0.8006 -0.8435
11330SOL     OW34770   4.312   3.249   7.003 -0.1101  0.2946 -0.5618
11330SOL    HW134771   4.395   3.286   6.974  0.7422 -1.6980 -0.7730
11330SOL    HW234772   4.250   3.270   6.932  0.8304 -0.4477 -1.6282
11331SOL     OW34773   7.764   4.173   0.303 -0.2368  0.1416 -0.1418
11331SOL    HW134774   7.772   4.085   0.267 -0.9461  0.8410 -2.1691
11331SOL    HW234775   7.793   4.165   0.394  3.7746 -1.3295 -1.3410
11332SOL     OW34776   7.726   2.518   3.047 -0.8011 -0.3523 -0.0859
11332SOL    HW134777   7.638   2.491   3.071 -0.8636  0.5244  0.7290
11332SOL    HW234778   7.783   2.450   3.082 -0.9656  0.4366  1.8421
11333SOL     OW34779   7.651   5.858   6.844 -0.3679  0.1312 -0.1036
11333SOL    HW134780   7.636   5.889   6.934  0.1683  0.2577 -0.0547
11333SOL    HW234781   7.743   5.876   6.828  0.2355 -2.2818  0.2596
11334SOL     OW34782   5.788   3.951   0.694  0.1071 -0.3501 -0.5490
11334SOL    HW134783   5.829   4.015   0.636  0.2747 -0.4844 -0.5767
11334SOL    HW234784   5.845   3.949   0.771 -1.3952  1.6938  0.7569
11335SOL     OW34785   4.778   2.319   1.085  0.5402  0.1106 -0.7785
11335SOL    HW134786   4.738   2.392   1.131 -0.0223 -0.1767 -0.7966
11335SOL    HW234787   4.863   2.351   1.057  0.9518  0.2552  0.5703
11336SOL     OW34788   7.720   3.813   4.034 -0.4685  0.0509  0.4404
11336SOL    HW134789   7.758   3.753   3.969 -0.3164 -0.5080  1.0406
11336SOL    HW234790   7.657   3.760   4.082  0.0555  0.2273  1.3321
11337SOL     OW34791   7.327   5.202   3.747  0.6261  0.1413 -0.1067
11337SOL    HW134792   7.293   5.223   3.834  1.7796  3.8905 -0.4203
11337SOL    HW234793   7.396   5.138   3.763  0.1042 -0.0530  1.5911
11338SOL     OW34794   4.674   1.774   4.654 -0.1144 -0.2049 -0.0424
11338SOL    HW134795   4.595   1.721   4.662 -0.3366  0.1740  0.2994
11338SOL    HW234796   4.712   1.774   4.742  1.2495 -1.8678 -0.5673
11339SOL     OW34797   6.740   7.761   0.945  0.4872  0.6525  0.2148
11339SOL    HW134798   6.670   7.741   1.008  1.4911 -2.3308  0.5310
11339SOL    HW234799   6.806   7.808   0.996  1.0845 -1.3312  1.3503
11340SOL     OW34800   4.925   6.930   1.345 -0.5060  0.1121 -0.2102
11340SOL    HW134801   4.987   6.861   1.371  0.3129  1.5169  1.7867
11340SOL    HW234802   4.888   6.898   1.263  2.3978 -1.0907 -1.1836
11341SOL     OW34803   3.769   4.587   1.079 -0.4495  0.0422 -0.1523
11341SOL    HW134804   3.838   4.554   1.136  0.0258  0.4671 -0.4637
11341SOL    HW234805   3.812   4.599   0.994 -0.8210  0.6213 -0.2684
11342SOL     OW34806   1.136   8.140   0.655 -0.3135 -0.5102  0.1450
11342SOL    HW134807   1.156   8.047   0.646  0.2955 -0.4466  0.7268
11342SOL    HW234808   1.049   8.150   0.616  0.1216 -1.0927 -1.0137
11343SOL     OW34809   5.944   6.946   2.541  0.2658 -0.0489 -1.1222
11343SOL    HW134810   6.009   6.876   2.539  0.4518  0.1165 -0.8285
11343SOL    HW234811   5.933   6.971   2.449  1.7177  0.9388 -1.0427
11344SOL     OW34812   6.264   0.503   3.902 -0.3684 -0.4273 -0.1738
11344SOL    HW134813   6.195   0.515   3.837 -0.9958  1.0022  0.7140
11344SOL    HW234814   6.217   0.474   3.981  0.0176  0.6000  0.4506
11345SOL     OW34815   6.471   4.308   8.105  0.0693  0.2604  0.4283
11345SOL    HW134816   6.512   4.225   8.083 -0.7512  0.2452 -1.1675
11345SOL    HW234817   6.460   4.305   8.200  0.9176 -1.0372  0.5071
11346SOL     OW34818   0.958   6.059   8.019  0.0160  0.2241 -0.2896
11346SOL    HW134819   1.016   6.030   8.090 -0.4139 -0.9483 -0.4031
11346SOL    HW234820   0.972   6.154   8.015  0.8741  0.1589  0.6198
11347SOL     OW34821   7.870   1.257   0.397  0.2805  0.0023 -0.5334
11347SOL    HW134822   7.935   1.319   0.364  1.4046 -0.4646  0.7623
11347SOL    HW234823   7.830   1.302   0.472  0.2331 -0.3496 -0.3475
11348SOL     OW34824   4.119   7.991   6.460  0.6039 -0.3671 -0.4989
11348SOL    HW134825   4.212   7.974   6.476 -0.2898 -4.1892  2.0716
11348SOL    HW234826   4.107   7.972   6.367  2.2698 -0.2802 -0.7652
11349SOL     OW34827   6.738   1.079   4.907  0.1185  0.3854 -0.0223
11349SOL    HW134828   6.699   1.012   4.963  0.0485 -1.0623 -1.7013
11349SOL    HW234829   6.749   1.155   4.964  0.3525 -1.0898  2.0310
11350SOL     OW34830   4.267   1.002   4.952  0.1520 -0.1326  0.0284
11350SOL    HW134831   4.362   1.005   4.960  0.2162 -1.0996 -0.2226
11350SOL    HW234832   4.246   0.909   4.951 -0.6301  0.0207 -1.8216
11351SOL     OW34833   3.719   1.194   2.182 -0.1379 -0.7090  0.1597
11351SOL    HW134834   3.702   1.262   2.246 -0.3159  0.0494 -0.6681
11351SOL    HW234835   3.650   1.205   2.116  0.3506 -1.1133 -0.4379
11352SOL     OW34836   0.532   1.595   7.189  0.2583  0.0311 -0.6102
11352SOL    HW134837   0.512   1.657   7.260  0.9629  0.3048 -0.6396
11352SOL    HW234838   0.572   1.649   7.121 -0.3172 -0.2504 -1.1740
11353SOL     OW34839   4.984   2.678   8.021  0.2290  0.3032  0.5937
11353SOL    HW134840   4.921   2.748   8.040 -0.8771 -0.6685  0.5854
11353SOL    HW234841   4.997   2.634   8.105  0.2301 -0.0435  0.4140
11354SOL     OW34842   3.593   7.315   7.834 -0.3749 -0.4572 -0.1759
11354SOL    HW134843   3.576   7.401   7.795  0.8244 -0.3779 -0.5711
11354SOL    HW234844   3.625   7.261   7.761 -2.6932 -1.7763 -0.3023
11355SOL     OW34845   0.055   7.082   3.494  0.8249 -0.2029 -0.0825
11355SOL    HW134846   0.086   7.067   3.405 -0.4994 -0.9686 -0.4503
11355SOL    HW234847   0.063   6.998   3.537  0.4686 -0.1056  0.1821
11356SOL     OW34848   0.916   2.100   3.773  0.2864  0.4999 -0.1152
11356SOL    HW134849   0.846   2.110   3.837  1.0758  0.3783  0.7888
11356SOL    HW234850   0.975   2.174   3.789  1.6569 -0.7242  0.8254
11357SOL     OW34851   4.639   1.100   5.544  0.2228 -0.7858  0.1480
11357SOL    HW134852   4.724   1.065   5.569  0.7330  0.1689 -0.1810
11357SOL    HW234853   4.632   1.182   5.593 -0.7846 -1.1587  0.6466
11358SOL     OW34854   3.089   4.831   4.147 -0.2517  0.3477  0.4701
11358SOL    HW134855   3.002   4.826   4.107 -0.2041  2.8114 -0.0637
11358SOL    HW234856   3.073   4.865   4.235 -0.0839 -2.4933  1.7262
11359SOL     OW34857   7.509   2.409   3.129 -0.1698  0.0316 -0.2646
11359SOL    HW134858   7.479   2.318   3.129  0.1586 -0.0847 -1.3295
11359SOL    HW234859   7.434   2.459   3.097 -0.2772  0.1181  0.1128
11360SOL     OW34860   6.438   3.555   0.556  0.0075 -0.8049  0.0067
11360SOL    HW134861   6.476   3.471   0.583 -1.0210 -0.6113  2.2786
11360SOL    HW234862   6.376   3.577   0.626 -1.2527  0.8785 -1.5407
11361SOL     OW34863   2.710   1.411   0.075  0.3712  0.3396 -0.1498
11361SOL    HW134864   2.702   1.472   0.149  0.4364  1.8450 -1.3234
11361SOL    HW234865   2.634   1.429   0.021  0.4697 -0.5494 -0.6034
11362SOL     OW34866   7.120   0.671   1.091  0.4844 -0.4830  0.2730
11362SOL    HW134867   7.137   0.688   1.184 -0.5287 -1.3310  0.6396
11362SOL    HW234868   7.026   0.687   1.081  0.6550 -0.0384 -0.7024
11363SOL     OW34869   2.638   6.175   0.661 -0.0805 -0.1830 -0.4767
11363SOL    HW134870   2.580   6.251   0.670 -1.2033 -1.0178 -0.4790
11363SOL    HW234871   2.589   6.103   0.701  0.7684 -1.0029 -0.8934
11364SOL     OW34872   4.733   5.155   4.556  0.6381 -0.2360 -0.3226
11364SOL    HW134873   4.771   5.069   4.573  0.3444 -0.1619  0.7764
11364SOL    HW234874   4.670   5.168   4.627 -0.5084  0.1927 -1.3982
11365SOL     OW34875   5.224   1.609   5.995 -0.1106 -0.1169 -0.4483
11365SOL    HW134876   5.145   1.663   5.999 -0.8986 -1.2676 -0.0773
11365SOL    HW234877   5.198   1.533   5.943  1.2824  0.3059 -1.8528
11366SOL     OW34878   6.043   3.923   5.708 -0.3545  0.6591  0.4476
11366SOL    HW134879   6.088   3.955   5.787 -1.1094 -1.1322  1.6950
11366SOL    HW234880   6.070   3.982   5.639  1.7753  1.2604  1.6912
11367SOL     OW34881   0.096   4.856   2.705 -0.0771 -0.6627  0.3052
11367SOL    HW134882   0.190   4.840   2.714  0.0621 -0.0918 -0.0902
11367SOL    HW234883   0.077   4.925   2.768  0.4581  1.7061 -1.9676
11368SOL     OW34884   5.316   6.587   5.647 -0.1518  0.3947 -0.6285
11368SOL    HW134885   5.231   6.565   5.685  0.3934 -0.3526  0.1820
11368SOL    HW234886   5.380   6.543   5.703  0.9019  2.6124  0.0116
11369SOL     OW34887   2.584   4.640   3.969  0.0432 -0.0611 -0.0225
11369SOL    HW134888   2.583   4.660   3.875 -1.3880 -0.1206 -0.0278
11369SOL    HW234889   2.519   4.699   4.007  0.0050 -0.6373  0.8156
11370SOL     OW34890   4.009   4.263   1.660 -0.4220  0.1539 -0.3199
11370SOL    HW134891   4.036   4.271   1.568  0.6532  0.9254  0.0347
11370SOL    HW234892   4.072   4.202   1.698  0.7624  1.7916  0.4701
11371SOL     OW34893   6.712   4.324   5.069 -0.3436 -0.2100  0.3218
11371SOL    HW134894   6.789   4.267   5.059  0.6048  1.1781 -0.5173
11371SOL    HW234895   6.715   4.351   5.161  0.8778  0.7896  0.0026
11372SOL     OW34896   4.774   1.249   2.868 -0.1677 -0.3120  0.5124
11372SOL    HW134897   4.680   1.254   2.853  0.1279 -0.3446 -1.7185
11372SOL    HW234898   4.802   1.339   2.882 -0.3602 -0.1625 -0.0659
11373SOL     OW34899   1.389   7.673   1.867  0.2823  0.1438 -0.0756
11373SOL    HW134900   1.307   7.718   1.886  0.6822  0.0569  2.1479
11373SOL    HW234901   1.386   7.594   1.921 -0.2532 -2.5160 -3.5596
11374SOL     OW34902   3.696   7.473   2.999  0.1252 -0.3825 -0.2215
11374SOL    HW134903   3.783   7.480   2.961  1.4578 -0.1308  2.6780
11374SOL    HW234904   3.694   7.387   3.040 -0.6716 -0.0548  0.4663
11375SOL     OW34905   4.716   5.311   5.326 -0.4073  0.4072 -0.3942
11375SOL    HW134906   4.724   5.406   5.339  1.0268  0.5413 -1.8594
11375SOL    HW234907   4.630   5.299   5.288 -2.0916  0.6650  2.9722
11376SOL     OW34908   4.168   4.598   2.438 -0.3149  0.0885 -0.9317
11376SOL    HW134909   4.178   4.523   2.496  1.5085  1.6775  1.0083
11376SOL    HW234910   4.075   4.601   2.417 -0.5377 -2.2864 -0.5589
11377SOL     OW34911   2.522   3.975   5.063  0.6694 -0.2560  0.8906
11377SOL    HW134912   2.594   3.928   5.021  0.4673 -1.1502  1.4965
11377SOL    HW234913   2.498   4.044   5.001  2.5505  0.5685  1.0098
11378SOL     OW34914   3.333   6.093   1.899 -0.2337 -0.3431 -0.3907
11378SOL    HW134915   3.377   6.139   1.971 -1.5530 -0.9954  0.8915
11378SOL    HW234916   3.282   6.161   1.856  0.5691  0.0568 -0.7318
11379SOL     OW34917   4.930   0.583   7.566  0.5268  0.2986  0.0667
11379SOL    HW134918   4.979   0.539   7.636 -0.1850 -0.0138  0.3759
11379SOL    HW234919   4.935   0.523   7.492  0.2165  0.0542  0.2436
11380SOL     OW34920   8.142   4.086   6.443 -0.1047  0.3610  0.2707
11380SOL    HW134921   8.200   4.148   6.487 -0.4846  2.0586 -1.4631
11380SOL    HW234922   8.166   4.093   6.350 -1.2431 -0.9409 -0.1479
11381SOL     OW34923   3.757   7.920   2.885  0.3796 -0.3421  0.1724
11381SOL    HW134924   3.771   7.903   2.978  2.0677 -0.8232 -0.1274
11381SOL    HW234925   3.727   7.836   2.850 -1.4553  0.1486  0.4493
11382SOL     OW34926   0.916   4.191   2.007 -0.7885 -0.0909 -0.1100
11382SOL    HW134927   0.972   4.178   2.084 -2.3281 -0.5042  0.9893
11382SOL    HW234928   0.878   4.278   2.019 -3.0761 -1.1663  1.0379
11383SOL     OW34929   5.627   3.657   4.172 -0.7070 -0.0202 -0.2421
11383SOL    HW134930   5.635   3.739   4.123  4.3631  0.1530  0.3931
11383SOL    HW234931   5.621   3.684   4.263 -0.8713 -0.3877 -0.1421
11384SOL     OW34932   6.378   7.433   0.635  0.0807  0.1535  0.2835
11384SOL    HW134933   6.334   7.424   0.719  1.0403  2.2562  1.0745
11384SOL    HW234934   6.471   7.420   0.655  0.3559  1.0523 -0.3706
11385SOL     OW34935   6.232   6.349   7.137 -0.1465  0.0972 -0.0753
11385SOL    HW134936   6.181   6.299   7.073  1.1124 -1.2758 -0.0645
11385SOL    HW234937   6.193   6.326   7.221  0.2966 -0.7301 -0.0879
11386SOL     OW34938   5.610   2.836   0.472 -0.3953 -0.1088 -0.4938
11386SOL    HW134939   5.516   2.832   0.489 -0.5161  1.2383 -0.6825
11386SOL    HW234940   5.626   2.928   0.450  1.1888 -0.0129  0.8473
11387SOL     OW34941   1.618   4.108   5.368 -0.5011  0.1299 -0.4808
11387SOL    HW134942   1.586   4.034   5.316  1.1571 -0.1697 -1.1426
11387SOL    HW234943   1.713   4.099   5.366 -0.3199  1.5366  0.5579
11388SOL     OW34944   5.895   5.602   6.947 -0.1606  0.4756 -0.3562
11388SOL    HW134945   5.965   5.569   6.891 -1.2000  0.9695 -2.0005
11388SOL    HW234946   5.909   5.696   6.951  1.1187  0.2804  2.0015
11389SOL     OW34947   2.544   4.356   3.738  0.2189  0.2935 -0.6465
11389SOL    HW134948   2.543   4.360   3.834 -0.3473  1.3105 -0.6770
11389SOL    HW234949   2.514   4.268   3.717 -0.6434  0.3962  0.1102
11390SOL     OW34950   4.898   0.915   3.361 -0.1364 -0.4874 -0.1364
11390SOL    HW134951   4.898   0.893   3.268  2.0307  2.6207 -1.0621
11390SOL    HW234952   4.819   0.968   3.374 -0.5190 -1.0493 -0.1373
11391SOL     OW34953   0.143   2.694   0.016  0.0853  0.7749  0.3794
11391SOL    HW134954   0.216   2.639   0.046  1.1032  2.2086  0.6279
11391SOL    HW234955   0.090   2.635  -0.037  0.6853 -0.6634  1.2887
11392SOL     OW34956   7.681   1.989   4.606  0.4067  0.2555 -0.1504
11392SOL    HW134957   7.608   2.017   4.552  0.7959  0.4551 -0.5804
11392SOL    HW234958   7.741   2.064   4.606  2.3019 -1.0858 -2.7594
11393SOL     OW34959   4.354   1.854   1.792  0.4030  0.1142  0.0116
11393SOL    HW134960   4.418   1.816   1.852 -0.0035  1.5734  1.4234
11393SOL    HW234961   4.269   1.829   1.829  0.1447  0.2605 -0.4755
11394SOL     OW34962   5.298   3.599   4.666 -0.5298  0.1720 -0.0799
11394SOL    HW134963   5.281   3.663   4.735 -1.2328 -0.8223  0.6930
11394SOL    HW234964   5.367   3.543   4.701 -0.8190 -0.2751 -0.2103
11395SOL     OW34965   4.224   0.898   3.862 -0.3910  0.8892 -0.4059
11395SOL    HW134966   4.273   0.912   3.943  1.4822  1.5428 -1.5752
11395SOL    HW234967   4.199   0.986   3.834  0.0911  0.7996 -1.1609
11396SOL     OW34968   6.641   8.093   1.894 -0.1498  0.0858  0.0394
11396SOL    HW134969   6.605   8.007   1.873 -0.9000  0.5740 -0.7262
11396SOL    HW234970   6.733   8.087   1.870  0.4374 -1.2746  2.2851
11397SOL     OW34971   3.319   5.472   7.421 -0.2205 -0.7979 -0.2501
11397SOL    HW134972   3.358   5.427   7.496  1.4762  3.4466  1.7578
11397SOL    HW234973   3.243   5.419   7.398  1.6372 -4.6551  1.5739
11398SOL     OW34974   6.876   5.158   3.873  0.7149  1.0478 -0.4698
11398SOL    HW134975   6.782   5.170   3.891  0.4106  1.1475 -1.9676
11398SOL    HW234976   6.919   5.222   3.931 -0.0318  0.2147  1.0838
11399SOL     OW34977   1.120   1.341   1.987 -0.6193 -0.3247 -0.1152
11399SOL    HW134978   1.206   1.318   1.949  1.6494  1.5845  3.3343
11399SOL    HW234979   1.108   1.279   2.058 -1.9178 -0.2986 -0.2997
11400SOL     OW34980   3.896   7.981   2.487  0.9096 -0.5704 -0.3130
11400SOL    HW134981   3.874   8.025   2.569  0.2260 -0.1907 -0.6889
11400SOL    HW234982   3.923   8.052   2.429  0.4606 -0.7288 -0.7136
11401SOL     OW34983   2.299   6.578   8.095  0.4190  0.0093 -0.0975
11401SOL    HW134984   2.275   6.659   8.049  1.2542  0.9675  1.1120
11401SOL    HW234985   2.343   6.607   8.174 -0.4361 -1.6199  1.0307
11402SOL     OW34986   3.395   0.928   3.636  0.0698  0.3268 -0.2944
11402SOL    HW134987   3.446   1.005   3.611  0.6161  0.3533  0.8696
11402SOL    HW234988   3.350   0.902   3.555 -0.2848  1.9785 -0.6652
11403SOL     OW34989   7.724   6.468   5.851 -0.0857 -0.1100  0.4680
11403SOL    HW134990   7.676   6.445   5.771  1.6226 -0.1868 -0.6113
11403SOL    HW234991   7.739   6.384   5.895  1.0074 -0.3979 -0.3963
11404SOL     OW34992   8.212   0.189   0.894 -0.3793 -0.2511  0.2612
11404SOL    HW134993   8.295   0.226   0.863 -0.1684 -2.0084 -1.4936
11404SOL    HW234994   8.197   0.231   0.978  2.0863  0.4460  0.4427
11405SOL     OW34995   2.242   1.100   6.059  0.3444  0.1134  0.2215
11405SOL    HW134996   2.331   1.123   6.085  1.2398 -2.5226 -0.1306
11405SOL    HW234997   2.225   1.017   6.105 -1.2047 -0.3563 -1.1072
11406SOL     OW34998   8.086   2.374   0.992 -0.4287 -0.4412  0.1090
11406SOL    HW134999   8.031   2.296   0.986 -1.4962  0.3145 -0.0913
11406SOL    HW235000   8.051   2.433   0.926  0.2085  0.3093  0.4323
11407SOL     OW35001   3.423   4.845   7.840 -0.3183  0.4811 -0.9090
11407SOL    HW135002   3.469   4.898   7.775 -1.5761  0.7426 -1.6184
11407SOL    HW235003   3.332   4.873   7.833 -0.7552 -0.7154 -0.2370
11408SOL     OW35004   4.242   2.603   4.057 -0.4243  0.1758  0.3622
11408SOL    HW135005   4.226   2.661   4.131  0.1823  0.0310  0.6183
11408SOL    HW235006   4.156   2.587   4.019 -0.8031 -0.1261  1.3269
11409SOL     OW35007   1.693   4.598   0.751 -0.6829 -0.2161  0.2473
11409SOL    HW135008   1.635   4.541   0.801  2.5108 -1.4634  2.9629
11409SOL    HW235009   1.736   4.539   0.689 -0.2280  0.0610  0.2985
11410SOL     OW35010   3.436   7.112   6.657 -0.3188  0.2355  0.3604
11410SOL    HW135011   3.413   7.055   6.730  0.0575 -0.0431  0.2621
11410SOL    HW235012   3.522   7.082   6.629  0.0785  1.1147  0.5794
11411SOL     OW35013   3.262   3.294   3.177 -0.2467  0.1329 -0.0976
11411SOL    HW135014   3.314   3.216   3.193 -0.6504 -0.2403 -0.5805
11411SOL    HW235015   3.247   3.295   3.083 -1.9563 -0.3294  0.1280
11412SOL     OW35016   1.071   4.738   4.370  0.6054  0.6065  0.0967
11412SOL    HW135017   1.083   4.712   4.279  1.1203 -0.3552  0.4261
11412SOL    HW235018   1.015   4.670   4.408  1.1042  0.5224  0.7064
11413SOL     OW35019   8.146   2.592   7.626 -0.6383 -0.2674  0.2244
11413SOL    HW135020   8.195   2.533   7.683 -2.2089  0.1403  2.1132
11413SOL    HW235021   8.057   2.589   7.660 -1.5963  0.2356 -2.0886
11414SOL     OW35022   2.004   0.663   3.179  0.5373 -0.0378  0.4545
11414SOL    HW135023   1.999   0.568   3.168  0.8863 -0.1937  1.5137
11414SOL    HW235024   1.943   0.682   3.251 -0.6563  0.7407 -0.7208
11415SOL     OW35025   6.550   5.624   4.423  0.1001 -0.5374  0.2532
11415SOL    HW135026   6.545   5.611   4.328 -0.5674  1.1416  0.0358
11415SOL    HW235027   6.553   5.535   4.459  1.3894 -1.2040 -1.3715
11416SOL     OW35028   5.406   7.318   3.328 -0.6253 -0.2841 -0.0771
11416SOL    HW135029   5.424   7.379   3.399 -1.7199  0.2943 -0.2579
11416SOL    HW235030   5.327   7.353   3.286  0.3694 -0.2092 -2.0134
11417SOL     OW35031   6.392   4.676   0.506 -0.2341  0.2562  0.4122
11417SOL    HW135032   6.476   4.716   0.529  0.9773 -0.3605 -2.5219
11417SOL    HW235033   6.337   4.749   0.478  0.5047  0.3829 -0.8040
11418SOL     OW35034   4.120   0.353   3.692  0.5202 -0.0253  0.2302
11418SOL    HW135035   4.133   0.400   3.609  1.2944 -1.1208 -0.3024
11418SOL    HW235036   4.084   0.268   3.666  1.4365 -0.6522  0.9299
11419SOL     OW35037   0.361   1.183   5.642  0.0993 -0.2093  0.0980
11419SOL    HW135038   0.301   1.149   5.708 -0.1554 -0.0060 -0.0218
11419SOL    HW235039   0.396   1.105   5.598  0.8752 -0.3720  0.9884
11420SOL     OW35040   1.480   4.627   5.414  0.3868  0.0992 -0.6141
11420SOL    HW135041   1.569   4.662   5.421  0.2523  0.5790 -1.2634
11420SOL    HW235042   1.479   4.581   5.330  0.5612 -1.4977  0.2212
11421SOL     OW35043   7.502   6.165   1.200 -0.4256 -0.1168  1.2268
11421SOL    HW135044   7.539   6.221   1.132 -1.5384  0.4578  1.0885
11421SOL    HW235045   7.475   6.086   1.154  2.6058 -1.5523  1.6453
11422SOL     OW35046   7.399   4.329   7.047 -0.3769 -0.1417 -0.2623
11422SOL    HW135047   7.477   4.383   7.055  1.0483 -2.0341 -0.7387
11422SOL    HW235048   7.371   4.339   6.956  0.4672 -0.9236 -0.6238
11423SOL     OW35049   0.867   3.482   2.927 -0.0952  0.5826  0.3980
11423SOL    HW135050   0.894   3.549   2.864  1.0247  2.6255  2.9225
11423SOL    HW235051   0.942   3.423   2.932 -0.3785  0.1282 -0.4952
11424SOL     OW35052   6.770   3.594   0.114  0.1217  0.6838 -0.0698
11424SOL    HW135053   6.838   3.530   0.094 -0.3568  0.4781 -1.1217
11424SOL    HW235054   6.691   3.558   0.075 -0.3665  1.4398  0.2010
11425SOL     OW35055   5.061   5.474   4.178 -0.1020 -0.1286  0.6551
11425SOL    HW135056   5.148   5.514   4.178 -0.0789  0.0132 -1.8746
11425SOL    HW235057   5.000   5.547   4.190  0.0637  0.1437 -0.1343
11426SOL     OW35058   1.896   1.993   1.899  0.4647 -0.2442  0.1756
11426SOL    HW135059   1.862   1.903   1.896 -2.3328  0.6096  2.2587
11426SOL    HW235060   1.991   1.983   1.888 -0.0382 -2.9725 -4.4979
11427SOL     OW35061   4.097   2.293   0.792  0.0421 -0.0463  0.5485
11427SOL    HW135062   4.025   2.327   0.845 -0.4952 -1.3221  0.6727
11427SOL    HW235063   4.173   2.344   0.819 -0.2984 -0.4012  2.2764
11428SOL     OW35064   5.547   7.995   1.006 -0.0727 -0.1602  0.4441
11428SOL    HW135065   5.552   8.061   0.937 -1.7732 -1.6899 -1.2569
11428SOL    HW235066   5.615   8.020   1.068  0.0694  2.5436 -0.6594
11429SOL     OW35067   5.109   2.802   6.770  0.0792  1.1010 -0.2255
11429SOL    HW135068   5.055   2.743   6.718 -0.3946  2.7805 -1.7379
11429SOL    HW235069   5.055   2.824   6.846  0.2199 -0.2708  0.3022
11430SOL     OW35070   7.013   0.934   1.967  0.4832  0.5290 -0.0270
11430SOL    HW135071   7.072   0.909   1.896  2.3137  1.3885  1.1135
11430SOL    HW235072   7.059   1.003   2.014 -0.2575 -0.5620  2.4984
11431SOL     OW35073   6.624   2.349   0.244  0.6096  0.3799  0.4141
11431SOL    HW135074   6.641   2.274   0.302 -1.8184 -0.3954  0.2678
11431SOL    HW235075   6.557   2.400   0.291 -0.3451  0.5165 -1.0226
11432SOL     OW35076   0.866   3.220   4.190  0.3386  0.6127  0.0715
11432SOL    HW135077   0.813   3.142   4.174 -0.2772  1.2191 -0.8886
11432SOL    HW235078   0.810   3.276   4.244  0.9966  0.1734  1.2585
11433SOL     OW35079   4.467   1.750   0.622  0.0721 -0.1064 -0.2905
11433SOL    HW135080   4.452   1.796   0.539  0.7264  0.3623 -0.1551
11433SOL    HW235081   4.496   1.819   0.682  3.4344 -1.0086 -0.7009
11434SOL     OW35082   6.187   0.103   7.360  0.3831 -0.0256  0.2285
11434SOL    HW135083   6.245   0.178   7.345  0.9526 -0.3611  0.7301
11434SOL    HW235084   6.100   0.142   7.369  0.2207  0.3334 -2.3089
11435SOL     OW35085   1.324   6.764   5.960  0.5846  0.2166 -0.4486
11435SOL    HW135086   1.304   6.727   5.874 -1.6664 -1.8668  0.8257
11435SOL    HW235087   1.305   6.857   5.951 -1.5845 -0.2769 -1.7393
11436SOL     OW35088   1.964   7.134   3.068 -0.2390 -0.2732 -0.7790
11436SOL    HW135089   1.921   7.151   2.984  0.5610  1.7407 -0.8331
11436SOL    HW235090   2.053   7.168   3.057  0.7030 -2.3124  0.0628
11437SOL     OW35091   4.606   1.474   3.354  0.4897  0.7912  0.0701
11437SOL    HW135092   4.636   1.417   3.283 -0.4192  0.2115  0.1319
11437SOL    HW235093   4.525   1.512   3.321  1.7169  3.0961 -0.4866
11438SOL     OW35094   0.512   2.685   5.700 -0.0634  0.2264  0.1937
11438SOL    HW135095   0.448   2.694   5.772 -0.8012  0.7729 -0.5125
11438SOL    HW235096   0.542   2.595   5.707 -1.0548 -0.1018  0.4409
11439SOL     OW35097   1.871   4.313   0.106  0.0863  0.0537 -0.0844
11439SOL    HW135098   1.844   4.367   0.180 -1.2843  0.5682 -0.9360
11439SOL    HW235099   1.866   4.371   0.031  1.1342 -0.5604 -0.6541
11440SOL     OW35100   5.034   0.566   0.799  0.1086 -0.0856 -0.3436
11440SOL    HW135101   5.051   0.652   0.762  1.6974  0.0021  0.4915
11440SOL    HW235102   5.110   0.549   0.855 -0.4858 -1.7499  0.0081
11441SOL     OW35103   1.069   2.398   7.566 -0.0152 -0.4851 -0.1934
11441SOL    HW135104   1.052   2.359   7.652 -1.6232 -0.4226 -0.4381
11441SOL    HW235105   0.984   2.435   7.540  1.0198  1.7307 -0.6999
11442SOL     OW35106   1.644   0.427   5.332 -0.0915  0.1445 -0.2558
11442SOL    HW135107   1.571   0.371   5.358 -0.4089  1.0425  0.8687
11442SOL    HW235108   1.718   0.397   5.384 -0.6537  1.7429  1.6200
11443SOL     OW35109   4.844   8.064   6.451  0.1097  0.1124  0.0579
11443SOL    HW135110   4.760   8.073   6.407 -0.0396  2.4128  0.6851
11443SOL    HW235111   4.908   8.059   6.380 -0.4328 -0.3077 -0.4118
11444SOL     OW35112   3.731   4.094   7.177 -0.2898 -0.0670  0.8981
11444SOL    HW135113   3.684   4.020   7.139 -0.6616 -0.1162  1.4507
11444SOL    HW235114   3.667   4.164   7.182  0.4225  0.7802 -0.9656
11445SOL     OW35115   7.742   8.207   6.574  0.2193 -0.4175 -0.1252
11445SOL    HW135116   7.815   8.241   6.522  1.2453  0.7349  1.9244
11445SOL    HW235117   7.721   8.278   6.635 -1.6460 -1.2856  0.3213
11446SOL     OW35118   6.041   7.665   4.615  0.1192  0.4872  0.1998
11446SOL    HW135119   6.081   7.615   4.686 -0.3724  0.3919  0.4093
11446SOL    HW235120   6.091   7.747   4.612 -1.1986  1.4277  2.0810
11447SOL     OW35121   8.089   2.588   0.840 -0.4017 -0.5103  0.0971
11447SOL    HW135122   8.012   2.633   0.804  1.2436  1.6640 -0.9430
11447SOL    HW235123   8.163   2.626   0.793  1.3658 -2.2886  1.2838
11448SOL     OW35124   5.856   0.124   4.045  0.3383 -0.3073 -0.0434
11448SOL    HW135125   5.945   0.090   4.046  0.4863  0.0829  0.6790
11448SOL    HW235126   5.828   0.117   3.954  0.0837 -3.0557  0.1637
11449SOL     OW35127   7.015   4.156   1.212 -0.7588  0.3353 -0.2236
11449SOL    HW135128   6.951   4.147   1.140 -0.1114  1.0125 -0.9023
11449SOL    HW235129   7.094   4.188   1.169  0.2349 -1.0383  0.5264
11450SOL     OW35130   6.202   1.779   7.592 -0.2524  0.2837 -0.1574
11450SOL    HW135131   6.222   1.854   7.648 -0.1717 -0.6413  1.1108
11450SOL    HW235132   6.135   1.811   7.532 -1.3256  0.9891  1.3367
11451SOL     OW35133   6.228   5.975   2.329  0.3174  0.4008 -0.3296
11451SOL    HW135134   6.324   5.974   2.321  0.3208 -0.5237 -0.2373
11451SOL    HW235135   6.206   5.887   2.358 -0.5734  0.5978 -0.4046
11452SOL     OW35136   5.708   0.822   0.753  0.2389  0.6311 -0.6019
11452SOL    HW135137   5.786   0.877   0.746 -0.0849  1.1527 -0.2002
11452SOL    HW235138   5.635   0.884   0.746 -0.1394  0.1409 -1.0302
11453SOL     OW35139   8.149   7.341   6.039 -0.3402  0.3614 -0.5550
11453SOL    HW135140   8.123   7.346   5.947  0.6748 -0.0095 -0.8704
11453SOL    HW235141   8.071   7.369   6.088  0.0215  3.6573 -1.6219
11454SOL     OW35142   3.461   5.130   4.402  0.2750 -0.1510  0.1129
11454SOL    HW135143   3.525   5.199   4.423  1.5587 -1.5224  0.9611
11454SOL    HW235144   3.376   5.169   4.422  0.9671  1.1489  0.6545
11455SOL     OW35145   6.128   2.697   7.565 -0.5168  0.1749 -0.0618
11455SOL    HW135146   6.179   2.720   7.488 -2.3492 -0.6824 -1.6162
11455SOL    HW235147   6.063   2.766   7.572 -0.9956 -0.2862  0.0913
11456SOL     OW35148   2.303   5.648   7.709 -0.5936  0.6272  0.0659
11456SOL    HW135149   2.237   5.632   7.640  0.0501  0.8408 -0.6164
11456SOL    HW235150   2.252   5.658   7.789 -1.3373 -0.0218 -0.3109
11457SOL     OW35151   4.573   6.172   7.042  0.1321  0.0334 -0.6995
11457SOL    HW135152   4.619   6.143   7.122  0.3181  1.0145 -0.4391
11457SOL    HW235153   4.494   6.118   7.040 -0.6427  1.0131  0.9922
11458SOL     OW35154   5.969   3.839   0.394  0.0922 -0.1931 -0.5787
11458SOL    HW135155   5.986   3.811   0.304 -0.3526 -1.1693 -0.3762
11458SOL    HW235156   5.875   3.857   0.396 -0.1742 -1.5122  0.0154
11459SOL     OW35157   4.002   4.059   0.565 -0.4235  0.3534  0.2090
11459SOL    HW135158   4.045   4.143   0.550 -0.1944 -0.2307 -3.1650
11459SOL    HW235159   4.071   4.003   0.601  0.2704  0.8190 -0.3585
11460SOL     OW35160   6.051   3.394   0.242 -0.3607 -0.1889  0.0164
11460SOL    HW135161   6.018   3.361   0.325 -0.9089  0.7306  0.1728
11460SOL    HW235162   6.138   3.356   0.234 -0.9872 -1.7215  0.1506
11461SOL     OW35163   7.664   0.281   6.531 -0.2268  0.5589 -0.3592
11461SOL    HW135164   7.715   0.262   6.609 -0.9106  0.1581  0.0042
11461SOL    HW235165   7.610   0.356   6.555 -1.4345 -0.3926  0.0477
11462SOL     OW35166   4.213   1.320   6.441  0.1651  0.5898  0.0848
11462SOL    HW135167   4.173   1.388   6.494  1.2687 -0.6653  2.7042
11462SOL    HW235168   4.291   1.361   6.404 -0.5537  1.4477 -0.5242
11463SOL     OW35169   0.356   8.268   4.773 -0.2998  1.0805  0.1453
11463SOL    HW135170   0.269   8.229   4.761  0.3198 -0.0391 -0.9902
11463SOL    HW235171   0.372   8.261   4.867 -0.6030 -0.6015  0.1013
11464SOL     OW35172   4.752   7.692   7.401 -0.1271 -0.2685 -0.2267
11464SOL    HW135173   4.808   7.643   7.340 -0.6618  0.8410 -1.6794
11464SOL    HW235174   4.796   7.684   7.485  1.8922  0.0350 -1.1777
11465SOL     OW35175   0.539   8.160   7.776 -0.1326  0.3440  0.0230
11465SOL    HW135176   0.623   8.114   7.779  0.0781  0.6039 -1.3638
11465SOL    HW235177   0.489   8.122   7.848  0.9463 -0.2527  0.4901
11466SOL     OW35178   0.650   5.493   5.662  0.2419 -0.1598 -0.3288
11466SOL    HW135179   0.606   5.409   5.650  2.0032 -1.1189 -0.5253
11466SOL    HW235180   0.722   5.474   5.723 -0.5547  1.6908  1.3008
11467SOL     OW35181   2.537   1.724   5.790  0.4638  0.5519 -0.3914
11467SOL    HW135182   2.563   1.636   5.816  0.8834  0.6454 -0.4761
11467SOL    HW235183   2.519   1.717   5.696 -0.8765  0.2534 -0.1328
11468SOL     OW35184   2.715   5.622   3.734 -0.9599  0.3865 -0.4696
11468SOL    HW135185   2.751   5.679   3.667 -1.3095  0.1666 -0.8461
11468SOL    HW235186   2.719   5.674   3.814  1.3906 -0.0644 -0.2116
11469SOL     OW35187   4.275   0.862   6.090  0.5584  0.3232 -0.5407
11469SOL    HW135188   4.190   0.890   6.056  0.2532 -0.2491 -0.2605
11469SOL    HW235189   4.324   0.831   6.014 -0.1050 -0.9163 -0.4880
11470SOL     OW35190   1.525   2.703   5.162 -0.2804 -0.2833 -0.1480
11470SOL    HW135191   1.523   2.696   5.066  2.7201 -0.7147 -0.2644
11470SOL    HW235192   1.568   2.787   5.178  0.4280 -0.8273  0.8121
11471SOL     OW35193   3.971   3.935   0.990  0.3834  0.3201 -0.0611
11471SOL    HW135194   4.061   3.963   1.009  0.6983 -0.5848 -0.1222
11471SOL    HW235195   3.931   3.924   1.076  0.4113  0.5070 -0.0255
11472SOL     OW35196   0.432   2.783   3.422  0.4063  0.1877 -0.6567
11472SOL    HW135197   0.408   2.700   3.381  0.2491 -0.5485  0.8685
11472SOL    HW235198   0.502   2.760   3.483  1.1988  1.3973 -1.0622
11473SOL     OW35199   5.651   1.619   1.418  0.1976 -0.0035  0.2593
11473SOL    HW135200   5.627   1.655   1.332  0.8967 -1.4352 -0.5595
11473SOL    HW235201   5.624   1.528   1.415  1.7017 -0.5078  0.9495
11474SOL     OW35202   4.780   6.396   4.758  0.3346  0.5079 -0.5282
11474SOL    HW135203   4.730   6.380   4.678  1.4763 -1.5985 -0.8862
11474SOL    HW235204   4.750   6.329   4.820  2.7596 -0.9987 -0.8405
11475SOL     OW35205   2.669   1.975   1.058  0.2803  0.3731 -0.0006
11475SOL    HW135206   2.605   1.924   1.107 -0.9989 -0.5677 -2.4686
11475SOL    HW235207   2.754   1.950   1.095 -0.6375  0.3731  2.2139
11476SOL     OW35208   3.810   0.341   7.670 -0.0162  0.2708 -0.5485
11476SOL    HW135209   3.748   0.270   7.656  1.5627 -1.6537  1.4910
11476SOL    HW235210   3.886   0.319   7.615 -0.0789  1.1913 -1.0258
11477SOL     OW35211   7.320   6.786   8.224 -0.0477  0.4761  0.1291
11477SOL    HW135212   7.266   6.711   8.202 -0.4579  0.0962  2.2177
11477SOL    HW235213   7.269   6.862   8.195  0.9010  0.0096 -3.0926
11478SOL     OW35214   4.740   3.855   0.820 -0.3982 -0.1909 -0.3789
11478SOL    HW135215   4.654   3.892   0.800 -0.0704  0.3254 -0.8502
11478SOL    HW235216   4.740   3.769   0.778 -0.8796 -0.4087  0.0690
11479SOL     OW35217   2.807   7.514   6.591  0.4730 -0.2422  0.4117
11479SOL    HW135218   2.867   7.465   6.535 -0.8992 -0.4115 -0.9928
11479SOL    HW235219   2.858   7.591   6.618  1.4246 -0.5236 -0.4929
11480SOL     OW35220   0.078   0.624   1.162 -0.0362 -0.0626  0.1458
11480SOL    HW135221   0.100   0.702   1.212 -2.0821  0.1761  0.7347
11480SOL    HW235222  -0.017   0.628   1.151  0.0850 -1.3293 -1.7369
11481SOL     OW35223   1.419   1.882   0.928  0.0523  0.3269  0.1778
11481SOL    HW135224   1.463   1.797   0.927 -0.9341 -0.2041 -1.0423
11481SOL    HW235225   1.464   1.932   0.996  1.2425 -0.8538  0.2910
11482SOL     OW35226   7.608   2.186   7.054  0.3490  0.0277  0.2127
11482SOL    HW135227   7.598   2.200   6.960 -0.7147 -0.4447  0.2405
11482SOL    HW235228   7.702   2.169   7.066  0.0962 -3.2526 -1.2468
11483SOL     OW35229   5.551   2.330   5.009  0.3565  0.3333 -0.1873
11483SOL    HW135230   5.461   2.309   5.032  1.7600 -2.6764  3.4938
11483SOL    HW235231   5.571   2.272   4.936  0.3747 -2.0386  1.6035
11484SOL     OW35232   7.825   3.408   3.027  0.9099 -0.0994  0.6165
11484SOL    HW135233   7.892   3.464   3.065  0.1556  1.4012 -0.1925
11484SOL    HW235234   7.748   3.464   3.018  0.6979 -0.6866 -1.9755
11485SOL     OW35235   6.666   4.927   4.669  0.2875  0.5751  0.3557
11485SOL    HW135236   6.604   4.997   4.648 -1.2952 -1.0733 -0.6557
11485SOL    HW235237   6.669   4.873   4.590  1.5975 -0.4249  1.0625
11486SOL     OW35238   0.516   2.636   3.038  0.5212 -0.1876  0.0331
11486SOL    HW135239   0.459   2.560   3.049 -1.0105  0.9565  0.2807
11486SOL    HW235240   0.509   2.658   2.945 -0.0330  0.3936  0.2074
11487SOL     OW35241   0.374   8.315   6.940  0.0222 -0.3006  0.3576
11487SOL    HW135242   0.322   8.388   6.974 -0.3647 -0.8852  1.0679
11487SOL    HW235243   0.434   8.293   7.011 -1.0241 -1.7576  0.8488
11488SOL     OW35244   7.702   0.769   1.353 -0.6140 -0.3045 -0.2125
11488SOL    HW135245   7.675   0.781   1.444 -1.6208  1.6658 -0.7097
11488SOL    HW235246   7.646   0.698   1.321 -1.7877  0.4261  0.1440
11489SOL     OW35247   2.519   0.459   6.297  0.0881  0.1295  0.2984
11489SOL    HW135248   2.511   0.424   6.209 -0.2939  0.9830 -0.0119
11489SOL    HW235249   2.430   0.482   6.322  0.0563 -0.9773  1.2790
11490SOL     OW35250   8.125   1.713   3.874  0.1224  0.0839  0.0457
11490SOL    HW135251   8.084   1.628   3.857  0.7978 -0.6635  1.9098
11490SOL    HW235252   8.208   1.692   3.915  0.9666  1.6540 -0.7600
11491SOL     OW35253   2.818   5.494   5.311  0.5478 -0.1663 -0.2664
11491SOL    HW135254   2.882   5.553   5.351  0.5453 -0.4719  0.2076
11491SOL    HW235255   2.764   5.464   5.385 -0.6584  0.7033 -0.7777
11492SOL     OW35256   8.032   2.043   7.274 -0.3566 -0.5943 -0.0047
11492SOL    HW135257   8.121   2.020   7.247 -0.9756 -1.2262 -1.6383
11492SOL    HW235258   8.024   2.007   7.362  0.8779 -0.8607  0.0198
11493SOL     OW35259   4.309   3.267   1.029  0.4805  0.3202 -0.2302
11493SOL    HW135260   4.293   3.268   0.935 -0.8109 -0.5326 -0.0426
11493SOL    HW235261   4.237   3.318   1.066  0.4437 -0.1463  0.3558
11494SOL     OW35262   4.415   3.594   7.568 -0.6633 -0.0771  0.3017
11494SOL    HW135263   4.336   3.633   7.533  0.8489  1.6326 -1.4339
11494SOL    HW235264   4.409   3.609   7.663 -2.1960  0.3509  0.1627
11495SOL     OW35265   7.333   4.132   7.241  0.4534  0.1975  0.0884
11495SOL    HW135266   7.257   4.117   7.185  0.6060 -0.2436 -0.0082
11495SOL    HW235267   7.380   4.204   7.199 -0.7947  1.6481  1.0746
11496SOL     OW35268   2.665   1.349   2.293 -0.1213  0.0054 -0.6276
11496SOL    HW135269   2.738   1.403   2.262  1.1897 -2.3800 -1.9957
11496SOL    HW235270   2.612   1.334   2.214 -1.5102  0.7574  0.1221
11497SOL     OW35271   2.859   0.336   7.560  0.8135  0.0549  0.2123
11497SOL    HW135272   2.845   0.295   7.475  1.2963  0.0583  0.1286
11497SOL    HW235273   2.888   0.425   7.540  0.0569  0.3456  0.3913
11498SOL     OW35274   4.522   0.723   4.493  0.3077  0.3120 -0.1871
11498SOL    HW135275   4.511   0.751   4.402 -0.9543  0.7282  0.0747
11498SOL    HW235276   4.580   0.788   4.531  0.4086  0.4401 -0.5522
11499SOL     OW35277   0.881   2.209   7.228  0.0610 -0.2810 -0.4403
11499SOL    HW135278   0.971   2.232   7.254  0.0998 -1.2627  0.3376
11499SOL    HW235279   0.833   2.291   7.234  0.3446 -0.2305  1.6254
11500SOL     OW35280   6.883   0.816   5.468 -0.1839 -0.1632 -0.0026
11500SOL    HW135281   6.977   0.823   5.487 -0.5901  0.6663  1.9770
11500SOL    HW235282   6.866   0.722   5.464  0.6072 -0.3364  0.4117
11501SOL     OW35283   4.157   0.802   2.256 -0.0339 -0.0507  0.1326
11501SOL    HW135284   4.155   0.740   2.329  1.6358  0.9385  1.0766
11501SOL    HW235285   4.069   0.840   2.254 -0.8718 -1.8653 -0.0183
11502SOL     OW35286   3.697   1.924   7.595  0.1882  0.0764  0.7019
11502SOL    HW135287   3.704   1.927   7.690  4.1894 -1.7783  0.6821
11502SOL    HW235288   3.751   1.998   7.565 -1.4446  0.9567 -0.2023
11503SOL     OW35289   2.380   5.867   7.298  0.4966 -0.7128 -0.5427
11503SOL    HW135290   2.371   5.951   7.252  1.8994  0.1509  0.6374
11503SOL    HW235291   2.309   5.813   7.264 -1.2537  1.3773 -0.4397
11504SOL     OW35292   3.154   1.533   3.464  0.4791 -0.0719 -0.1077
11504SOL    HW135293   3.151   1.605   3.527 -2.6812 -0.3236  0.1891
11504SOL    HW235294   3.089   1.471   3.496 -0.2474 -0.8538 -2.8727
11505SOL     OW35295   6.538   1.070   7.918 -0.1335 -0.3155  0.0755
11505SOL    HW135296   6.457   1.038   7.877  0.1068 -0.8160 -0.0220
11505SOL    HW235297   6.580   1.120   7.849 -0.4262  0.0670  0.1707
11506SOL     OW35298   8.168   2.166   7.571 -0.2601 -0.3231  0.0996
11506SOL    HW135299   8.203   2.121   7.648 -0.1843  0.1791  0.3650
11506SOL    HW235300   8.240   2.220   7.540  0.0076 -1.2127 -0.8854
11507SOL     OW35301   2.564   6.070   3.711  0.0909  0.3058 -0.3114
11507SOL    HW135302   2.593   6.051   3.800  0.9436 -0.4806 -0.7313
11507SOL    HW235303   2.640   6.111   3.669  0.1764 -0.5924 -1.0661
11508SOL     OW35304   7.222   2.223   7.916 -0.4338  0.1977  0.0986
11508SOL    HW135305   7.248   2.313   7.894 -0.5413 -0.0509 -1.1277
11508SOL    HW235306   7.133   2.214   7.880  0.5491 -1.2044 -2.2586
11509SOL     OW35307   5.132   7.646   7.859 -0.0383  0.2597 -0.2331
11509SOL    HW135308   5.095   7.558   7.860 -1.1988  0.5777 -3.4687
11509SOL    HW235309   5.222   7.635   7.890 -1.1312 -1.4203  2.6994
11510SOL     OW35310   3.736   1.123   1.835  0.4442 -0.1749  0.5153
11510SOL    HW135311   3.654   1.081   1.860 -0.1057  0.3635 -0.3557
11510SOL    HW235312   3.789   1.051   1.799 -1.0485  0.0410 -2.3500
11511SOL     OW35313   8.320   0.684   3.214 -0.3104  0.5606 -0.9046
11511SOL    HW135314   8.278   0.598   3.216 -0.6871  0.6930  1.9924
11511SOL    HW235315   8.413   0.665   3.202 -0.4013 -0.2877 -0.3843
11512SOL     OW35316   3.960   8.232   1.694 -0.4364 -0.0252 -0.3067
11512SOL    HW135317   4.026   8.163   1.690  0.1361  0.3737  1.3350
11512SOL    HW235318   4.008   8.309   1.726 -1.6576  0.2969  0.8117
11513SOL     OW35319   4.573   2.494   7.639 -0.4313 -0.0162 -0.0065
11513SOL    HW135320   4.481   2.501   7.612 -0.3744  1.2022  0.0547
11513SOL    HW235321   4.570   2.444   7.720 -0.8865 -1.2569 -0.7568
11514SOL     OW35322   7.323   6.031   6.223 -0.3881  0.3778 -0.0294
11514SOL    HW135323   7.282   6.018   6.138 -0.8866  0.1572  0.2418
11514SOL    HW235324   7.401   5.975   6.221 -0.1516  0.7117 -0.5019
11515SOL     OW35325   7.437   7.953   5.694 -0.1992 -0.0770 -0.0985
11515SOL    HW135326   7.394   7.877   5.654 -1.8966  0.1053  1.2782
11515SOL    HW235327   7.432   7.936   5.788 -0.4245  1.6509  0.2171
11516SOL     OW35328   0.087   8.018   4.123  0.0676  0.3166  0.4839
11516SOL    HW135329   0.047   8.059   4.046  2.8424  0.4353 -1.0152
11516SOL    HW235330   0.094   7.925   4.101  1.0498  0.3781  0.5059
11517SOL     OW35331   6.013   5.725   2.723  0.4028  0.2031 -0.8713
11517SOL    HW135332   5.927   5.707   2.760  0.9339  0.0091  0.2967
11517SOL    HW235333   6.052   5.638   2.711  1.4343  0.3409  1.0707
11518SOL     OW35334   2.063   7.323   4.871  0.5084  0.6503  0.2680
11518SOL    HW135335   1.976   7.296   4.841 -0.1247  2.5787  0.2378
11518SOL    HW235336   2.123   7.282   4.808 -0.5096  0.8779 -0.9090
11519SOL     OW35337   2.747   5.746   1.576 -0.3021 -0.1222  0.0161
11519SOL    HW135338   2.827   5.735   1.628  0.0648  0.1992 -0.4670
11519SOL    HW235339   2.679   5.700   1.626 -0.0489  0.5265  0.9901
11520SOL     OW35340   5.159   7.700   2.594  0.2418 -0.0422  0.1807
11520SOL    HW135341   5.098   7.731   2.661  0.5959  2.3448 -0.4828
11520SOL    HW235342   5.107   7.643   2.538 -1.1762  1.1798  0.1817
11521SOL     OW35343   5.955   8.017   1.760  0.0069 -0.3519 -0.5245
11521SOL    HW135344   5.915   8.032   1.846  1.0510 -1.5995  0.2122
11521SOL    HW235345   6.035   8.070   1.762 -0.5290  0.5032 -1.1827
11522SOL     OW35346   3.264   6.944   7.427 -0.5503 -0.0689  0.0434
11522SOL    HW135347   3.356   6.964   7.440 -0.4676 -0.3919 -0.0444
11522SOL    HW235348   3.227   7.024   7.389 -0.4012  0.2117  0.4851
11523SOL     OW35349   3.426   6.999   5.937  0.2973  0.5465  0.6560
11523SOL    HW135350   3.509   7.033   5.970  0.4947  0.5027  0.2187
11523SOL    HW235351   3.365   7.010   6.009  1.0154 -0.7706  1.5071
11524SOL     OW35352   6.285   8.323   3.149  1.0744 -0.0056  0.2662
11524SOL    HW135353   6.267   8.299   3.058 -0.4024 -0.2044  0.5815
11524SOL    HW235354   6.254   8.248   3.200  2.2604 -0.0635  0.9168
11525SOL     OW35355   2.687   1.109   3.671 -0.4925  0.6118  0.5547
11525SOL    HW135356   2.748   1.049   3.714  1.2308  1.0945 -1.0907
11525SOL    HW235357   2.692   1.189   3.725 -1.9148 -0.2581  2.0726
11526SOL     OW35358   3.512   5.786   4.899 -0.6388  0.1657  0.2204
11526SOL    HW135359   3.573   5.729   4.948 -0.0768  1.8108  1.5267
11526SOL    HW235360   3.552   5.873   4.903 -2.2611  0.9791 -0.3652
11527SOL     OW35361   3.561   2.409   8.305 -0.2104  0.0038 -0.2007
11527SOL    HW135362   3.638   2.372   8.261 -0.7740  1.7514 -2.8929
11527SOL    HW235363   3.565   2.503   8.286 -2.5996  0.2627  0.2514
11528SOL     OW35364   1.257   3.345   6.562 -0.3354 -0.0602 -0.4264
11528SOL    HW135365   1.315   3.418   6.540  0.4821 -0.2086  1.1780
11528SOL    HW235366   1.255   3.343   6.657 -3.3454  0.2165 -0.3891
11529SOL     OW35367   4.981   6.081   0.258  0.3284 -0.4528  0.2246
11529SOL    HW135368   5.009   6.157   0.209  0.5336  0.7735  2.1498
11529SOL    HW235369   4.886   6.078   0.246  0.1937  0.6983  0.9072
11530SOL     OW35370   1.622   0.299   4.704 -0.0019 -0.5726  1.0892
11530SOL    HW135371   1.608   0.334   4.616  1.8628  0.9204  1.3133
11530SOL    HW235372   1.669   0.217   4.690 -0.9795 -1.0745  0.6684
11531SOL     OW35373   7.178   5.986   7.470 -0.0337 -0.4101  0.8128
11531SOL    HW135374   7.214   5.897   7.476 -0.5537 -0.9180 -2.0414
11531SOL    HW235375   7.255   6.043   7.476  0.7041 -1.2366 -0.4438
11532SOL     OW35376   2.426   5.538   8.080 -0.3445  0.0701  0.6217
11532SOL    HW135377   2.459   5.480   8.011 -2.3407  1.6178 -1.7965
11532SOL    HW235378   2.502   5.591   8.104  0.5627 -0.9829  0.1795
11533SOL     OW35379   5.388   2.594   7.692  0.0655  0.2647 -0.4210
11533SOL    HW135380   5.360   2.649   7.766 -0.9503 -1.0855  0.2648
11533SOL    HW235381   5.415   2.511   7.733 -0.5260 -0.5175 -1.5466
11534SOL     OW35382   6.542   2.289   1.683  0.4558 -0.0887 -0.1944
11534SOL    HW135383   6.504   2.377   1.679 -0.4163 -0.4495 -0.2271
11534SOL    HW235384   6.505   2.245   1.607  0.3664 -0.6791  0.1883
11535SOL     OW35385   3.029   2.484   2.983 -0.6053  0.1185 -0.4589
11535SOL    HW135386   3.005   2.493   3.075  0.5121  0.3682 -0.1759
11535SOL    HW235387   2.947   2.497   2.935 -1.1834  0.0453  0.4958
11536SOL     OW35388   5.161   7.937   6.315  0.6345  0.7800 -0.7204
11536SOL    HW135389   5.229   7.985   6.362  0.4889  0.2423  0.0637
11536SOL    HW235390   5.156   7.852   6.360  0.7369  0.1030 -1.9267
11537SOL     OW35391   6.944   1.064   7.421 -0.2631  0.1084 -0.1493
11537SOL    HW135392   6.912   1.130   7.483  0.3054  0.1133  0.1469
11537SOL    HW235393   7.032   1.042   7.453 -0.0375 -0.0266 -0.8526
11538SOL     OW35394   2.882   5.369   7.525 -0.7471  0.1436  0.4133
11538SOL    HW135395   2.918   5.436   7.583 -0.8435  2.1274 -1.6642
11538SOL    HW235396   2.889   5.288   7.575  1.2909  1.3466  2.2843
11539SOL     OW35397   2.760   6.230   3.564 -0.0221 -0.3066 -0.0339
11539SOL    HW135398   2.767   6.324   3.582  0.1036 -0.5422  1.2159
11539SOL    HW235399   2.838   6.210   3.511 -0.1827  0.3326 -0.5257
11540SOL     OW35400   0.838   3.192   1.869  0.2358  0.0276 -0.2933
11540SOL    HW135401   0.903   3.196   1.939 -2.2014  0.5741  2.1093
11540SOL    HW235402   0.777   3.123   1.897 -0.1471 -0.6484 -2.5778
11541SOL     OW35403   2.057   3.720   0.167  0.5502  0.1956  0.1525
11541SOL    HW135404   2.126   3.781   0.141 -0.2081 -0.1883 -3.1435
11541SOL    HW235405   2.099   3.661   0.230  2.2247  1.9826  0.8180
11542SOL     OW35406   1.166   3.281   2.281  0.5527  0.0383 -0.1685
11542SOL    HW135407   1.153   3.197   2.237  0.5032 -0.7266  1.2485
11542SOL    HW235408   1.132   3.267   2.370  0.1428  1.6973 -0.0359
11543SOL     OW35409   4.194   0.390   0.284  0.0384 -0.5487  0.7314
11543SOL    HW135410   4.180   0.427   0.371  0.2937  0.2780  0.4397
11543SOL    HW235411   4.174   0.463   0.224  0.6461 -0.8546  0.1398
11544SOL     OW35412   8.082   5.855   1.318 -0.3982  0.3927 -0.2919
11544SOL    HW135413   8.163   5.865   1.268 -0.0382 -0.2344  0.1410
11544SOL    HW235414   8.022   5.810   1.259 -0.2498  0.3936 -0.4424
11545SOL     OW35415   7.114   6.715   6.765 -0.4499 -0.0863  0.1890
11545SOL    HW135416   7.051   6.673   6.822 -1.3774  0.4308 -0.4278
11545SOL    HW235417   7.109   6.666   6.683  1.1271 -1.0488  0.6170
11546SOL     OW35418   6.136   5.056   1.041 -0.3424  0.0967  0.0864
11546SOL    HW135419   6.061   5.066   0.982 -0.0860  0.0125 -0.2577
11546SOL    HW235420   6.202   5.115   1.005  0.1773 -0.7149 -0.3065
11547SOL     OW35421   4.792   5.218   6.311 -0.5045 -0.3724  0.1115
11547SOL    HW135422   4.766   5.245   6.399 -0.4821 -1.4844  0.4752
11547SOL    HW235423   4.735   5.145   6.291 -1.2105  0.5205 -1.2396
11548SOL     OW35424   4.538   1.028   5.940  0.3045 -0.6326  0.5992
11548SOL    HW135425   4.499   1.036   5.853  0.7636 -1.9660  0.2448
11548SOL    HW235426   4.491   1.091   5.993 -2.5828 -2.3430  0.2752
11549SOL     OW35427   7.818   0.739   8.098  0.2342 -0.2097 -0.1035
11549SOL    HW135428   7.900   0.774   8.061  0.1279 -0.8116 -0.9391
11549SOL    HW235429   7.802   0.794   8.175  1.6752 -0.3732  0.3528
11550SOL     OW35430   7.434   5.731   1.466  0.1172 -0.0341  0.1886
11550SOL    HW135431   7.522   5.693   1.468  0.6332  1.1299  0.0201
11550SOL    HW235432   7.421   5.754   1.374 -0.7019 -0.9399  0.0607
11551SOL     OW35433   0.831   7.102   6.311  0.2984 -0.2948  0.3529
11551SOL    HW135434   0.766   7.162   6.348  1.4409 -0.3133  2.5707
11551SOL    HW235435   0.882   7.155   6.251 -1.3139 -0.1317 -0.9495
11552SOL     OW35436   7.781   5.429   5.477 -0.0045  0.4624 -0.1294
11552SOL    HW135437   7.717   5.365   5.509  1.1678  0.7191  3.2001
11552SOL    HW235438   7.846   5.377   5.430 -1.2186 -0.1444 -1.1971
11553SOL     OW35439   6.878   0.504   5.033 -0.3492  0.5914  0.1803
11553SOL    HW135440   6.954   0.560   5.050  2.4522 -1.2602 -4.4562
11553SOL    HW235441   6.896   0.423   5.080 -0.2415  0.6553  0.2502
11554SOL     OW35442   3.161   3.644   2.982 -0.3957 -0.1168 -0.2797
11554SOL    HW135443   3.252   3.620   2.999  0.2362  1.9017 -0.5362
11554SOL    HW235444   3.109   3.583   3.034  1.1914  0.1800  1.7546
11555SOL     OW35445   3.765   5.287   2.210  0.0414 -0.2282  0.2720
11555SOL    HW135446   3.800   5.345   2.277 -0.4985  0.5241 -0.0788
11555SOL    HW235447   3.825   5.296   2.136  0.0569 -0.2517  0.2818
11556SOL     OW35448   2.899   7.794   2.219 -0.3351  0.6498  0.3191
11556SOL    HW135449   2.966   7.726   2.219  1.1804  2.0695 -0.4050
11556SOL    HW235450   2.825   7.754   2.264  1.0268 -0.9423  1.2979
11557SOL     OW35451   7.022   5.785   2.581  0.2040  0.5684  0.2936
11557SOL    HW135452   7.021   5.732   2.660  3.2667 -0.4445 -0.2122
11557SOL    HW235453   7.054   5.726   2.513  2.1047  2.5586 -0.6594
11558SOL     OW35454   6.859   1.625   5.142  0.1643 -0.3789  0.2853
11558SOL    HW135455   6.839   1.534   5.120  2.3471 -0.5406 -1.3646
11558SOL    HW235456   6.792   1.676   5.098  1.1882 -1.0483 -2.2234
11559SOL     OW35457   8.298   1.427   6.813 -0.2710  0.5589  0.2361
11559SOL    HW135458   8.301   1.340   6.775 -1.1235  0.8960 -0.6511
11559SOL    HW235459   8.213   1.432   6.858  0.8709  0.0274  2.6389
11560SOL     OW35460   5.078   6.373   7.943  0.3864  0.5320 -0.0528
11560SOL    HW135461   5.120   6.288   7.932  0.7866  0.7518 -0.2330
11560SOL    HW235462   4.992   6.353   7.979  1.1916  0.1509  1.7626
11561SOL     OW35463   3.285   6.455   6.633 -0.4244  0.1808 -0.8109
11561SOL    HW135464   3.203   6.407   6.629 -0.7330  0.7895 -3.2268
11561SOL    HW235465   3.336   6.422   6.560  1.7979 -0.6208  0.9874
11562SOL     OW35466   4.626   6.392   4.236 -0.1392  0.9999  0.7668
11562SOL    HW135467   4.625   6.396   4.141 -1.1653  1.0102  0.7662
11562SOL    HW235468   4.651   6.480   4.263  0.7933  0.8224  0.5089
11563SOL     OW35469   7.742   6.862   7.108 -0.0494 -0.3832  0.1312
11563SOL    HW135470   7.671   6.921   7.083 -0.0498  0.1022  1.2647
11563SOL    HW235471   7.719   6.779   7.065 -2.0762 -0.6608  1.6209
11564SOL     OW35472   3.029   2.363   5.321 -0.3387  0.0410  0.3312
11564SOL    HW135473   3.101   2.402   5.271  0.6447 -2.1150 -0.0476
11564SOL    HW235474   3.071   2.319   5.395 -1.5567  1.0488  1.6787
11565SOL     OW35475   3.270   3.009   7.377  0.1659 -0.0315 -0.5030
11565SOL    HW135476   3.313   2.962   7.305  1.9489  0.8647 -0.0765
11565SOL    HW235477   3.205   3.065   7.334  0.1507 -0.6275 -1.2731
11566SOL     OW35478   6.055   1.869   6.199 -0.5492  0.1583  0.4043
11566SOL    HW135479   5.980   1.820   6.166 -2.4474  2.9557  0.1961
11566SOL    HW235480   6.089   1.917   6.123  1.3440 -0.8571  0.5550
11567SOL     OW35481   6.561   4.649   7.029  0.2639 -0.4570  0.0090
11567SOL    HW135482   6.525   4.716   7.087 -0.2857  0.3930 -1.2597
11567SOL    HW235483   6.521   4.567   7.059  0.8443 -0.2168  1.5002
11568SOL     OW35484   4.525   0.127   7.727  0.1803 -0.0074  0.1178
11568SOL    HW135485   4.594   0.148   7.664  0.8004 -0.1319  0.7447
11568SOL    HW235486   4.448   0.111   7.673  0.3116  1.3743 -0.5293
11569SOL     OW35487   2.676   6.033   1.757 -0.0146 -0.1397 -0.3857
11569SOL    HW135488   2.769   6.050   1.771 -0.0317 -0.5061  0.1757
11569SOL    HW235489   2.633   6.113   1.788  0.0700 -0.2373 -0.0090
11570SOL     OW35490   3.751   1.883   1.049 -0.3670 -0.1467 -0.1525
11570SOL    HW135491   3.773   1.961   0.999 -1.0364 -1.6834 -3.0717
11570SOL    HW235492   3.835   1.841   1.067 -0.1814 -0.2927 -1.3089
11571SOL     OW35493   7.158   7.576   4.241  0.0328 -0.4030 -0.3260
11571SOL    HW135494   7.222   7.646   4.255 -0.8810  0.8423 -2.0500
11571SOL    HW235495   7.202   7.513   4.185  0.9211 -1.3726  1.3739
11572SOL     OW35496   3.128   3.089   5.024  0.4787 -0.1852  0.1460
11572SOL    HW135497   3.153   3.066   5.113  0.9808  1.5682  0.4871
11572SOL    HW235498   3.048   3.040   5.008  0.3563 -0.4928  1.5752
11573SOL     OW35499   3.015   1.080   3.973 -0.4668 -0.2316 -0.3965
11573SOL    HW135500   2.982   1.167   3.950  0.5260 -0.1091 -1.4543
11573SOL    HW235501   3.066   1.053   3.897  1.2446 -0.7245  0.8713
11574SOL     OW35502   6.015   4.937   3.355  0.0629 -1.1453 -0.0042
11574SOL    HW135503   6.106   4.943   3.328  0.2501  0.8626  0.9808
11574SOL    HW235504   6.018   4.899   3.443 -0.1800 -2.2855 -0.4600
11575SOL     OW35505   2.060   6.494   3.873 -0.2602  0.1061 -0.3436
11575SOL    HW135506   2.005   6.506   3.796  1.7350  2.2040 -1.5601
11575SOL    HW235507   2.113   6.573   3.878  1.1248 -0.8469  2.0240
11576SOL     OW35508   7.823   2.084   0.763  0.5407 -0.0889  0.3121
11576SOL    HW135509   7.841   2.041   0.679  0.1600  1.5002 -0.6190
11576SOL    HW235510   7.728   2.084   0.770  0.5870 -1.1300  1.2742
11577SOL     OW35511   4.874   2.303   7.817  0.4936 -0.1924  0.2690
11577SOL    HW135512   4.942   2.312   7.751 -0.2399 -1.2008 -0.6725
11577SOL    HW235513   4.838   2.391   7.827 -0.2452 -0.2186 -1.6694
11578SOL     OW35514   6.223   3.591   0.705 -0.2026 -0.4094 -0.1994
11578SOL    HW135515   6.193   3.559   0.790  0.5913  1.4316  0.8346
11578SOL    HW235516   6.156   3.655   0.678  1.4231  1.9468  0.9939
11579SOL     OW35517   0.486   7.598   4.812  0.6183  0.0253 -0.0373
11579SOL    HW135518   0.491   7.658   4.886  0.9627  1.2437 -1.0223
11579SOL    HW235519   0.425   7.529   4.842  0.3253  0.7673  1.1658
11580SOL     OW35520   4.344   0.442   1.403 -0.2757 -0.1423  0.1238
11580SOL    HW135521   4.268   0.466   1.455  0.0452  3.5648 -0.8642
11580SOL    HW235522   4.419   0.467   1.458  0.1024  0.7094 -0.7540
11581SOL     OW35523   5.250   1.557   2.216  0.7126  0.2933 -0.1962
11581SOL    HW135524   5.298   1.640   2.223  0.4910  0.3343  1.0678
11581SOL    HW235525   5.288   1.502   2.284  0.5907 -0.5258 -0.7704
11582SOL     OW35526   2.970   8.074   4.756  0.2348  0.0954 -0.3682
11582SOL    HW135527   2.921   8.058   4.676  0.2100  2.6942 -0.9508
11582SOL    HW235528   2.925   8.148   4.797  2.2857  1.0693  0.2469
11583SOL     OW35529   6.164   5.916   1.762 -0.3578  0.1743 -0.1712
11583SOL    HW135530   6.174   5.959   1.847  1.7800 -1.9144  0.7538
11583SOL    HW235531   6.227   5.960   1.705  0.3741 -0.3577  0.2078
11584SOL     OW35532   7.518   1.831   8.099  0.2728  0.0614 -0.5971
11584SOL    HW135533   7.568   1.824   8.181 -1.4906 -1.0666  0.4261
11584SOL    HW235534   7.490   1.923   8.096  1.2856  0.3858 -0.5310
11585SOL     OW35535   2.407   4.952   0.517  0.7336  0.0753 -0.3973
11585SOL    HW135536   2.386   4.966   0.610  0.9331 -1.8658 -0.0077
11585SOL    HW235537   2.395   5.038   0.477 -2.6212  0.3400  0.7863
11586SOL     OW35538   4.354   5.045   3.268  0.4738 -0.7428  0.9404
11586SOL    HW135539   4.270   5.064   3.308 -0.7212 -3.8606  0.1834
11586SOL    HW235540   4.349   5.084   3.181 -0.2916 -1.0439  0.8412
11587SOL     OW35541   3.695   3.041   5.702  0.5951 -0.0644 -0.4772
11587SOL    HW135542   3.743   3.124   5.698 -0.2086  0.4946  0.7599
11587SOL    HW235543   3.712   3.000   5.618 -1.7337  2.9199 -2.6200
11588SOL     OW35544   0.585   7.003   7.188  0.3772 -0.1467 -0.4391
11588SOL    HW135545   0.620   6.973   7.271 -1.0396 -1.3711 -0.2519
11588SOL    HW235546   0.662   7.019   7.133  1.2750 -0.6726  0.6423
11589SOL     OW35547   3.966   0.273   6.359  0.1105 -0.0032 -0.1900
11589SOL    HW135548   4.057   0.299   6.373  0.1616 -1.2425  2.1901
11589SOL    HW235549   3.966   0.231   6.273  2.0383 -0.9861  0.2449
11590SOL     OW35550   1.757   2.453   5.572 -0.0189  0.1651 -0.3242
11590SOL    HW135551   1.851   2.437   5.569  0.0742  0.8422 -1.5555
11590SOL    HW235552   1.735   2.446   5.665  0.5790 -3.5045 -0.3186
11591SOL     OW35553   5.687   4.544   7.579  0.2486  0.6595  0.0938
11591SOL    HW135554   5.608   4.525   7.528 -0.4303  0.3129  1.2355
11591SOL    HW235555   5.751   4.574   7.514 -0.0462 -1.3322 -1.2122
11592SOL     OW35556   4.023   2.124   7.089  0.0161  0.4512 -0.0572
11592SOL    HW135557   3.945   2.077   7.120 -0.7786  1.8887  0.2127
11592SOL    HW235558   4.091   2.057   7.086 -0.9001 -0.5801  0.9273
11593SOL     OW35559   6.492   8.262   6.109  0.1097 -0.2448  0.5489
11593SOL    HW135560   6.492   8.199   6.180  1.6510 -0.0986  0.6948
11593SOL    HW235561   6.569   8.240   6.057  0.2813  1.0790  0.2194
11594SOL     OW35562   5.432   6.109   3.833  0.0147 -0.2628 -0.7462
11594SOL    HW135563   5.420   6.114   3.927  1.4312 -0.4520 -0.5332
11594SOL    HW235564   5.344   6.099   3.798 -0.5906  0.5163  0.5047
11595SOL     OW35565   5.457   0.643   7.401  0.2927  0.9245 -0.2528
11595SOL    HW135566   5.444   0.626   7.307 -0.6378  0.5731 -0.0773
11595SOL    HW235567   5.544   0.682   7.407  0.7593  0.0713 -1.1582
11596SOL     OW35568   4.042   4.678   0.015 -0.3980  0.3703 -0.4513
11596SOL    HW135569   4.078   4.764  -0.009 -1.7199  1.3836  0.9703
11596SOL    HW235570   4.091   4.616  -0.038  1.2481  1.9258 -0.8712
11597SOL     OW35571   5.068   1.512   1.508 -0.3224 -0.4186  0.1267
11597SOL    HW135572   5.108   1.584   1.557 -0.0260 -1.0301  0.8028
11597SOL    HW235573   5.072   1.540   1.416  2.7021 -0.8816  0.0123
11598SOL     OW35574   2.176   4.507   5.164 -0.4233  0.1350 -0.0376
11598SOL    HW135575   2.185   4.489   5.257  0.0937  0.3977 -0.0357
11598SOL    HW235576   2.266   4.514   5.132 -0.5888 -0.3383 -0.6318
11599SOL     OW35577   3.037   3.787   4.960  0.3908 -0.3150 -0.1419
11599SOL    HW135578   3.044   3.862   4.901  0.4859  0.5199  0.8881
11599SOL    HW235579   2.950   3.751   4.943  0.3659  0.0002 -0.6906
11600SOL     OW35580   2.108   1.420   4.167  0.7541 -0.2255 -0.5575
11600SOL    HW135581   2.092   1.433   4.260  0.7651 -0.2328 -0.5544
11600SOL    HW235582   2.043   1.475   4.124  2.4057  1.9211 -0.5304
11601SOL     OW35583   1.728   5.282   5.704  0.5904 -0.1048  0.1363
11601SOL    HW135584   1.661   5.216   5.723  0.6198 -0.8973 -2.2295
11601SOL    HW235585   1.800   5.260   5.763 -0.3136 -0.6793  1.0748
11602SOL     OW35586   3.404   4.575   4.458 -0.5107  0.4031 -0.0953
11602SOL    HW135587   3.493   4.600   4.483 -0.8011  1.8992 -0.4881
11602SOL    HW235588   3.364   4.656   4.426 -1.6434 -0.4918 -1.0258
11603SOL     OW35589   8.178   1.294   5.435  0.0722 -0.3109  0.6112
11603SOL    HW135590   8.187   1.299   5.339  0.9523 -1.5037  0.6096
11603SOL    HW235591   8.268   1.299   5.467 -0.2658  0.7060  1.4283
11604SOL     OW35592   6.555   3.136   5.706  0.0774  0.0454  0.1599
11604SOL    HW135593   6.624   3.091   5.756 -0.1469  0.1538  0.5757
11604SOL    HW235594   6.515   3.195   5.770 -0.6831 -0.3234  0.0295
11605SOL     OW35595   1.131   5.251   1.548  0.0340  0.4681 -0.4317
11605SOL    HW135596   1.117   5.213   1.462  0.3982  0.1828 -0.3671
11605SOL    HW235597   1.098   5.340   1.541 -1.8202 -0.1620 -0.2857
11606SOL     OW35598   4.484   4.712   7.781 -0.7758  0.4014 -0.1832
11606SOL    HW135599   4.424   4.638   7.795 -0.0359  0.2891  3.1852
11606SOL    HW235600   4.554   4.676   7.727 -1.8686 -0.4907 -1.0641
11607SOL     OW35601   6.892   3.086   6.392 -0.3429  0.1652 -0.1083
11607SOL    HW135602   6.879   3.035   6.312  0.3088 -1.3694  0.7114
11607SOL    HW235603   6.910   3.020   6.459 -0.8602  1.4138  1.3049
11608SOL     OW35604   3.268   7.953   2.676 -1.0622  0.5491 -0.4453
11608SOL    HW135605   3.175   7.937   2.659 -1.0986  1.3358 -1.0139
11608SOL    HW235606   3.278   8.048   2.671 -0.0325  0.4141 -1.4438
11609SOL     OW35607   2.242   1.046   7.078  0.0400  0.7545  0.3720
11609SOL    HW135608   2.187   1.107   7.029  0.4894  1.0602  0.2390
11609SOL    HW235609   2.326   1.048   7.032 -0.5319 -1.5419 -0.9101
11610SOL     OW35610   6.239   0.990   1.502  0.6728 -0.1600  0.0490
11610SOL    HW135611   6.278   1.076   1.520  0.4925 -0.5086  2.3407
11610SOL    HW235612   6.165   0.984   1.561 -0.5842 -1.1033 -1.5438
11611SOL     OW35613   6.763   1.276   2.307  0.5791 -0.0965 -0.1272
11611SOL    HW135614   6.779   1.182   2.293  0.0474 -0.1605 -0.3112
11611SOL    HW235615   6.678   1.292   2.267  1.1964  0.7216 -1.1402
11612SOL     OW35616   1.491   7.186   0.602  0.1882  0.3607 -0.1527
11612SOL    HW135617   1.493   7.228   0.516 -2.2848 -0.2485 -0.5619
11612SOL    HW235618   1.458   7.254   0.661 -1.2426 -0.1751 -0.3162
11613SOL     OW35619   4.126   6.669   1.241  0.2069 -0.0523 -0.7064
11613SOL    HW135620   4.041   6.626   1.251 -0.3900  0.8457 -1.6875
11613SOL    HW235621   4.110   6.759   1.268  0.6782  0.2895 -1.5335
11614SOL     OW35622   3.550   1.178   3.531 -0.0009 -0.2261 -0.2066
11614SOL    HW135623   3.498   1.252   3.564 -2.2722 -1.4584 -0.8112
11614SOL    HW235624   3.592   1.211   3.452 -0.7779  0.5088 -0.3234
11615SOL     OW35625   0.375   2.596   6.924 -0.1436  0.2469 -0.4310
11615SOL    HW135626   0.410   2.563   7.007 -0.6146  1.9276  0.4770
11615SOL    HW235627   0.282   2.610   6.942  0.0570  2.1668 -0.7038
11616SOL     OW35628   5.228   2.977   8.158 -0.3380  0.5765 -0.2200
11616SOL    HW135629   5.210   3.048   8.220  0.3677  0.6924 -0.1395
11616SOL    HW235630   5.203   2.898   8.205 -0.4778  0.7144 -0.0564
11617SOL     OW35631   4.591   2.041   5.737  0.3630 -0.1643  0.1837
11617SOL    HW135632   4.590   2.101   5.663 -1.0610 -0.5747 -0.1712
11617SOL    HW235633   4.617   1.957   5.700 -1.4638 -0.6446 -0.1444
11618SOL     OW35634   4.874   3.317   1.975 -0.7097  0.1362  0.0765
11618SOL    HW135635   4.786   3.282   1.961 -0.2597 -1.4466  0.9944
11618SOL    HW235636   4.860   3.410   1.994 -2.0941  0.1084 -0.6848
11619SOL     OW35637   5.397   7.127   2.260 -0.0216  0.5585  0.5021
11619SOL    HW135638   5.415   7.196   2.323 -0.2807 -0.2863  1.5413
11619SOL    HW235639   5.322   7.159   2.209 -2.1028 -0.1343  2.9381
11620SOL     OW35640   1.263   0.329   7.304 -0.0701 -0.8158 -0.2480
11620SOL    HW135641   1.258   0.366   7.393 -1.1674 -1.2228 -0.1165
11620SOL    HW235642   1.356   0.327   7.283  0.1800 -0.4291  0.7800
11621SOL     OW35643   1.352   2.671   3.573  0.0942  0.3024 -0.4262
11621SOL    HW135644   1.393   2.605   3.517  3.1385  2.1604 -0.6311
11621SOL    HW235645   1.305   2.621   3.640  0.1937 -1.9924 -1.9754
11622SOL     OW35646   5.856   1.431   2.172  0.8364  0.1711 -0.3428
11622SOL    HW135647   5.836   1.481   2.251 -1.0863  2.4728 -2.1828
11622SOL    HW235648   5.922   1.483   2.127  1.0770 -0.5430 -0.8327
11623SOL     OW35649   6.148   7.266   1.533 -0.6136  0.3522  0.2609
11623SOL    HW135650   6.194   7.240   1.454  0.4094  2.2101  0.1738
11623SOL    HW235651   6.156   7.192   1.592 -0.8156 -0.7971 -1.1174
11624SOL     OW35652   8.183   7.847   7.066 -0.1848  0.3320  0.2288
11624SOL    HW135653   8.199   7.919   7.128 -0.8938  2.4433 -1.8828
11624SOL    HW235654   8.098   7.868   7.027  0.0231 -1.1846 -1.1373
11625SOL     OW35655   4.874   5.644   4.531 -0.4826 -0.1361 -0.2382
11625SOL    HW135656   4.877   5.678   4.441  2.0016  0.2693 -0.0801
11625SOL    HW235657   4.955   5.594   4.539 -0.6227 -0.0903  1.8221
11626SOL     OW35658   4.976   3.473   0.940  0.5706  0.9096  0.5745
11626SOL    HW135659   5.025   3.434   0.867 -0.0746  2.2481 -0.6091
11626SOL    HW235660   4.889   3.436   0.933  0.3568  1.4519  0.3278
11627SOL     OW35661   4.341   3.811   1.164  0.6290  0.0542  0.0911
11627SOL    HW135662   4.392   3.863   1.226 -0.0475  1.8527 -0.7669
11627SOL    HW235663   4.393   3.732   1.150  1.8272  0.5905  1.2884
11628SOL     OW35664   0.767   1.146   7.118  0.3083 -0.1988  0.4079
11628SOL    HW135665   0.809   1.122   7.035  0.6650 -0.2026  0.5880
11628SOL    HW235666   0.838   1.184   7.170 -0.0693  0.4650  0.4446
11629SOL     OW35667   2.344   7.787   0.650  0.8237  0.2913  0.1801
11629SOL    HW135668   2.366   7.766   0.559  1.4369  0.2029  0.3460
11629SOL    HW235669   2.315   7.878   0.648 -0.2453 -0.0376 -0.2774
11630SOL     OW35670   6.738   0.862   1.264  0.0453  0.0961 -0.1532
11630SOL    HW135671   6.680   0.888   1.194  1.7838 -1.8673 -2.4903
11630SOL    HW235672   6.682   0.817   1.327 -1.3296  0.5290 -1.0338
11631SOL     OW35673   5.698   2.310   5.769  0.8622 -0.1090  0.1001
11631SOL    HW135674   5.625   2.341   5.822  0.8538  0.9025 -0.4689
11631SOL    HW235675   5.673   2.222   5.743  0.0042  0.0946  0.2101
11632SOL     OW35676   0.736   1.764   6.654  0.0468  0.0122 -0.6657
11632SOL    HW135677   0.710   1.674   6.635  0.6808 -0.1930 -0.5774
11632SOL    HW235678   0.665   1.798   6.709  0.4710 -0.8908  0.4813
11633SOL     OW35679   2.329   0.286   7.606 -0.1859  0.2254 -0.1835
11633SOL    HW135680   2.258   0.307   7.546 -1.3820 -2.2740  0.1904
11633SOL    HW235681   2.378   0.216   7.562 -0.8564 -1.3866  1.4572
11634SOL     OW35682   1.981   2.046   7.815 -0.5539  0.1095 -0.2256
11634SOL    HW135683   1.964   2.045   7.721 -0.5086 -0.4127 -0.2323
11634SOL    HW235684   2.070   2.080   7.823 -0.9875  1.2888 -0.2939
11635SOL     OW35685   1.453   4.557   7.953 -0.3501  0.2557 -0.1180
11635SOL    HW135686   1.416   4.510   7.878 -0.2475 -0.5458  0.3225
11635SOL    HW235687   1.512   4.494   7.994  0.1371  0.9278  0.2249
11636SOL     OW35688   6.710   0.576   2.561 -0.5203  0.2296 -0.2448
11636SOL    HW135689   6.735   0.576   2.468 -1.8436 -0.3760 -0.6184
11636SOL    HW235690   6.626   0.530   2.563 -1.7845  2.4294  0.9001
11637SOL     OW35691   6.851   6.847   6.505 -0.1119  0.4992  0.3408
11637SOL    HW135692   6.928   6.795   6.526 -0.2805 -0.1142 -0.5284
11637SOL    HW235693   6.831   6.826   6.414 -2.1930 -0.5189  0.9714
11638SOL     OW35694   6.916   1.052   2.836  0.1500  0.3153 -0.1163
11638SOL    HW135695   6.984   0.985   2.829  1.4995  1.7939 -4.0013
11638SOL    HW235696   6.835   1.003   2.849  1.4978 -1.7648  0.9380
11639SOL     OW35697   0.986   6.731   8.132  0.0562 -0.1462 -0.0791
11639SOL    HW135698   0.902   6.689   8.146 -1.0408  1.3781 -1.6112
11639SOL    HW235699   0.991   6.743   8.037  2.8673 -1.8354 -0.2607
11640SOL     OW35700   7.082   1.575   7.999 -0.4692  0.3171  0.7544
11640SOL    HW135701   7.026   1.652   8.008  0.0001  0.9227 -1.0156
11640SOL    HW235702   7.171   1.609   8.002 -0.1915 -0.4765  2.2706
11641SOL     OW35703   6.984   8.052   5.367 -0.4411  0.1176 -0.4454
11641SOL    HW135704   7.017   7.969   5.401 -0.1343  0.3583 -0.1353
11641SOL    HW235705   7.051   8.116   5.393 -0.7753  0.4919 -0.4953
11642SOL     OW35706   7.302   3.044   1.284 -0.0374 -0.2069 -0.2898
11642SOL    HW135707   7.324   3.029   1.376  1.0279  0.8153 -0.3461
11642SOL    HW235708   7.329   3.135   1.268 -1.2615  0.0068 -1.3150
11643SOL     OW35709   0.588   0.526   2.124  1.0496  0.5051 -0.1710
11643SOL    HW135710   0.506   0.535   2.076  0.7400  0.1277  0.2721
11643SOL    HW235711   0.614   0.435   2.109 -0.0365 -0.2238  1.8595
11644SOL     OW35712   0.982   2.086   5.801 -0.0031 -0.4676 -0.0105
11644SOL    HW135713   1.037   2.088   5.879  0.0314 -1.5632  0.0060
11644SOL    HW235714   1.043   2.082   5.728 -0.0134  1.3519 -0.1664
11645SOL     OW35715   0.988   6.104   5.929 -0.4626 -0.7333  0.6378
11645SOL    HW135716   0.927   6.030   5.929 -0.9438 -0.3680 -0.5977
11645SOL    HW235717   0.985   6.138   6.018  0.1917 -2.5200  1.3842
11646SOL     OW35718   7.709   5.763   5.410  0.2082  0.2818 -0.4115
11646SOL    HW135719   7.711   5.856   5.434  2.2438  0.8887 -2.4400
11646SOL    HW235720   7.670   5.719   5.485 -1.5685  2.8459  0.3084
11647SOL     OW35721   8.120   3.514   1.188  0.0927  0.0837 -0.4297
11647SOL    HW135722   8.099   3.481   1.100  1.9322 -0.2193 -0.7855
11647SOL    HW235723   8.055   3.472   1.245 -0.4351 -0.5842 -1.4893
11648SOL     OW35724   1.734   0.736   2.866  0.3937  0.0482 -0.2777
11648SOL    HW135725   1.686   0.819   2.862 -0.2515 -0.3471 -2.4514
11648SOL    HW235726   1.826   0.762   2.869  0.1885  0.8525 -0.5089
11649SOL     OW35727   1.131   8.197   2.960  0.2263  0.1696 -0.0607
11649SOL    HW135728   1.036   8.200   2.964  0.1144  0.9387 -2.0764
11649SOL    HW235729   1.154   8.110   2.992 -1.2036 -0.2997 -0.2307
11650SOL     OW35730   8.152   2.865   1.961  0.0321  0.1862 -0.3977
11650SOL    HW135731   8.071   2.856   1.911  0.2611 -2.0967 -0.4613
11650SOL    HW235732   8.139   2.809   2.038  1.3127  0.2986 -0.0746
11651SOL     OW35733   1.317   3.454   7.961  0.1673  0.0076 -0.3678
11651SOL    HW135734   1.382   3.398   8.003 -0.8930 -0.1229  1.2036
11651SOL    HW235735   1.344   3.543   7.982  0.9687  0.0460 -1.5020
11652SOL     OW35736   2.785   6.368   3.887  0.3175  0.1750  0.2074
11652SOL    HW135737   2.698   6.346   3.919  0.9625 -1.5640  0.8827
11652SOL    HW235738   2.770   6.412   3.803 -1.1812 -1.7210 -0.5867
11653SOL     OW35739   0.027   3.651   2.570  0.0347 -0.2811 -0.1242
11653SOL    HW135740  -0.036   3.617   2.633  0.2981 -0.0461  0.2696
11653SOL    HW235741  -0.007   3.623   2.485  0.1624 -1.4070  0.1769
11654SOL     OW35742   5.464   0.484   3.217 -0.7955  0.1707  0.1582
11654SOL    HW135743   5.445   0.395   3.188 -0.4940 -0.0300  0.5592
11654SOL    HW235744   5.432   0.540   3.146  2.0004 -0.3771 -1.7014
11655SOL     OW35745   7.578   3.625   5.054  0.2263 -0.2794  0.0217
11655SOL    HW135746   7.667   3.603   5.082 -0.2110  1.0847  2.8350
11655SOL    HW235747   7.522   3.583   5.120 -1.0092  1.7104  0.3034
11656SOL     OW35748   0.987   3.621   5.307  0.3425 -0.0118 -0.8436
11656SOL    HW135749   0.910   3.663   5.269  1.3728  1.7098 -1.1458
11656SOL    HW235750   1.013   3.555   5.243 -0.3232  0.0613 -1.1906
11657SOL     OW35751   6.800   5.971   1.494  0.2092 -0.1973  0.5501
11657SOL    HW135752   6.798   6.045   1.434  1.0336  0.1601  0.9424
11657SOL    HW235753   6.875   5.919   1.465  0.8236  0.1538  1.4473
11658SOL     OW35754   1.326   3.687   4.036 -0.2184 -0.4124  0.0285
11658SOL    HW135755   1.397   3.672   3.974  0.3985  1.8964  0.0663
11658SOL    HW235756   1.291   3.600   4.055  2.1351 -1.5565 -0.5172
11659SOL     OW35757   7.405   8.188   1.689 -0.1207 -0.6563 -0.0352
11659SOL    HW135758   7.441   8.258   1.744  0.4365 -0.1606 -0.9988
11659SOL    HW235759   7.400   8.227   1.601 -0.3862 -1.6269 -0.4632
11660SOL     OW35760   5.463   3.176   5.126 -0.2229 -0.3208 -0.3475
11660SOL    HW135761   5.515   3.249   5.159  0.5769 -1.1271  0.2215
11660SOL    HW235762   5.472   3.181   5.031  1.8156 -1.0708 -0.2389
11661SOL     OW35763   3.979   5.965   7.834  0.0420 -0.0025  0.0427
11661SOL    HW135764   4.061   5.949   7.787  1.3635  1.0832  1.8013
11661SOL    HW235765   3.938   5.879   7.843  1.4528 -0.7174 -0.1235
11662SOL     OW35766   3.538   1.323   1.387 -0.5062  0.0898 -0.3441
11662SOL    HW135767   3.477   1.302   1.458 -1.0138  1.9217 -0.1989
11662SOL    HW235768   3.619   1.278   1.412 -1.3005 -1.0898  0.2577
11663SOL     OW35769   3.465   1.966   8.319 -0.3870  0.6140 -0.4962
11663SOL    HW135770   3.532   1.905   8.288  0.3206  1.2092 -0.1703
11663SOL    HW235771   3.382   1.923   8.298  0.0911 -0.8420  0.4565
11664SOL     OW35772   1.872   7.571   3.335  0.5338  0.2317  0.0764
11664SOL    HW135773   1.960   7.533   3.332  0.6540  0.5758 -2.6042
11664SOL    HW235774   1.838   7.561   3.246 -0.9893  2.7675  0.2851
11665SOL     OW35775   2.616   6.833   2.962 -0.1660 -0.0453  0.1524
11665SOL    HW135776   2.577   6.783   3.033 -1.5104 -0.3591 -0.7733
11665SOL    HW235777   2.604   6.925   2.987  3.3577 -0.0072  2.4357
11666SOL     OW35778   4.686   6.929   5.129  0.2293 -0.0068 -0.1182
11666SOL    HW135779   4.686   6.841   5.090 -1.6730  0.4728 -1.3784
11666SOL    HW235780   4.777   6.956   5.128  0.4850 -0.7073 -2.7887
11667SOL     OW35781   1.955   5.691   0.197 -0.1546 -0.2278  0.2630
11667SOL    HW135782   1.882   5.731   0.244 -0.1704 -0.7118  0.6675
11667SOL    HW235783   1.919   5.611   0.159  0.3873 -0.9914  1.3018
11668SOL     OW35784   2.300   6.813   6.346  0.2118  0.2441 -0.2902
11668SOL    HW135785   2.303   6.841   6.255 -0.8298  1.9837  0.1673
11668SOL    HW235786   2.307   6.717   6.342  0.4135  0.3027 -2.1540
11669SOL     OW35787   7.312   2.167   7.449  0.0378  0.5374 -0.2910
11669SOL    HW135788   7.356   2.134   7.528 -0.2918 -0.4087 -0.4918
11669SOL    HW235789   7.384   2.195   7.392  0.3096  0.5490  0.0505
11670SOL     OW35790   5.096   2.683   0.555  0.1801 -0.1173  0.2622
11670SOL    HW135791   5.116   2.670   0.462  1.1482 -0.5488  0.5149
11670SOL    HW235792   5.013   2.638   0.569  1.1646 -2.0667  0.0994
11671SOL     OW35793   2.667   4.758   2.598 -0.4045 -0.3607 -0.7377
11671SOL    HW135794   2.748   4.800   2.625 -0.1345 -0.1947 -1.7785
11671SOL    HW235795   2.676   4.667   2.627 -1.0647  0.2763  1.6807
11672SOL     OW35796   5.530   3.939   4.114  0.1537  0.1340 -0.3360
11672SOL    HW135797   5.458   3.878   4.102  0.3953 -0.3786  0.6704
11672SOL    HW235798   5.488   4.023   4.132 -0.1817  0.3727 -2.0581
11673SOL     OW35799   0.312   2.506   0.312  0.6324  0.5086 -0.9731
11673SOL    HW135800   0.361   2.459   0.379  0.2716  2.4353  0.7285
11673SOL    HW235801   0.224   2.467   0.315  0.8098  0.1065 -0.8646
11674SOL     OW35802   5.394   5.441   4.683 -0.1629  0.5244 -0.1032
11674SOL    HW135803   5.421   5.379   4.615 -0.0492  1.7904 -1.2378
11674SOL    HW235804   5.464   5.435   4.749 -0.6787 -1.2974  0.3395
11675SOL     OW35805   4.919   0.053   5.797  0.6228  0.1988  0.0080
11675SOL    HW135806   4.965  -0.031   5.807 -0.4040 -0.4737 -0.7138
11675SOL    HW235807   4.905   0.084   5.886  0.4674 -0.7165  0.3089
11676SOL     OW35808   2.020   5.475   6.519 -0.1506 -0.1337 -0.0855
11676SOL    HW135809   2.037   5.430   6.436 -2.2609  0.1012 -0.6992
11676SOL    HW235810   1.984   5.560   6.493 -2.0504 -0.5441  1.0321
11677SOL     OW35811   0.037   5.406   6.606 -0.3788  0.1798 -0.2160
11677SOL    HW135812   0.076   5.319   6.615  0.5172  0.4951 -0.8544
11677SOL    HW235813  -0.037   5.405   6.666 -0.0018 -0.8036  0.2689
11678SOL     OW35814   7.726   7.289   1.680  0.2644  0.4157  0.6395
11678SOL    HW135815   7.807   7.337   1.662  0.2964  0.6605  1.3844
11678SOL    HW235816   7.686   7.337   1.754  0.3415 -0.7429  1.4550
11679SOL     OW35817   8.241   1.299   5.811  0.2050  0.2255  0.5997
11679SOL    HW135818   8.162   1.353   5.800  0.5638  0.5876 -0.3220
11679SOL    HW235819   8.208   1.211   5.829 -0.4948 -0.0408 -1.6104
11680SOL     OW35820   7.983   2.772   5.702 -0.4530 -0.0287 -0.6840
11680SOL    HW135821   7.961   2.843   5.642  1.1308  1.2967  0.2542
11680SOL    HW235822   7.925   2.786   5.777 -0.4048  0.0334 -0.6587
11681SOL     OW35823   2.711   5.731   3.981 -0.4257 -0.3717 -0.2871
11681SOL    HW135824   2.675   5.671   4.047 -0.3081  0.9852  1.0598
11681SOL    HW235825   2.806   5.729   3.996 -0.4248  0.1827 -0.2103
11682SOL     OW35826   3.528   8.031   7.297  0.3666  0.1011  1.0959
11682SOL    HW135827   3.484   8.052   7.379  0.9757 -0.8389  1.6825
11682SOL    HW235828   3.473   7.965   7.256  0.0449  0.5939  0.7178
11683SOL     OW35829   4.199   3.829   1.992 -0.4413  0.7779 -0.0483
11683SOL    HW135830   4.236   3.765   2.053 -0.6808 -0.6346 -1.3433
11683SOL    HW235831   4.266   3.898   1.987  1.2954 -0.8828 -1.0301
11684SOL     OW35832   5.323   2.283   5.760  0.4957  0.5082 -0.5367
11684SOL    HW135833   5.332   2.207   5.817  1.7332 -0.7811 -2.3487
11684SOL    HW235834   5.334   2.358   5.818  0.0435 -0.6959  1.1693
11685SOL     OW35835   4.602   6.701   3.140 -0.2929 -0.2437 -0.1938
11685SOL    HW135836   4.594   6.624   3.084  0.0108 -0.8084  0.5222
11685SOL    HW235837   4.514   6.713   3.176 -1.2192  1.7697 -2.8556
11686SOL     OW35838   0.309   1.846   4.451 -0.6405 -0.2101  0.3900
11686SOL    HW135839   0.397   1.883   4.459 -1.3830  1.4434  1.2935
11686SOL    HW235840   0.318   1.777   4.385  0.8721  1.4414 -1.2253
11687SOL     OW35841   5.664   2.590   4.811 -0.0299  0.3214  0.5231
11687SOL    HW135842   5.756   2.565   4.803  0.5924  1.4098  3.0544
11687SOL    HW235843   5.627   2.525   4.871 -0.2478  1.2417  1.4190
11688SOL     OW35844   4.224   2.548   7.859  0.4860  0.1441 -0.0669
11688SOL    HW135845   4.266   2.476   7.905  0.3226 -1.2067 -1.9180
11688SOL    HW235846   4.267   2.627   7.893 -1.7423 -0.3048  4.7319
11689SOL     OW35847   6.571   6.982   2.632 -0.1611  0.3808 -0.2162
11689SOL    HW135848   6.656   7.000   2.673  0.3956 -1.1473 -0.6348
11689SOL    HW235849   6.556   7.056   2.573  0.8884  0.6658 -0.1388
11690SOL     OW35850   8.286   1.100   6.980  0.3642  0.7554  0.0606
11690SOL    HW135851   8.282   1.184   7.026 -1.4274  0.8549 -0.2068
11690SOL    HW235852   8.195   1.069   6.978  0.5805  0.0724 -2.1560
11691SOL     OW35853   7.397   1.743   2.425 -1.1781  0.5649 -0.4504
11691SOL    HW135854   7.447   1.771   2.349 -0.9949 -0.6105 -0.7807
11691SOL    HW235855   7.308   1.775   2.408 -1.3057 -0.3084 -1.5199
11692SOL     OW35856   3.310   5.018   2.667  0.2698  0.0597  0.7788
11692SOL    HW135857   3.306   5.092   2.728 -2.0043 -1.2078  2.3008
11692SOL    HW235858   3.225   5.018   2.624  1.0858 -0.3294 -0.9413
11693SOL     OW35859   5.886   1.661   3.940 -0.2844 -0.4629  0.3354
11693SOL    HW135860   5.974   1.624   3.947  0.4365  0.9928 -0.6286
11693SOL    HW235861   5.900   1.755   3.931 -2.0273 -0.0212  1.7159
11694SOL     OW35862   5.475   7.404   7.727  1.0425 -0.6792 -0.1405
11694SOL    HW135863   5.515   7.469   7.670 -0.9376 -1.0640 -2.1246
11694SOL    HW235864   5.460   7.450   7.810 -0.8935  1.7065 -1.6820
11695SOL     OW35865   8.223   7.820   1.363  0.0343 -0.4262 -0.5634
11695SOL    HW135866   8.130   7.823   1.341 -0.4967  0.1660  1.5900
11695SOL    HW235867   8.246   7.910   1.384  0.7213 -0.7986  0.3357
11696SOL     OW35868   0.521   0.222   3.112  1.0329  0.0906  0.3368
11696SOL    HW135869   0.595   0.198   3.057  0.1070  1.5910 -1.7259
11696SOL    HW235870   0.454   0.157   3.093  0.9199  0.2549  0.1738
11697SOL     OW35871   1.679   7.774   0.432  0.5227  0.0933 -0.4650
11697SOL    HW135872   1.634   7.763   0.348 -0.6153  0.3611  0.1077
11697SOL    HW235873   1.619   7.739   0.497  1.4230 -0.1616  0.2547
11698SOL     OW35874   8.236   3.529   3.012  0.7648  0.0126  0.2365
11698SOL    HW135875   8.302   3.569   2.954  0.7060  1.1816  0.9411
11698SOL    HW235876   8.235   3.437   2.987  1.2976  0.3372 -1.0931
11699SOL     OW35877   4.952   5.976   2.867  0.0931 -0.8630  0.2742
11699SOL    HW135878   5.042   6.005   2.853 -0.0436 -0.7875 -0.4482
11699SOL    HW235879   4.959   5.882   2.883  0.2386 -0.9725 -0.4250
11700SOL     OW35880   4.870   3.880   4.489 -0.1418 -0.1752  0.0195
11700SOL    HW135881   4.868   3.886   4.394 -0.2775 -2.7084 -0.1794
11700SOL    HW235882   4.963   3.869   4.511 -0.3599 -3.3765 -0.2009
11701SOL     OW35883   1.405   5.547   6.344 -0.5191  0.0371  0.0516
11701SOL    HW135884   1.433   5.456   6.332 -2.1097 -0.6397  1.0251
11701SOL    HW235885   1.375   5.575   6.258  0.1309 -0.3022 -0.2889
11702SOL     OW35886   6.803   3.291   4.182  0.5718  0.4383  0.1694
11702SOL    HW135887   6.747   3.216   4.202 -1.7058  2.0359  0.2238
11702SOL    HW235888   6.877   3.283   4.242 -0.4661 -0.8503  1.3548
11703SOL     OW35889   1.064   8.051   1.997  0.9193 -0.5909  0.1165
11703SOL    HW135890   1.155   8.072   2.020  0.8751  0.7107 -0.7946
11703SOL    HW235891   1.052   8.089   1.910 -0.3958 -1.0727  0.0659
11704SOL     OW35892   4.452   0.212   5.110 -0.0066  0.1609 -0.2877
11704SOL    HW135893   4.511   0.287   5.100  0.0289  0.1537 -0.1274
11704SOL    HW235894   4.455   0.190   5.203 -0.0033 -0.0510 -0.3365
11705SOL     OW35895   7.135   1.832   2.742 -0.3673  0.2227 -0.0834
11705SOL    HW135896   7.130   1.737   2.748  0.1662  0.1271 -1.0125
11705SOL    HW235897   7.047   1.862   2.764 -0.6361 -0.4996 -0.1451
11706SOL     OW35898   0.818   4.223   1.398  0.0269  0.0307  0.0193
11706SOL    HW135899   0.910   4.238   1.377  0.5532  0.1720  2.2389
11706SOL    HW235900   0.809   4.128   1.404  0.8507  0.0398  2.8430
11707SOL     OW35901   6.838   2.905   4.007  0.1920 -0.4575 -0.0450
11707SOL    HW135902   6.848   2.978   3.946  1.1701 -1.8511 -1.6170
11707SOL    HW235903   6.890   2.931   4.084 -2.5234  2.1384  1.1425
11708SOL     OW35904   7.192   1.535   0.654  0.6307  0.2444  0.0824
11708SOL    HW135905   7.172   1.626   0.629 -2.0893 -0.3043 -0.0592
11708SOL    HW235906   7.248   1.503   0.584 -0.2420  1.1625 -1.0848
11709SOL     OW35907   0.031   1.768   1.680  0.2660  0.4942  0.3442
11709SOL    HW135908   0.027   1.695   1.741  0.9052  0.0376 -0.1489
11709SOL    HW235909   0.020   1.729   1.594 -3.5538  1.4134  0.2108
11710SOL     OW35910   6.907   8.010   6.288  0.3178 -0.1116  0.1520
11710SOL    HW135911   6.923   7.939   6.349 -0.1840 -0.0126  0.4091
11710SOL    HW235912   6.866   7.969   6.212  0.3605 -0.1486  0.1497
11711SOL     OW35913   7.314   6.547   3.366 -1.0540  0.4603  0.1947
11711SOL    HW135914   7.253   6.507   3.428  1.6902 -0.1876  2.7180
11711SOL    HW235915   7.339   6.630   3.407 -0.2151  0.6835 -0.7122
11712SOL     OW35916   4.040   0.593   0.164  0.0639 -0.1470  0.4889
11712SOL    HW135917   4.053   0.673   0.113 -0.8241 -0.6898 -0.6596
11712SOL    HW235918   4.007   0.622   0.248  2.3183  0.8344  1.1073
11713SOL     OW35919   6.867   6.476   6.825  1.0696  0.1954 -0.0838
11713SOL    HW135920   6.857   6.477   6.730  0.0420 -1.8846 -0.0473
11713SOL    HW235921   6.794   6.423   6.857  0.4461  2.1477  2.0328
11714SOL     OW35922   6.896   6.564   4.423 -0.7618 -0.4087 -0.2289
11714SOL    HW135923   6.847   6.557   4.341  0.9850  0.0317 -1.3676
11714SOL    HW235924   6.861   6.643   4.465 -1.2749 -0.3148 -0.8233
11715SOL     OW35925   1.410   0.863   7.602  0.0334 -0.7209 -0.2916
11715SOL    HW135926   1.442   0.807   7.532  1.9848  0.3119 -0.2790
11715SOL    HW235927   1.414   0.808   7.680  0.8191 -0.9119 -0.4650
11716SOL     OW35928   2.851   4.564   5.710 -0.2997 -0.5514 -0.2995
11716SOL    HW135929   2.779   4.626   5.694  0.4105  0.1852 -0.6931
11716SOL    HW235930   2.894   4.556   5.625  2.1106  1.6039  0.6061
11717SOL     OW35931   2.552   5.834   7.948  0.0620 -0.2242  0.0345
11717SOL    HW135932   2.558   5.785   8.030 -0.5207  1.5237  1.1779
11717SOL    HW235933   2.503   5.776   7.889 -0.7029 -0.9773  1.3621
11718SOL     OW35934   6.672   1.386   6.473  0.0123 -0.0258 -0.0876
11718SOL    HW135935   6.730   1.437   6.530  2.3440 -1.9127 -0.6207
11718SOL    HW235936   6.713   1.392   6.386  0.3083 -2.5779 -0.2007
11719SOL     OW35937   0.465   3.530   5.151 -0.3753 -0.0762  0.0252
11719SOL    HW135938   0.453   3.484   5.234 -0.9634 -0.7212 -0.4101
11719SOL    HW235939   0.451   3.464   5.084  1.2039  0.1715 -0.6003
11720SOL     OW35940   3.913   6.056   4.650  0.5419 -0.0694 -0.2042
11720SOL    HW135941   3.867   6.135   4.622  1.1967  0.9318  1.3557
11720SOL    HW235942   3.985   6.088   4.704  0.0796 -1.7480  1.5592
11721SOL     OW35943   1.920   6.197   2.199  0.0303 -0.5031  0.2565
11721SOL    HW135944   1.970   6.268   2.158  0.8139 -0.3793  1.3865
11721SOL    HW235945   1.853   6.176   2.135 -1.2693  2.3480  0.5097
11722SOL     OW35946   7.651   5.907   5.767  0.5344  0.3608 -0.1457
11722SOL    HW135947   7.703   5.931   5.690 -0.7838  0.9962 -0.8726
11722SOL    HW235948   7.610   5.824   5.743 -0.0209  0.6494 -0.2108
11723SOL     OW35949   7.593   4.913   1.365  0.0613 -0.0709 -0.4454
11723SOL    HW135950   7.514   4.882   1.411  1.0728 -1.1314  0.6323
11723SOL    HW235951   7.666   4.878   1.416  1.2690  1.9380 -0.6878
11724SOL     OW35952   0.969   2.950   5.374  0.5543  0.2889 -0.4013
11724SOL    HW135953   0.934   2.889   5.439 -0.0594  1.0764  0.0205
11724SOL    HW235954   0.940   2.914   5.290 -0.7598  0.5879 -0.0932
11725SOL     OW35955   4.506   0.356   8.268 -0.1719 -0.5398  0.7936
11725SOL    HW135956   4.416   0.326   8.255  0.3451 -2.5518  1.3951
11725SOL    HW235957   4.499   0.419   8.339 -1.2937  0.6307 -0.2991
11726SOL     OW35958   8.205   0.057   5.329  0.2203  0.6142 -0.6775
11726SOL    HW135959   8.283   0.102   5.297  0.2846  1.0065  0.0100
11726SOL    HW235960   8.215  -0.033   5.298  1.0913  0.5899 -0.3625
11727SOL     OW35961   3.128   7.010   2.304 -0.5069  0.0579 -0.1358
11727SOL    HW135962   3.211   7.057   2.300 -0.3994 -0.2258 -1.4239
11727SOL    HW235963   3.094   7.011   2.215  0.0481 -3.2388 -0.4979
11728SOL     OW35964   3.675   3.671   8.130 -0.1039  0.1280 -0.4281
11728SOL    HW135965   3.765   3.645   8.151 -0.1620  0.6099  0.4487
11728SOL    HW235966   3.673   3.672   8.034  0.7233 -0.2380 -0.4618
11729SOL     OW35967   0.813   2.710   8.044  0.3909 -0.0219 -0.8328
11729SOL    HW135968   0.808   2.805   8.050 -0.1225 -0.0480 -0.8406
11729SOL    HW235969   0.783   2.678   8.129 -0.0660 -0.1945 -1.0562
11730SOL     OW35970   3.621   5.239   6.497 -0.5202 -0.1529 -0.1747
11730SOL    HW135971   3.554   5.219   6.562 -0.2633 -2.4792 -0.5533
11730SOL    HW235972   3.574   5.242   6.413 -0.3241 -0.7784 -0.3127
11731SOL     OW35973   2.645   3.301   2.828 -0.0209  0.2917 -0.1751
11731SOL    HW135974   2.585   3.375   2.844  0.3049  0.4408  0.3859
11731SOL    HW235975   2.604   3.252   2.757 -1.2852 -0.1219  0.8010
11732SOL     OW35976   1.564   6.647   3.006  0.0693 -0.5163 -0.1099
11732SOL    HW135977   1.623   6.652   3.081  1.8669  0.4305 -1.4921
11732SOL    HW235978   1.552   6.739   2.979 -1.2719 -0.7691 -0.4537
11733SOL     OW35979   1.794   4.426   3.784 -0.6390 -0.1286 -0.6723
11733SOL    HW135980   1.793   4.505   3.729 -2.2229  2.0267  2.1477
11733SOL    HW235981   1.706   4.390   3.775 -0.5669 -0.3729 -0.3937
11734SOL     OW35982   5.770   2.648   3.567  0.1276 -0.1699 -0.2300
11734SOL    HW135983   5.788   2.720   3.507  2.4576  0.2249  0.8421
11734SOL    HW235984   5.714   2.589   3.517  1.8896  0.1653 -2.8166
11735SOL     OW35985   6.166   4.387   6.218 -0.0454  0.3589  0.6493
11735SOL    HW135986   6.112   4.384   6.139 -0.0618  1.6375  0.5920
11735SOL    HW235987   6.162   4.298   6.252  0.0556 -0.2436 -0.8384
11736SOL     OW35988   0.902   4.052   7.372  0.1041 -0.4305  0.0373
11736SOL    HW135989   0.958   4.059   7.450  1.3493  0.0161 -0.8570
11736SOL    HW235990   0.939   3.978   7.323 -0.5858 -0.6268 -0.1943
11737SOL     OW35991   0.248   5.463   2.244  0.5025  0.0569  0.1398
11737SOL    HW135992   0.342   5.448   2.254  0.7333  0.6894 -0.9038
11737SOL    HW235993   0.238   5.494   2.154 -0.5423  1.2151  0.6159
11738SOL     OW35994   0.509   8.035   6.501 -0.2512  0.8217  0.1633
11738SOL    HW135995   0.499   7.981   6.579 -0.7740 -0.3266 -0.6686
11738SOL    HW235996   0.535   8.121   6.534 -1.3003  0.6048  1.6531
11739SOL     OW35997   5.824   8.002   5.435 -0.4936  0.3814  0.0119
11739SOL    HW135998   5.859   7.923   5.394 -0.3258  0.8037 -0.6693
11739SOL    HW235999   5.840   8.071   5.371 -1.0383  0.8875  0.4189
11740SOL     OW36000   4.959   5.202   5.345 -0.6187  0.1569  0.0034
11740SOL    HW136001   4.878   5.253   5.342  0.5402  2.1246  0.4268
11740SOL    HW236002   4.943   5.129   5.286 -2.9650  0.0543  0.6490
11741SOL     OW36003   8.113   0.430   7.874 -0.0436  0.2144 -0.0507
11741SOL    HW136004   8.131   0.352   7.927 -0.5189  0.4090  0.3995
11741SOL    HW236005   8.191   0.485   7.885  0.0445  0.0631  0.0896
11742SOL     OW36006   3.582   4.146   3.666  0.0782  0.2501 -0.4000
11742SOL    HW136007   3.549   4.069   3.712 -1.5227  1.4783  0.6223
11742SOL    HW236008   3.616   4.112   3.583 -1.3767 -1.4593 -0.3482
11743SOL     OW36009   5.295   7.932   0.019 -0.6453  0.7726 -0.4515
11743SOL    HW136010   5.207   7.927   0.058 -0.4981  0.3755 -0.1635
11743SOL    HW236011   5.287   7.886  -0.064 -0.3311 -0.6600  0.2855
11744SOL     OW36012   2.833   4.465   3.111  0.4275 -0.1649 -0.1684
11744SOL    HW136013   2.865   4.537   3.055  0.3455 -0.8692 -1.1467
11744SOL    HW236014   2.749   4.440   3.072 -0.0458 -0.1108  0.7887
11745SOL     OW36015   1.232   2.392   6.279  0.2088 -0.0835 -0.0716
11745SOL    HW136016   1.258   2.477   6.244 -0.0841  1.2354  2.6231
11745SOL    HW236017   1.315   2.344   6.289  0.6722  0.8333  0.6107
11746SOL     OW36018   1.596   4.596   5.168  0.6166 -0.3294 -0.0462
11746SOL    HW136019   1.687   4.587   5.141  0.1341  0.5016 -2.0848
11746SOL    HW236020   1.564   4.506   5.175  1.1636 -0.6058 -0.9321
11747SOL     OW36021   7.450   2.205   3.379 -0.4292 -0.0268 -0.2376
11747SOL    HW136022   7.407   2.280   3.421 -1.1827 -0.9769  0.7522
11747SOL    HW236023   7.400   2.192   3.298 -0.5184  0.3186 -0.2426
11748SOL     OW36024   1.125   0.058   6.152  0.0286 -0.3618  0.1856
11748SOL    HW136025   1.136  -0.038   6.152 -0.9384 -0.4923  1.4466
11748SOL    HW236026   1.031   0.071   6.160  0.0402  0.7250 -1.0710
11749SOL     OW36027   1.750   6.951   4.143  0.0784  0.5924 -0.0921
11749SOL    HW136028   1.718   7.030   4.187  1.0776  0.9413  0.0388
11749SOL    HW236029   1.675   6.893   4.139 -0.3759  1.0995  0.8478
11750SOL     OW36030   0.919   4.011   0.123 -0.4680  0.1197  0.3877
11750SOL    HW136031   0.837   4.044   0.161  0.1372  0.6652  1.2649
11750SOL    HW236032   0.895   3.928   0.082 -1.3106 -0.1483  1.3684
11751SOL     OW36033   1.899   7.166   8.066  0.1765 -0.2831 -0.2175
11751SOL    HW136034   1.953   7.143   8.141 -0.0859  0.5803  0.2505
11751SOL    HW236035   1.924   7.256   8.044  0.9392 -0.8343 -1.7885
11752SOL     OW36036   4.581   4.939   6.644 -0.4295  0.1838  0.0291
11752SOL    HW136037   4.617   4.859   6.606  0.7034  0.0178  1.3929
11752SOL    HW236038   4.497   4.911   6.682 -0.9966  0.0994 -1.2314
11753SOL     OW36039   6.657   2.811   4.686 -0.4905  1.1458 -0.8564
11753SOL    HW136040   6.616   2.870   4.749 -0.0732  1.2385 -0.6709
11753SOL    HW236041   6.608   2.825   4.605 -1.2688  0.7583 -0.4673
11754SOL     OW36042   1.366   5.187   2.910  0.4997 -0.1657 -0.3051
11754SOL    HW136043   1.401   5.268   2.873 -0.8905  0.8656  0.5649
11754SOL    HW236044   1.274   5.186   2.884 -0.1232 -0.1796  1.7359
11755SOL     OW36045   5.708   7.847   0.590  0.3492 -0.4734 -0.2724
11755SOL    HW136046   5.742   7.761   0.566 -0.7656 -1.0843  0.2383
11755SOL    HW236047   5.785   7.904   0.588  1.0896 -1.4406 -0.7542
11756SOL     OW36048   2.638   1.142   7.180 -0.3178  0.0333 -0.3542
11756SOL    HW136049   2.632   1.154   7.086  0.3032 -1.0161 -0.5359
11756SOL    HW236050   2.679   1.056   7.192 -0.1367  0.2621  0.8654
11757SOL     OW36051   1.888   3.507   1.242 -0.0453  0.0765  0.0228
11757SOL    HW136052   1.904   3.462   1.159  0.5320  2.5444 -1.3080
11757SOL    HW236053   1.960   3.479   1.298 -0.9757 -2.3878  0.1092
11758SOL     OW36054   1.868   6.245   2.461  0.1558 -0.8785  0.5703
11758SOL    HW136055   1.902   6.242   2.372  2.9205 -1.0724  1.5358
11758SOL    HW236056   1.790   6.189   2.459  0.7660 -1.7507 -1.4565
11759SOL     OW36057   8.049   2.457   0.152  0.4390 -0.4776 -0.5145
11759SOL    HW136058   8.104   2.430   0.226  0.2465 -2.3318 -0.9801
11759SOL    HW236059   8.099   2.428   0.075 -0.3700 -0.5839 -1.0046
11760SOL     OW36060   7.542   1.799   7.117  0.4091  0.5416  0.1075
11760SOL    HW136061   7.573   1.730   7.175 -0.5745  0.3709  0.4579
11760SOL    HW236062   7.526   1.873   7.176 -2.2585 -0.1597  0.4132
11761SOL     OW36063   0.483   3.413   4.522 -0.1088  0.0952  0.0908
11761SOL    HW136064   0.527   3.498   4.522 -2.6464  1.4756 -0.3136
11761SOL    HW236065   0.428   3.415   4.600 -0.6655 -0.9355 -0.2596
11762SOL     OW36066   1.380   2.713   2.460  0.6227  0.1758 -0.1247
11762SOL    HW136067   1.299   2.757   2.484  0.1313 -0.0686 -1.2984
11762SOL    HW236068   1.355   2.623   2.441  1.0914  0.2055 -0.9181
11763SOL     OW36069   6.402   2.944   2.391  0.1560 -0.5815 -0.2108
11763SOL    HW136070   6.416   2.892   2.311  2.3037 -0.2436 -0.1113
11763SOL    HW236071   6.311   2.973   2.385  0.4470  0.0367 -2.9277
11764SOL     OW36072   6.974   7.954   7.084 -0.0255 -0.2429 -0.5601
11764SOL    HW136073   7.056   7.976   7.040 -0.9891  0.9753 -1.8486
11764SOL    HW236074   6.994   7.876   7.135  1.4988 -0.9609 -2.1551
11765SOL     OW36075   7.208   5.585   8.297  0.1269 -0.2563 -0.1952
11765SOL    HW136076   7.123   5.615   8.329  0.2028 -0.4946  0.2375
11765SOL    HW236077   7.192   5.561   8.205 -0.2801 -0.3379 -0.1046
11766SOL     OW36078   0.766   5.705   7.495  0.0562 -0.1123  0.4119
11766SOL    HW136079   0.734   5.780   7.444  0.1743 -0.6345 -0.4502
11766SOL    HW236080   0.690   5.675   7.544 -0.1967  0.0587  0.1269
11767SOL     OW36081   0.642   2.733   5.346  0.4657 -0.0193  0.6350
11767SOL    HW136082   0.713   2.749   5.409  0.8431 -2.6796  0.9854
11767SOL    HW236083   0.574   2.796   5.371  0.9741 -0.3281  3.1133
11768SOL     OW36084   5.853   7.015   7.996 -0.3408  0.5580  0.6061
11768SOL    HW136085   5.909   7.093   8.001  0.0831  0.3635 -0.7780
11768SOL    HW236086   5.888   6.957   8.063  1.5130  0.2199 -0.5780
11769SOL     OW36087   3.785   0.007   2.932  0.1400  0.3541 -0.1038
11769SOL    HW136088   3.866   0.030   2.886 -1.7668  0.1646 -3.9065
11769SOL    HW236089   3.721   0.072   2.904 -1.6973 -1.0205  0.6570
11770SOL     OW36090   4.473   5.604   5.299  0.3443  0.5288 -0.7141
11770SOL    HW136091   4.456   5.519   5.260 -0.5215 -0.0723  0.8796
11770SOL    HW236092   4.414   5.665   5.254  1.5457  0.4981 -2.4325
11771SOL     OW36093   7.928   5.879   6.759 -0.2028 -0.2387  0.5385
11771SOL    HW136094   8.018   5.878   6.727  0.5417 -0.6090  2.5359
11771SOL    HW236095   7.875   5.859   6.681  1.3120  1.0866 -0.9261
11772SOL     OW36096   6.970   5.458   3.541 -0.0718  0.3986  0.4436
11772SOL    HW136097   7.009   5.395   3.480 -1.4743  0.0538 -0.1606
11772SOL    HW236098   6.982   5.418   3.627  0.0713 -0.1498  0.1800
11773SOL     OW36099   1.680   4.259   4.152  0.1971 -0.3130  0.1795
11773SOL    HW136100   1.769   4.295   4.158  0.1453  0.0813 -1.1033
11773SOL    HW236101   1.691   4.165   4.169  0.9997 -0.4170 -0.7958
11774SOL     OW36102   7.143   7.505   4.519  0.5383 -0.1213  0.4169
11774SOL    HW136103   7.120   7.520   4.427  1.6814  2.4067  0.4627
11774SOL    HW236104   7.087   7.566   4.567 -0.1466 -1.5165  1.4527
11775SOL     OW36105   2.107   4.719   0.011  0.3185  0.8228 -0.1544
11775SOL    HW136106   2.041   4.715   0.081  2.5878 -1.1560  2.0533
11775SOL    HW236107   2.065   4.673  -0.063  0.0218 -2.9676  2.0829
11776SOL     OW36108   2.573   3.563   3.489  0.6550 -0.8924 -0.1584
11776SOL    HW136109   2.513   3.541   3.418 -1.8189  1.1859  1.1416
11776SOL    HW236110   2.660   3.557   3.449 -0.5729 -0.7266 -3.0998
11777SOL     OW36111   4.200   3.155   1.815  0.5920 -0.1588 -0.1695
11777SOL    HW136112   4.210   3.248   1.793  1.2797  0.0592  0.9720
11777SOL    HW236113   4.106   3.141   1.820  0.4066 -0.0183 -2.2550
11778SOL     OW36114   3.445   3.916   1.106 -0.7353 -0.4362 -0.3039
11778SOL    HW136115   3.431   3.822   1.102 -0.9750 -0.3818 -0.8344
11778SOL    HW236116   3.483   3.939   1.021  1.0563 -0.3217  0.4863
11779SOL     OW36117   7.808   4.025   0.853  0.1664 -0.2681  0.2881
11779SOL    HW136118   7.864   4.034   0.777 -0.8400 -0.7411 -0.5334
11779SOL    HW236119   7.733   3.975   0.822 -0.8834  0.6368  1.2569
11780SOL     OW36120   2.458   7.065   3.991 -0.2629 -0.1845  0.0281
11780SOL    HW136121   2.537   7.063   4.046 -0.3795 -0.6970  0.1754
11780SOL    HW236122   2.398   7.122   4.039  0.0456  0.2886 -0.1311
11781SOL     OW36123   6.423   1.518   4.745  0.3915  0.4047  0.1507
11781SOL    HW136124   6.386   1.606   4.738 -1.3189 -0.0704  2.2538
11781SOL    HW236125   6.420   1.498   4.839  0.5098 -1.9781 -0.2947
11782SOL     OW36126   4.346   5.184   2.678  0.2129  0.1018  0.1994
11782SOL    HW136127   4.435   5.168   2.710  0.5241 -0.8426 -1.0451
11782SOL    HW236128   4.336   5.124   2.604 -0.9282  1.2639 -0.6334
11783SOL     OW36129   6.027   2.084   6.365  0.0932  0.3477  0.0435
11783SOL    HW136130   6.030   2.004   6.313 -1.7143 -0.6586  1.3746
11783SOL    HW236131   6.014   2.154   6.302 -0.7639 -0.6859 -0.9592
11784SOL     OW36132   7.014   2.118   2.934  0.9487 -0.5077 -0.5006
11784SOL    HW136133   6.955   2.111   2.859  0.0668 -2.6279  0.3142
11784SOL    HW236134   7.099   2.141   2.896  0.3527 -0.7631 -2.0455
11785SOL     OW36135   5.981   0.230   0.980 -0.2489  0.2902 -0.0149
11785SOL    HW136136   5.951   0.272   0.900  0.9481  0.4063 -0.4110
11785SOL    HW236137   5.950   0.140   0.973 -1.5820  0.7123  0.1791
11786SOL     OW36138   7.556   2.710   3.488  0.1752  0.2016  0.0243
11786SOL    HW136139   7.543   2.704   3.583  0.7556  0.3669  0.1190
11786SOL    HW236140   7.477   2.671   3.451 -0.5780  1.1865  0.5598
11787SOL     OW36141   0.058   2.115   3.412  0.5095  0.0894  0.4127
11787SOL    HW136142   0.074   2.138   3.321 -0.1071 -0.5994  0.1206
11787SOL    HW236143   0.037   2.198   3.455 -0.0259  0.3082 -0.2545
11788SOL     OW36144   4.008   4.739   4.217  0.4143 -0.3075  0.5820
11788SOL    HW136145   4.018   4.779   4.304  0.5431 -1.0591  0.9166
11788SOL    HW236146   3.958   4.659   4.234 -0.4678  0.0664 -0.1791
11789SOL     OW36147   1.159   2.255   3.056  0.0419 -0.4953  0.2115
11789SOL    HW136148   1.127   2.169   3.083  0.3999  0.0622  2.5975
11789SOL    HW236149   1.253   2.242   3.041  0.1699 -0.4647  0.9432
11790SOL     OW36150   7.990   6.685   6.837 -0.2982  0.3173 -0.4449
11790SOL    HW136151   8.058   6.661   6.774  0.5545  1.1186  0.1403
11790SOL    HW236152   7.908   6.672   6.790  0.3324  1.7360 -2.0203
11791SOL     OW36153   5.016   5.388   6.509 -0.2654 -0.1803  0.2061
11791SOL    HW136154   4.956   5.436   6.567  0.0729 -0.4206  0.7732
11791SOL    HW236155   5.006   5.296   6.536 -0.2629 -0.3238 -0.2739
11792SOL     OW36156   6.106   2.975   2.086 -0.6618  0.4141  0.0870
11792SOL    HW136157   6.034   3.038   2.084  0.6621  1.9821  0.2727
11792SOL    HW236158   6.064   2.893   2.113 -2.3006  1.3896  0.6841
11793SOL     OW36159   7.893   8.055   7.900 -0.0617  0.5065  0.0310
11793SOL    HW136160   7.954   8.115   7.857 -1.1234  0.9898 -0.8444
11793SOL    HW236161   7.826   8.112   7.939 -0.6341 -0.0596 -0.1029
11794SOL     OW36162   8.200   4.981   4.084  0.0911  0.2539  0.4391
11794SOL    HW136163   8.272   4.949   4.029 -0.1866 -1.2637  0.9146
11794SOL    HW236164   8.126   4.991   4.024  0.7905  2.2774 -0.1422
11795SOL     OW36165   4.794   0.614   5.947 -0.0512  0.4825 -0.2967
11795SOL    HW136166   4.860   0.608   6.016  1.5747  0.8620 -1.7593
11795SOL    HW236167   4.832   0.672   5.882 -1.3398 -0.2141 -1.7368
11796SOL     OW36168   5.767   3.256   3.262  0.3795 -0.0731 -0.7628
11796SOL    HW136169   5.732   3.224   3.345  1.9773 -1.5661 -0.5935
11796SOL    HW236170   5.690   3.280   3.211 -0.9460 -2.8797 -0.3217
11797SOL     OW36171   4.182   3.707   2.920 -0.5468  0.1390 -0.1756
11797SOL    HW136172   4.142   3.722   3.005  0.0422  0.8989 -0.0291
11797SOL    HW236173   4.137   3.628   2.887 -1.6800  0.5711  0.2668
11798SOL     OW36174   7.160   3.063   7.838 -0.4585 -0.2483  0.0685
11798SOL    HW136175   7.131   3.109   7.760 -0.1960 -0.4856 -0.1708
11798SOL    HW236176   7.167   3.131   7.905 -0.4629 -0.0071 -0.1739
11799SOL     OW36177   8.065   7.957   3.804  0.4991  0.5601 -0.0919
11799SOL    HW136178   8.125   7.886   3.786  1.0104  0.5773  1.4230
11799SOL    HW236179   7.981   7.914   3.823  0.5280  0.4325 -0.2520
11800SOL     OW36180   3.688   7.032   6.595  0.3386 -0.1982 -0.3616
11800SOL    HW136181   3.762   7.092   6.589  0.1422  0.0613 -0.2094
11800SOL    HW236182   3.727   6.945   6.591  0.6894 -0.0668  0.1799
11801SOL     OW36183   1.070   7.484   3.209 -0.4854  0.2963  0.4768
11801SOL    HW136184   0.977   7.462   3.209 -0.5909  0.7136 -0.0475
11801SOL    HW236185   1.115   7.400   3.202 -0.8863  0.2443 -2.2644
11802SOL     OW36186   4.927   2.635   6.632  0.3390 -0.2050  0.2982
11802SOL    HW136187   4.888   2.655   6.546  0.5250  1.2623  0.5263
11802SOL    HW236188   4.852   2.614   6.687  0.2855 -2.1472 -0.4318
11803SOL     OW36189   7.003   0.441   6.326 -0.3221  0.6900 -0.1147
11803SOL    HW136190   6.949   0.364   6.345 -0.0538 -0.2487 -2.7119
11803SOL    HW236191   6.970   0.509   6.384 -0.7706 -1.2825  2.0552
11804SOL     OW36192   2.205   7.167   7.137 -0.0544  0.7225 -0.1474
11804SOL    HW136193   2.164   7.251   7.159 -0.5169  0.3481  0.4409
11804SOL    HW236194   2.173   7.106   7.204 -1.2194 -0.3756 -1.6331
11805SOL     OW36195   8.202   2.140   3.023  0.1045 -0.1074 -0.1841
11805SOL    HW136196   8.176   2.051   3.046  1.0417 -0.2134  0.5087
11805SOL    HW236197   8.293   2.147   3.052  0.6849  0.4359 -2.0082
11806SOL     OW36198   5.686   1.682   6.495 -0.5676 -0.1107 -0.5516
11806SOL    HW136199   5.598   1.711   6.471 -0.2726  0.1047 -1.4038
11806SOL    HW236200   5.715   1.744   6.561 -0.4654  0.7534 -1.3886
11807SOL     OW36201   6.029   7.805   7.438  0.3219 -0.6325  0.5072
11807SOL    HW136202   6.082   7.853   7.374  0.5200  0.4422  1.4407
11807SOL    HW236203   5.942   7.800   7.398 -0.0063  1.5200  0.8230
11808SOL     OW36204   2.854   1.875   1.920  0.2035  0.6456 -0.5071
11808SOL    HW136205   2.919   1.848   1.856 -0.0130 -0.9711 -0.0944
11808SOL    HW236206   2.845   1.969   1.907  0.3031  0.4127 -2.7286
11809SOL     OW36207   7.729   0.094   6.745 -0.0726 -0.5061  0.0791
11809SOL    HW136208   7.667   0.125   6.811  0.2680  1.3006 -0.4094
11809SOL    HW236209   7.794   0.045   6.795  0.0220  0.5785  1.0623
11810SOL     OW36210   1.307   7.282   5.751  0.1229  0.3023 -0.3226
11810SOL    HW136211   1.292   7.272   5.657  0.7276 -1.9024 -0.2399
11810SOL    HW236212   1.402   7.292   5.759 -0.0420  1.9312  0.0005
11811SOL     OW36213   1.074   4.819   0.876  0.0556  0.4299  0.1299
11811SOL    HW136214   1.006   4.813   0.809  0.4185  1.5809 -0.3592
11811SOL    HW236215   1.154   4.788   0.833  0.2709  1.0834  0.0489
11812SOL     OW36216   4.000   5.413   1.694  0.0707 -0.4486 -0.2894
11812SOL    HW136217   3.974   5.499   1.662 -0.8277 -0.4145  0.5016
11812SOL    HW236218   3.932   5.389   1.757  0.6900 -1.4233  0.0279
11813SOL     OW36219   6.732   5.208   0.373 -0.3819  0.4938 -0.1008
11813SOL    HW136220   6.668   5.252   0.317 -1.7566 -1.5076 -0.2210
11813SOL    HW236221   6.742   5.266   0.449 -2.9245  0.5673  0.2592
11814SOL     OW36222   7.229   0.067   0.886 -0.6491  0.1542 -0.1945
11814SOL    HW136223   7.183   0.022   0.957  0.4164  2.2333  1.9528
11814SOL    HW236224   7.322   0.048   0.903 -0.4246 -0.6993 -2.0972
11815SOL     OW36225   0.376   1.332   8.287  0.2991 -0.8345  0.2016
11815SOL    HW136226   0.395   1.289   8.370 -0.1527 -0.4271  0.5197
11815SOL    HW236227   0.460   1.331   8.240  0.6315 -0.7896  0.7865
11816SOL     OW36228   8.245   0.394   7.169 -0.1425  0.1125 -0.3165
11816SOL    HW136229   8.242   0.365   7.078 -0.6424 -2.0297  0.3323
11816SOL    HW236230   8.254   0.313   7.220  2.6131  1.3670  1.4497
11817SOL     OW36231   7.894   3.593   1.503  0.1373 -0.9674 -0.7791
11817SOL    HW136232   7.884   3.684   1.475 -1.2701 -1.0047 -0.4662
11817SOL    HW236233   7.879   3.542   1.423 -0.3914 -0.9617 -0.6863
11818SOL     OW36234   6.238   2.059   0.508 -0.1094 -0.4751  0.4548
11818SOL    HW136235   6.309   2.041   0.569 -0.1005  1.6697  1.1587
11818SOL    HW236236   6.275   2.040   0.422  0.6382 -1.3269  0.9471
11819SOL     OW36237   3.075   0.129   0.367 -0.0047 -0.0119 -0.2038
11819SOL    HW136238   3.069   0.170   0.281  1.4807  2.7982  0.8987
11819SOL    HW236239   3.143   0.062   0.358  0.6933  0.7951 -1.0326
11820SOL     OW36240   3.632   0.543   2.422 -0.8235 -0.2851  0.4151
11820SOL    HW136241   3.586   0.613   2.376  0.9172  0.3649 -0.4351
11820SOL    HW236242   3.694   0.588   2.479 -0.5243 -1.1224  0.7692
11821SOL     OW36243   6.764   0.426   1.278 -0.5620  0.1649 -0.6453
11821SOL    HW136244   6.672   0.447   1.261 -1.1107  0.4364  2.1841
11821SOL    HW236245   6.762   0.338   1.315  0.6765 -0.9677 -3.0457
11822SOL     OW36246   1.329   5.379   0.239 -0.4515  0.4673 -0.1867
11822SOL    HW136247   1.373   5.405   0.319 -0.6446 -2.0838  0.8330
11822SOL    HW236248   1.236   5.377   0.261 -0.3934 -1.7644  0.0758
11823SOL     OW36249   3.539   1.311   6.051 -0.2471 -0.1083 -0.1852
11823SOL    HW136250   3.459   1.264   6.026 -0.4493  0.2716 -0.2732
11823SOL    HW236251   3.555   1.371   5.977 -0.9297  1.1233  0.6183
11824SOL     OW36252   3.030   0.748   8.140 -0.3723  0.8172  0.1424
11824SOL    HW136253   3.039   0.688   8.213  0.5260  1.3108  0.4594
11824SOL    HW236254   3.099   0.722   8.078  1.6345  2.8936  1.3169
11825SOL     OW36255   1.421   5.473   0.471  0.0432  0.1384  0.2163
11825SOL    HW136256   1.329   5.467   0.497 -1.2262  1.7567 -3.2177
11825SOL    HW236257   1.452   5.552   0.513 -0.5294  0.2667  0.4156
11826SOL     OW36258   4.970   1.194   0.778 -0.9496 -0.0537 -0.2002
11826SOL    HW136259   5.012   1.140   0.711  1.5437  1.9379 -0.3915
11826SOL    HW236260   4.988   1.147   0.860  0.7586  0.1365 -0.4128
11827SOL     OW36261   8.133   3.917   3.162 -0.1193 -0.1469  0.3619
11827SOL    HW136262   8.043   3.898   3.134 -0.3601  0.9758  0.3260
11827SOL    HW236263   8.166   3.834   3.194 -1.0854 -0.6400  0.1240
11828SOL     OW36264   1.412   0.080   6.130 -0.1268  0.1554  0.0957
11828SOL    HW136265   1.448   0.000   6.169 -1.9980 -0.3200  0.9601
11828SOL    HW236266   1.318   0.071   6.140 -0.5201  1.4040 -1.9361
11829SOL     OW36267   5.884   3.100   2.695 -0.3003 -0.1109  0.5928
11829SOL    HW136268   5.837   3.181   2.715  0.4156  0.3486  0.4692
11829SOL    HW236269   5.848   3.036   2.755 -0.7217  0.3576  0.8506
11830SOL     OW36270   6.300   1.991   0.875 -0.0010 -0.1068  0.1386
11830SOL    HW136271   6.282   1.905   0.913 -0.5827  0.0180  0.1525
11830SOL    HW236272   6.382   1.979   0.827  0.2053 -0.5286  0.5804
11831SOL     OW36273   0.617   7.386   5.394  0.4169  0.0550 -0.0059
11831SOL    HW136274   0.570   7.409   5.474 -0.0330  0.9518 -0.5099
11831SOL    HW236275   0.663   7.305   5.416 -0.7628 -0.4483  0.7296
11832SOL     OW36276   6.127   2.584   1.674 -0.0109  0.1067 -0.0459
11832SOL    HW136277   6.166   2.496   1.679  0.6138  0.3854  0.0842
11832SOL    HW236278   6.082   2.594   1.758 -1.4538 -0.7043 -0.6866
11833SOL     OW36279   6.463   3.252   6.242 -0.2845 -0.1206 -0.2711
11833SOL    HW136280   6.400   3.320   6.264 -0.8432 -0.9183  0.6420
11833SOL    HW236281   6.548   3.297   6.240 -0.8432  0.9232 -1.3575
11834SOL     OW36282   1.528   7.409   1.588 -0.2541  0.0675  0.4557
11834SOL    HW136283   1.500   7.328   1.548 -0.5138 -0.0439  0.8584
11834SOL    HW236284   1.521   7.393   1.682 -1.8203  1.0820  0.5418
11835SOL     OW36285   5.339   1.789   0.013 -0.6296 -0.1484 -0.4309
11835SOL    HW136286   5.245   1.801  -0.005 -0.7743 -3.6238 -3.0384
11835SOL    HW236287   5.346   1.797   0.108 -3.5995  0.0286 -0.1159
11836SOL     OW36288   6.940   1.411   1.944 -0.0784 -0.5665 -0.2750
11836SOL    HW136289   6.869   1.469   1.914  0.6828  0.4740 -0.1116
11836SOL    HW236290   7.016   1.468   1.951  0.3809 -1.3240  1.2029
11837SOL     OW36291   7.234   6.019   2.765 -1.4858  0.4885 -0.6708
11837SOL    HW136292   7.289   6.095   2.784 -0.0416 -0.5090 -0.6438
11837SOL    HW236293   7.163   6.023   2.829 -0.5200  0.9178  0.4042
11838SOL     OW36294   2.840   4.748   1.697 -0.1871 -0.4334  0.7859
11838SOL    HW136295   2.813   4.679   1.637 -1.7290 -2.2759  3.3876
11838SOL    HW236296   2.777   4.819   1.681 -0.7440 -0.9980  0.3941
11839SOL     OW36297   3.828   5.615   2.673  0.0551  0.4246  0.5834
11839SOL    HW136298   3.846   5.573   2.589 -0.7639  0.7214  0.2474
11839SOL    HW236299   3.914   5.636   2.708  0.4089  0.3268 -0.2020
11840SOL     OW36300   3.479   7.240   1.108  0.3705 -0.1573  0.0571
11840SOL    HW136301   3.532   7.194   1.043  0.6719 -1.5140  1.2120
11840SOL    HW236302   3.538   7.251   1.183  0.3194  2.1804 -0.1619
11841SOL     OW36303   0.905   1.416   6.098  0.7078  0.1255  0.9453
11841SOL    HW136304   0.978   1.472   6.123  2.3091 -1.4505  0.0198
11841SOL    HW236305   0.835   1.440   6.159  2.0961  1.4242  2.1257
11842SOL     OW36306   4.204   6.564   1.534 -0.0918 -0.4221  0.0111
11842SOL    HW136307   4.128   6.547   1.479 -0.5255  1.3852  0.0093
11842SOL    HW236308   4.168   6.600   1.615  0.7485  0.8101 -0.1334
11843SOL     OW36309   8.153   3.040   2.518  0.1499 -0.5415  0.0516
11843SOL    HW136310   8.078   3.084   2.478 -1.0454 -0.4410  2.2974
11843SOL    HW236311   8.128   2.947   2.519  0.8259 -0.7494 -0.7409
11844SOL     OW36312   2.720   7.344   7.748  0.3322  0.5760  0.1619
11844SOL    HW136313   2.749   7.276   7.808  0.0796  0.8812  0.6378
11844SOL    HW236314   2.790   7.349   7.682  0.9450  0.6974  0.8014
11845SOL     OW36315   3.694   5.535   6.688 -0.5181 -0.6848  0.1848
11845SOL    HW136316   3.658   5.609   6.736 -0.3166 -0.9603  0.7689
11845SOL    HW236317   3.677   5.555   6.596 -1.5211 -0.4765  0.4096
11846SOL     OW36318   7.218   7.012   4.032  0.6608  0.2149  0.1943
11846SOL    HW136319   7.267   7.061   3.965  2.2630  0.1811  1.3015
11846SOL    HW236320   7.155   7.075   4.066 -0.2422  0.2112 -1.3727
11847SOL     OW36321   0.090   1.209   2.422 -0.5053 -0.6178 -0.0827
11847SOL    HW136322   0.107   1.115   2.413  0.5888 -0.4370  0.0364
11847SOL    HW236323   0.167   1.244   2.466 -1.3631  0.1811  0.8407
11848SOL     OW36324   6.199   5.171   6.326  0.2354 -0.5252 -0.5507
11848SOL    HW136325   6.173   5.160   6.235 -0.5220 -0.6901 -0.3297
11848SOL    HW236326   6.155   5.252   6.353 -0.3043 -0.9621 -0.0842
11849SOL     OW36327   3.298   4.848   0.699 -0.4280  1.1295  0.0114
11849SOL    HW136328   3.377   4.902   0.696  0.9191 -0.7374  0.0272
11849SOL    HW236329   3.323   4.767   0.655 -2.2175  0.3279  0.3812
11850SOL     OW36330   0.079   7.667   7.299 -0.1063  0.3631  0.4139
11850SOL    HW136331   0.071   7.590   7.243 -0.6568  1.1057 -0.5625
11850SOL    HW236332   0.009   7.657   7.364 -2.1915  1.4578 -1.5181
11851SOL     OW36333   0.633   3.143   2.347 -0.0081 -0.3665 -0.0678
11851SOL    HW136334   0.574   3.076   2.311 -1.9593  1.2768 -0.1679
11851SOL    HW236335   0.629   3.130   2.442  0.3973 -0.9926 -0.1341
11852SOL     OW36336   4.557   4.075   6.675  0.1916 -0.3087  0.7972
11852SOL    HW136337   4.545   4.169   6.666 -0.5263 -0.5487 -1.5567
11852SOL    HW236338   4.474   4.038   6.645  1.5305 -1.7170 -1.4964
11853SOL     OW36339   0.342   0.681   1.831 -0.2280  0.0500  0.0320
11853SOL    HW136340   0.377   0.770   1.830  1.6241 -0.6423  0.3155
11853SOL    HW236341   0.281   0.679   1.905 -0.3000  1.0729  0.0080
11854SOL     OW36342   1.479   3.944   0.594 -0.0777  0.1619 -0.2486
11854SOL    HW136343   1.426   3.872   0.560 -0.0216 -0.3573  0.7273
11854SOL    HW236344   1.428   4.023   0.572 -0.5626 -0.2272 -0.5648
11855SOL     OW36345   7.494   3.839   7.918 -0.5036  0.0153 -0.5235
11855SOL    HW136346   7.570   3.887   7.953 -2.3353  2.5708  0.2295
11855SOL    HW236347   7.524   3.808   7.832  1.6927  0.0666  0.1539
11856SOL     OW36348   4.729   2.119   6.843 -0.3374 -0.3528 -0.1319
11856SOL    HW136349   4.644   2.162   6.841  0.2015  0.9309  1.6440
11856SOL    HW236350   4.784   2.170   6.784 -0.2873  0.0613  0.2663
11857SOL     OW36351   3.090   6.846   7.822  0.2717  0.0999 -0.5823
11857SOL    HW136352   3.151   6.787   7.867  0.1131  0.2172 -0.2105
11857SOL    HW236353   3.145   6.917   7.788  0.2650  0.5438  0.3098
11858SOL     OW36354   2.750   2.757   8.265 -0.4625 -0.4796  0.5110
11858SOL    HW136355   2.811   2.828   8.247 -0.3980 -0.0398  2.2658
11858SOL    HW236356   2.804   2.678   8.265 -0.2608 -0.3429  0.0858
11859SOL     OW36357   3.718   7.296   3.749 -0.0027  0.2769 -0.1011
11859SOL    HW136358   3.755   7.382   3.730  1.0195  0.2009  1.3914
11859SOL    HW236359   3.794   7.240   3.765 -0.6947 -0.3768  1.0426
11860SOL     OW36360   5.585   3.314   4.841 -0.0276 -0.3776  0.2142
11860SOL    HW136361   5.666   3.366   4.846 -0.0131 -0.2770 -1.0057
11860SOL    HW236362   5.609   3.236   4.792 -0.7792 -0.1429 -0.5423
11861SOL     OW36363   1.678   1.778   4.597 -0.0419  0.3935  0.7827
11861SOL    HW136364   1.615   1.850   4.592 -2.5150 -1.6885 -1.5305
11861SOL    HW236365   1.733   1.789   4.520  1.4055  1.2502  1.8935
11862SOL     OW36366   0.889   6.891   7.715 -0.3656  0.2340  0.2525
11862SOL    HW136367   0.873   6.985   7.721  0.3886  0.3595  0.4304
11862SOL    HW236368   0.897   6.874   7.621  0.0996  0.4637  0.2441
11863SOL     OW36369   3.540   0.302   7.160 -0.1866 -0.8348 -0.6476
11863SOL    HW136370   3.632   0.288   7.182  0.2373  2.6194  0.2524
11863SOL    HW236371   3.494   0.281   7.242 -0.0622 -1.0323 -0.6245
11864SOL     OW36372   2.906   8.173   4.292  0.2672 -0.3025  0.0781
11864SOL    HW136373   2.973   8.109   4.270  1.0791  1.1286 -1.9966
11864SOL    HW236374   2.834   8.155   4.231 -0.7441 -1.0102  1.4231
11865SOL     OW36375   8.030   2.274   6.408  0.1857 -0.4374 -0.1293
11865SOL    HW136376   8.017   2.304   6.318 -2.5573  0.1989  0.3690
11865SOL    HW236377   8.058   2.183   6.400  0.2309 -0.3120 -1.6323
11866SOL     OW36378   7.053   3.417   5.131 -0.6935  0.0008  0.4495
11866SOL    HW136379   7.004   3.457   5.060 -0.4738 -1.0377 -0.3167
11866SOL    HW236380   7.016   3.329   5.139 -0.7668  0.1285  1.6814
11867SOL     OW36381   4.984   4.408   8.256 -0.7347 -0.5953 -0.0420
11867SOL    HW136382   4.937   4.356   8.321 -2.1121  0.6542  0.0028
11867SOL    HW236383   4.989   4.351   8.179 -3.3624 -0.3952 -0.4279
11868SOL     OW36384   4.811   0.037   6.547 -0.3376  0.0815  0.2607
11868SOL    HW136385   4.855  -0.046   6.564  2.3779  1.3848  0.0551
11868SOL    HW236386   4.837   0.060   6.458 -2.0463  0.6196 -0.1395
11869SOL     OW36387   4.504   0.392   7.803  0.1479 -0.6316  0.3000
11869SOL    HW136388   4.538   0.308   7.771 -2.0151 -1.2959 -0.4275
11869SOL    HW236389   4.564   0.457   7.766  0.5391 -1.7173 -1.0985
11870SOL     OW36390   1.825   3.637   1.829  0.4363 -0.0183 -0.5181
11870SOL    HW136391   1.758   3.677   1.884  1.1801  0.1177  0.3044
11870SOL    HW236392   1.852   3.706   1.769  0.9081  0.3782  0.1460
11871SOL     OW36393   0.617   1.979   6.021  0.7623  0.1951  0.0996
11871SOL    HW136394   0.679   2.042   5.985  0.2152  1.1545  0.8019
11871SOL    HW236395   0.533   2.025   6.021  0.5356 -0.1714  1.5052
11872SOL     OW36396   6.058   8.172   3.039 -0.9821 -0.8708  0.4716
11872SOL    HW136397   5.973   8.157   3.080 -3.2351 -0.4718 -3.5701
11872SOL    HW236398   6.099   8.085   3.039 -2.6214 -1.6946  0.0742
11873SOL     OW36399   8.252   3.732   5.529  0.1818 -0.3087  0.0397
11873SOL    HW136400   8.276   3.770   5.614 -0.8313 -1.5316  0.9173
11873SOL    HW236401   8.330   3.743   5.475  1.9684 -2.0678  2.0541
11874SOL     OW36402   0.127   5.320   5.087  0.3269 -0.3170  0.0554
11874SOL    HW136403   0.148   5.245   5.031  0.6329 -0.7026  0.6757
11874SOL    HW236404   0.040   5.301   5.122 -0.0533  0.1301 -0.6124
11875SOL     OW36405   3.670   6.686   6.065  0.3636  0.3641 -0.5621
11875SOL    HW136406   3.631   6.637   6.137 -0.0768  0.7378 -0.5455
11875SOL    HW236407   3.761   6.700   6.092 -0.3914  2.6498  1.0609
11876SOL     OW36408   6.507   4.489   6.752 -0.8461  0.2613  0.0973
11876SOL    HW136409   6.464   4.566   6.715 -0.5703  0.2052 -0.3498
11876SOL    HW236410   6.570   4.524   6.815 -1.4521  0.3494  0.6630
11877SOL     OW36411   6.406   7.521   5.946 -0.1606  0.3844  0.3835
11877SOL    HW136412   6.318   7.558   5.941 -0.9164 -1.1428  1.5097
11877SOL    HW236413   6.392   7.427   5.962  1.6128  0.5669  3.9794
11878SOL     OW36414   3.738   1.798   5.256 -0.6040  0.3702  0.0796
11878SOL    HW136415   3.737   1.787   5.351  2.1596 -1.6648 -0.0075
11878SOL    HW236416   3.650   1.773   5.228 -1.7628  1.8535  2.0930
11879SOL     OW36417   5.864   7.791   1.138 -0.0802 -0.0342  0.4694
11879SOL    HW136418   5.861   7.778   1.043 -1.4641  2.0702  0.1570
11879SOL    HW236419   5.839   7.706   1.174 -1.1329 -0.4508 -1.1097
11880SOL     OW36420   6.522   6.683   0.849 -0.6176  0.2388 -0.4538
11880SOL    HW136421   6.554   6.684   0.759  0.5043  1.7452 -0.0768
11880SOL    HW236422   6.520   6.590   0.873  2.2509 -0.0437 -0.9643
11881SOL     OW36423   3.472   4.513   1.455 -0.4530  0.3906 -0.0136
11881SOL    HW136424   3.556   4.466   1.450 -0.1184  1.0793 -1.6873
11881SOL    HW236425   3.416   4.456   1.506  0.9695 -0.2022  0.9546
11882SOL     OW36426   1.099   1.526   7.253 -0.2517 -0.2290 -0.3308
11882SOL    HW136427   1.055   1.534   7.338 -2.1245  0.4804 -1.3165
11882SOL    HW236428   1.149   1.608   7.245 -1.4496  0.4897 -0.6382
11883SOL     OW36429   1.953   2.207   4.845  0.2471 -0.3825  0.8122
11883SOL    HW136430   1.926   2.207   4.753  0.3917  0.1393  0.7687
11883SOL    HW236431   1.894   2.145   4.887 -1.7798  1.4905  0.9215
11884SOL     OW36432   5.841   4.926   5.727 -0.3532 -0.4765 -0.7258
11884SOL    HW136433   5.779   4.992   5.696  0.1811  0.0974 -0.6082
11884SOL    HW236434   5.925   4.954   5.691  0.1086 -0.3431  0.4181
11885SOL     OW36435   7.869   2.774   5.977  0.4059  0.2458 -0.0570
11885SOL    HW136436   7.774   2.762   5.964  0.2008  1.9451 -0.2795
11885SOL    HW236437   7.892   2.708   6.043 -1.0960  0.3049  0.5758
11886SOL     OW36438   8.134   3.833   3.956  0.1636  0.1827  0.6442
11886SOL    HW136439   8.150   3.927   3.956  1.3465  0.0023  0.7696
11886SOL    HW236440   8.220   3.794   3.936 -0.5298 -0.8263 -0.5337
11887SOL     OW36441   5.337   6.505   4.675 -0.5214 -0.1079  0.4516
11887SOL    HW136442   5.292   6.588   4.685 -1.0027 -0.4589  1.2866
11887SOL    HW236443   5.293   6.462   4.601 -3.0764 -1.3768  2.5539
11888SOL     OW36444   0.266   5.680   7.685  0.2241 -0.2174  0.4651
11888SOL    HW136445   0.309   5.752   7.730  0.3418 -0.5285  0.8576
11888SOL    HW236446   0.336   5.638   7.635  0.2111 -0.2225  0.4512
11889SOL     OW36447   4.112   3.537   6.727  0.5498  0.0342 -0.0479
11889SOL    HW136448   4.155   3.524   6.642 -3.4732 -0.1154 -2.3388
11889SOL    HW236449   4.059   3.615   6.715  1.8028  1.6046  3.3825
11890SOL     OW36450   7.211   3.250   1.920  0.0309 -0.0927 -0.6759
11890SOL    HW136451   7.263   3.322   1.883  0.5714  0.4627  1.1003
11890SOL    HW236452   7.228   3.253   2.014 -2.3216 -0.6044 -0.1561
11891SOL     OW36453   2.296   7.403   3.951 -0.2346 -0.0938 -0.4475
11891SOL    HW136454   2.375   7.454   3.932  2.2132 -2.5455  2.0033
11891SOL    HW236455   2.234   7.466   3.987  1.5361  1.6170 -0.2358
11892SOL     OW36456   3.355   6.041   0.134  0.2366  0.1961  0.0735
11892SOL    HW136457   3.423   6.054   0.200 -0.6003 -0.3546  1.0807
11892SOL    HW236458   3.277   6.082   0.172 -0.4651 -0.8628 -0.1877
11893SOL     OW36459   5.275   8.070   7.097 -0.7757 -0.0620 -0.1780
11893SOL    HW136460   5.275   8.102   7.188 -0.0980  0.2236 -0.2733
11893SOL    HW236461   5.327   8.134   7.049 -0.4502 -0.6431 -0.6165
11894SOL     OW36462   2.311   8.073   0.636  0.2398 -0.0056 -0.5323
11894SOL    HW136463   2.318   8.094   0.729  0.1727  1.3067 -0.8075
11894SOL    HW236464   2.401   8.069   0.605  0.2451  0.6054 -0.6171
11895SOL     OW36465   0.731   2.775   3.067  0.5310 -0.4050  0.1615
11895SOL    HW136466   0.751   2.817   3.151  1.2754 -1.1487  0.3763
11895SOL    HW236467   0.646   2.733   3.080  0.3715 -0.0267  0.3506
11896SOL     OW36468   7.027   5.610   2.774  0.5320 -0.1823  0.1787
11896SOL    HW136469   6.974   5.557   2.833 -1.3658  2.0109  0.5769
11896SOL    HW236470   7.068   5.675   2.831  0.7626  0.3624 -0.5911
11897SOL     OW36471   5.999   3.626   7.936 -0.0304  0.0824  0.0688
11897SOL    HW136472   6.067   3.691   7.917  1.0583 -1.0887 -0.1453
11897SOL    HW236473   5.958   3.609   7.851  1.1641 -1.0982 -0.3093
11898SOL     OW36474   3.764   0.931   5.273  0.3071 -0.3920 -0.2219
11898SOL    HW136475   3.803   1.018   5.278 -0.3180 -0.0555 -0.9425
11898SOL    HW236476   3.737   0.922   5.182  0.7746 -1.5307 -0.2541
11899SOL     OW36477   2.042   7.981   7.493 -0.2114  0.2192 -0.4283
11899SOL    HW136478   1.948   7.973   7.474 -0.4584 -0.3416  0.9134
11899SOL    HW236479   2.085   7.956   7.412 -1.2303  1.6432 -1.4505
11900SOL     OW36480   4.517   2.968   0.898 -0.5890 -0.2835  0.3370
11900SOL    HW136481   4.450   2.984   0.832  1.4462 -0.7698 -2.0493
11900SOL    HW236482   4.523   3.049   0.948 -1.2609  0.6336 -1.0245
11901SOL     OW36483   5.062   4.613   1.292  0.1360  0.1331  0.4930
11901SOL    HW136484   5.096   4.688   1.243  2.0220 -0.5996  0.5637
11901SOL    HW236485   5.109   4.616   1.375 -1.2475 -0.0137  1.3068
11902SOL     OW36486   7.958   2.294   5.543 -0.5369 -0.1559  0.2269
11902SOL    HW136487   8.013   2.358   5.587  0.8212 -0.9867 -0.1999
11902SOL    HW236488   7.966   2.316   5.450  0.0212 -0.9888  0.0691
11903SOL     OW36489   2.195   4.166   2.044  0.0685  0.1789 -0.3859
11903SOL    HW136490   2.157   4.196   2.127  1.0429 -4.0111  1.8770
11903SOL    HW236491   2.123   4.122   1.999  0.4468 -1.3514  0.4231
11904SOL     OW36492   7.138   3.004   6.544 -0.2791 -0.1283  0.0466
11904SOL    HW136493   7.224   2.972   6.570  0.5917  2.0097  0.0314
11904SOL    HW236494   7.140   3.003   6.448  0.6232  1.9016 -0.0180
11905SOL     OW36495   5.988   5.848   6.924  0.5403 -0.1900 -0.1099
11905SOL    HW136496   5.929   5.921   6.945 -0.8983 -0.8047 -1.8119
11905SOL    HW236497   6.056   5.888   6.871  1.1643  0.3396  1.0397
11906SOL     OW36498   5.511   4.588   0.803  0.0847  0.3664  0.5942
11906SOL    HW136499   5.492   4.550   0.888 -0.6844  0.5516  0.5133
11906SOL    HW236500   5.427   4.586   0.756  0.6746 -0.5259 -0.4830
11907SOL     OW36501   3.207   6.689   6.741  0.0793  0.1079 -0.1307
11907SOL    HW136502   3.126   6.669   6.789 -1.7447  1.1831 -2.5176
11907SOL    HW236503   3.242   6.604   6.717 -0.0761 -0.3872  1.3051
11908SOL     OW36504   1.516   6.925   8.086 -0.1346 -0.1824 -0.3024
11908SOL    HW136505   1.498   6.873   8.008 -0.6070 -0.5420  0.0392
11908SOL    HW236506   1.452   6.996   8.083 -0.0162 -0.0776 -0.3508
11909SOL     OW36507   5.187   0.657   3.181  0.4192 -0.4092  0.1012
11909SOL    HW136508   5.189   0.717   3.106  0.9723  1.0002  1.2031
11909SOL    HW236509   5.103   0.611   3.173  0.0537  0.4014 -0.8600
11910SOL     OW36510   4.479   7.674   4.854 -0.0751 -0.1929 -0.2829
11910SOL    HW136511   4.454   7.597   4.803 -0.5425  0.5324 -1.1681
11910SOL    HW236512   4.433   7.664   4.937 -3.1738  0.9332 -1.7270
11911SOL     OW36513   3.483   2.706   4.238 -0.3159 -0.0580 -0.0151
11911SOL    HW136514   3.454   2.681   4.326  0.3230  0.8132  0.4466
11911SOL    HW236515   3.552   2.643   4.216  1.8647  1.6864  1.4759
11912SOL     OW36516   6.460   2.765   6.415 -0.1817  0.0338  0.3646
11912SOL    HW136517   6.392   2.764   6.482  0.2498  1.1463  0.8496
11912SOL    HW236518   6.521   2.834   6.443  0.1064  0.4054 -1.0699
11913SOL     OW36519   1.902   4.277   3.465  0.3833 -0.3318 -0.0232
11913SOL    HW136520   1.955   4.281   3.385  0.2040  1.5133 -0.0905
11913SOL    HW236521   1.921   4.359   3.511  0.5097 -1.3724  1.8773
11914SOL     OW36522   7.534   5.878   7.577  0.1106  0.0619 -0.1183
11914SOL    HW136523   7.528   5.972   7.590 -0.4613  0.4799 -2.8550
11914SOL    HW236524   7.598   5.849   7.642  1.7559  2.6173 -0.4731
11915SOL     OW36525   1.201   5.687   3.372 -0.0176 -0.0613 -0.4174
11915SOL    HW136526   1.183   5.622   3.440  1.5653  0.0669  0.1735
11915SOL    HW236527   1.146   5.662   3.299 -2.1614  0.0627  1.0521
11916SOL     OW36528   7.353   5.503   5.691  0.4582 -0.6427  0.1203
11916SOL    HW136529   7.372   5.533   5.780 -0.4424 -0.6507  0.3220
11916SOL    HW236530   7.367   5.408   5.694  0.7121 -0.6052  0.1702
11917SOL     OW36531   1.797   7.736   3.518  0.3159 -0.1734  0.7499
11917SOL    HW136532   1.837   7.685   3.448 -0.5062  0.0495  0.1015
11917SOL    HW236533   1.773   7.672   3.585  0.5945 -0.4588  0.5726
11918SOL     OW36534   4.912   1.497   1.869 -0.5023 -0.2118 -0.2579
11918SOL    HW136535   4.864   1.570   1.830  1.2620 -0.3164 -2.8899
11918SOL    HW236536   5.000   1.530   1.883 -0.2677 -1.1738  0.6695
11919SOL     OW36537   1.538   0.358   7.270  0.0109 -0.2191 -0.1466
11919SOL    HW136538   1.604   0.344   7.338  1.6709 -3.2553 -2.1545
11919SOL    HW236539   1.564   0.440   7.228  0.9231 -0.0321  0.7414
11920SOL     OW36540   1.583   6.374   7.646  0.3679  0.0627 -0.0520
11920SOL    HW136541   1.572   6.285   7.611 -1.2560 -0.1791  0.9466
11920SOL    HW236542   1.622   6.424   7.575 -2.5912 -0.4286 -2.2179
11921SOL     OW36543   3.204   0.604   1.853  0.4584 -0.2323  0.6470
11921SOL    HW136544   3.164   0.546   1.918  0.4527 -1.8443 -0.7247
11921SOL    HW236545   3.152   0.684   1.857 -1.5814 -1.4808  0.3992
11922SOL     OW36546   3.330   4.045   2.239 -0.6048  0.5614 -0.4825
11922SOL    HW136547   3.407   3.988   2.231 -2.1939 -1.6244 -0.9825
11922SOL    HW236548   3.315   4.076   2.150 -1.4923 -0.7335 -0.8176
11923SOL     OW36549   6.743   0.298   4.418  0.4776  0.2404 -0.1204
11923SOL    HW136550   6.652   0.273   4.437 -0.6842  3.7017 -0.4548
11923SOL    HW236551   6.788   0.293   4.502 -0.8471  1.3919  0.6929
11924SOL     OW36552   4.358   2.427   5.824  0.5285 -0.1744 -0.1153
11924SOL    HW136553   4.450   2.429   5.849  0.5678  1.9958 -0.2150
11924SOL    HW236554   4.355   2.466   5.737 -0.6300  1.5930  0.6497
11925SOL     OW36555   0.252   1.136   4.728  0.2140 -0.4800 -0.0848
11925SOL    HW136556   0.319   1.084   4.771 -1.1297 -2.3404 -0.1229
11925SOL    HW236557   0.197   1.072   4.682 -1.8386  0.9048  0.2939
11926SOL     OW36558   7.852   4.970   6.315  0.3556  0.5083 -0.4215
11926SOL    HW136559   7.794   4.936   6.247 -1.6051  1.5578  0.6625
11926SOL    HW236560   7.868   5.060   6.290  1.3713  0.2942 -0.5847
11927SOL     OW36561   5.809   4.739   7.358 -0.1636  0.1568  0.2215
11927SOL    HW136562   5.731   4.734   7.303 -0.5353 -1.4214  0.8431
11927SOL    HW236563   5.881   4.752   7.297 -0.7639  0.2686 -0.4750
11928SOL     OW36564   5.215   3.968   0.529  0.0577  0.3121  0.4223
11928SOL    HW136565   5.140   3.917   0.560  0.2756 -0.0964  0.2897
11928SOL    HW236566   5.176   4.040   0.480 -0.2437 -0.0798  0.0729
11929SOL     OW36567   3.833   3.403   0.257 -0.0933 -0.8296 -0.8699
11929SOL    HW136568   3.790   3.340   0.315 -0.7117  0.0060 -0.4064
11929SOL    HW236569   3.897   3.447   0.312  1.5981 -2.2275 -1.6079
11930SOL     OW36570   2.000   1.831   2.780  0.0951  0.1593 -0.1276
11930SOL    HW136571   1.943   1.895   2.823 -0.6350 -0.9827  0.6812
11930SOL    HW236572   1.941   1.758   2.759  1.0643 -0.6019 -0.2488
11931SOL     OW36573   0.408   5.907   2.628 -0.1099  0.1345 -0.5210
11931SOL    HW136574   0.394   5.904   2.722 -0.6884  0.1188 -0.6088
11931SOL    HW236575   0.321   5.904   2.590 -0.0505  2.3071 -0.9951
11932SOL     OW36576   0.947   8.066   5.818  0.1862 -0.5273  0.2977
11932SOL    HW136577   0.900   8.019   5.888 -1.0341 -0.7811 -0.6681
11932SOL    HW236578   1.007   8.000   5.782  0.2530 -0.6265  0.5875
11933SOL     OW36579   6.980   7.823   0.441  0.5438  0.0718  0.1135
11933SOL    HW136580   6.941   7.858   0.361  0.1127  1.0584  0.7292
11933SOL    HW236581   7.054   7.771   0.411 -0.4637 -0.7737 -1.0073
11934SOL     OW36582   7.590   5.935   7.126  0.4345  0.0757 -0.1434
11934SOL    HW136583   7.533   6.009   7.109  0.4433  0.0161 -0.4322
11934SOL    HW236584   7.646   5.964   7.198  1.0770  0.6993 -0.8726
11935SOL     OW36585   4.318   4.386   4.694  0.5975 -0.0459  0.2165
11935SOL    HW136586   4.369   4.326   4.639  0.5763 -0.6562  0.8411
11935SOL    HW236587   4.347   4.473   4.669 -0.2061 -0.2339 -1.5727
11936SOL     OW36588   2.166   0.877   1.986 -0.5900 -0.0570  0.1913
11936SOL    HW136589   2.198   0.942   1.924 -0.8253 -0.2980 -0.1864
11936SOL    HW236590   2.127   0.809   1.932 -0.4510 -0.4580  0.5880
11937SOL     OW36591   8.042   1.167   2.944  0.0787 -0.1016  0.3861
11937SOL    HW136592   8.131   1.148   2.974  0.2482 -1.2175 -0.7288
11937SOL    HW236593   8.042   1.261   2.926  0.4414  0.2815  2.2148
11938SOL     OW36594   3.982   3.891   4.382 -0.3371 -0.5829  0.6124
11938SOL    HW136595   3.908   3.950   4.397  1.1154  1.3024  0.6483
11938SOL    HW236596   3.995   3.846   4.465 -1.3381 -0.8614  0.6368
11939SOL     OW36597   0.078   6.519   2.849  0.0068 -0.3553  0.5142
11939SOL    HW136598   0.008   6.529   2.784 -0.3021  0.4836  0.9581
11939SOL    HW236599   0.157   6.503   2.798 -0.0483  1.3107 -0.1341
11940SOL     OW36600   6.486   6.030   3.972  0.1476  0.1874 -0.0536
11940SOL    HW136601   6.537   5.979   4.034  2.5602  1.4711 -0.8756
11940SOL    HW236602   6.437   5.964   3.922  0.1532 -1.0153  1.4506
11941SOL     OW36603   6.031   4.660   3.171 -0.4410  1.0389  0.7069
11941SOL    HW136604   6.075   4.745   3.170  0.1483  0.7397  0.0258
11941SOL    HW236605   6.040   4.628   3.081  1.0205 -0.5936  1.3974
11942SOL     OW36606   5.195   1.480   8.281  0.7466 -0.0656 -0.5843
11942SOL    HW136607   5.190   1.569   8.248  0.7041  0.7037  1.3767
11942SOL    HW236608   5.217   1.490   8.374  2.0618 -2.1339 -0.6170
11943SOL     OW36609   1.286   0.146   8.056 -0.5129  0.2340 -0.1997
11943SOL    HW136610   1.202   0.145   8.011  1.0156  1.7180 -3.4220
11943SOL    HW236611   1.282   0.224   8.112 -1.1921  0.4259 -0.5069
11944SOL     OW36612   7.138   2.621   3.716  0.1549  0.5496 -0.3543
11944SOL    HW136613   7.043   2.629   3.716  0.1461  0.8708 -1.8469
11944SOL    HW236614   7.168   2.697   3.666  1.2601  0.9371  0.8417
11945SOL     OW36615   2.925   5.673   4.146  0.4793 -0.4639  0.4291
11945SOL    HW136616   2.996   5.674   4.082  0.0130 -1.6069 -0.1344
11945SOL    HW236617   2.959   5.723   4.220  0.8106  1.4181 -0.9103
11946SOL     OW36618   4.378   5.386   0.820  0.3184  0.0532  0.1146
11946SOL    HW136619   4.458   5.333   0.810 -0.3231 -0.5897 -2.3456
11946SOL    HW236620   4.403   5.473   0.788  0.4139  0.2648  0.7542
11947SOL     OW36621   2.465   1.474   6.614 -0.3992 -0.3742  0.1790
11947SOL    HW136622   2.377   1.441   6.594 -0.5024  0.7790 -1.4490
11947SOL    HW236623   2.501   1.498   6.529  0.7372  1.0105  1.0115
11948SOL     OW36624   7.723   4.551   4.776  0.7437 -0.3888 -0.0434
11948SOL    HW136625   7.734   4.594   4.860  1.1641 -0.1269 -0.2287
11948SOL    HW236626   7.636   4.511   4.780  0.6349 -0.1101  0.3933
11949SOL     OW36627   1.070   3.748   6.413  0.2199 -0.6308  0.0290
11949SOL    HW136628   1.126   3.675   6.442 -0.3954 -1.1940 -0.1737
11949SOL    HW236629   1.111   3.779   6.332  0.7871 -0.3925  0.3979
11950SOL     OW36630   0.615   0.565   5.599 -0.6413  0.2422  0.1561
11950SOL    HW136631   0.691   0.623   5.608 -1.4327  1.1247  1.4911
11950SOL    HW236632   0.591   0.571   5.507 -0.0592  1.1962  0.0518
11951SOL     OW36633   7.108   7.192   0.877  0.2129  0.1688 -0.0217
11951SOL    HW136634   7.017   7.165   0.874 -0.1549  1.4536 -0.9557
11951SOL    HW236635   7.154   7.127   0.824 -0.2182 -0.1975  0.0461
11952SOL     OW36636   2.673   4.785   8.179  0.1689  0.8577  0.1864
11952SOL    HW136637   2.608   4.721   8.150  1.7597 -0.7164 -0.0891
11952SOL    HW236638   2.728   4.800   8.101  0.3681  1.8874  0.5042
11953SOL     OW36639   3.983   5.773   4.811 -0.2313  0.4964  0.0829
11953SOL    HW136640   4.047   5.844   4.814  0.9337 -0.5282  0.4513
11953SOL    HW236641   3.907   5.810   4.765  1.3578  1.1886 -2.1630
11954SOL     OW36642   0.994   0.545   7.253 -0.5398 -0.6881  0.2996
11954SOL    HW136643   0.938   0.583   7.185  1.8895 -1.2764 -2.2009
11954SOL    HW236644   0.983   0.451   7.244  0.1334 -0.7858  0.4251
11955SOL     OW36645   6.330   3.761   5.800  0.3757  0.1228  0.4201
11955SOL    HW136646   6.275   3.839   5.805  0.9064  0.4517  1.7406
11955SOL    HW236647   6.418   3.794   5.786  0.2141 -0.4341 -2.3747
11956SOL     OW36648   8.285   6.977   6.892 -0.5080  0.2500  0.1828
11956SOL    HW136649   8.303   7.068   6.870  0.4032  0.5475  1.9541
11956SOL    HW236650   8.211   6.952   6.836 -0.2828  1.8151 -0.8714
11957SOL     OW36651   0.058   6.472   7.581 -1.0388 -0.2198 -0.1931
11957SOL    HW136652   0.001   6.535   7.537 -0.6201 -0.4284 -1.0575
11957SOL    HW236653   0.139   6.474   7.529 -0.1185  0.3344  1.2063
11958SOL     OW36654   1.248   0.150   6.512  0.2642 -0.2264 -0.1486
11958SOL    HW136655   1.292   0.223   6.468 -2.3182  0.0415 -2.5523
11958SOL    HW236656   1.314   0.080   6.514  2.5964  1.8388  1.6371
11959SOL     OW36657   6.350   7.798   1.555 -0.1009  0.6107 -0.2252
11959SOL    HW136658   6.255   7.804   1.553 -0.0188  4.3934 -2.2314
11959SOL    HW236659   6.373   7.809   1.647 -1.5293 -2.3267  0.5918
11960SOL     OW36660   1.703   1.778   3.747  0.4249  0.3639 -0.3430
11960SOL    HW136661   1.609   1.787   3.762  0.4972  2.0546 -0.7181
11960SOL    HW236662   1.722   1.687   3.770 -0.8917  0.5723  1.8416
11961SOL     OW36663   1.915   1.893   0.455 -0.4159  0.1367 -0.0114
11961SOL    HW136664   1.858   1.970   0.452 -1.3207 -0.5478 -1.5386
11961SOL    HW236665   1.906   1.853   0.369  0.0336 -1.6760  0.7313
11962SOL     OW36666   6.801   4.173   7.630  0.2933 -0.5843 -0.1305
11962SOL    HW136667   6.739   4.229   7.675  1.5955 -0.0605  1.1082
11962SOL    HW236668   6.748   4.102   7.594 -1.1280  0.3786 -0.0065
11963SOL     OW36669   1.734   0.956   8.268  0.2225 -0.1678 -0.3064
11963SOL    HW136670   1.720   0.861   8.264  1.4137 -0.3462 -0.6284
11963SOL    HW236671   1.695   0.983   8.352  0.6742 -1.0897  0.2139
11964SOL     OW36672   1.755   3.796   8.073 -0.0470 -0.1781  1.1716
11964SOL    HW136673   1.770   3.778   8.166 -0.7719 -1.3668  1.0705
11964SOL    HW236674   1.660   3.790   8.063  0.0270 -0.0129  0.3538
11965SOL     OW36675   4.280   2.453   1.413  0.3157 -0.3042 -0.4863
11965SOL    HW136676   4.308   2.511   1.484 -2.3741  1.5475 -0.7664
11965SOL    HW236677   4.353   2.451   1.352  1.5101  0.5511  0.8622
11966SOL     OW36678   1.828   4.313   4.686 -0.4715 -0.5049 -0.3497
11966SOL    HW136679   1.860   4.223   4.695 -1.9287 -1.3107 -2.3994
11966SOL    HW236680   1.796   4.317   4.596 -0.8085  1.9753 -0.1712
11967SOL     OW36681   4.373   6.207   6.611 -0.0772  0.2526 -0.2160
11967SOL    HW136682   4.465   6.221   6.630 -0.4411  2.2426  0.2563
11967SOL    HW236683   4.342   6.151   6.683  0.1239  2.0094  1.3088
11968SOL     OW36684   4.068   2.632   2.641  0.1342  0.6356 -0.4308
11968SOL    HW136685   4.079   2.563   2.705 -0.5455 -0.3284 -1.3156
11968SOL    HW236686   4.106   2.710   2.682  1.7362 -0.4458  0.2264
11969SOL     OW36687   6.893   6.102   7.484  0.2838  0.1917 -0.5826
11969SOL    HW136688   6.915   6.126   7.574  1.7056  2.7169 -1.5083
11969SOL    HW236689   6.957   6.035   7.461  1.7478  1.5271 -0.5574
11970SOL     OW36690   6.178   5.992   3.817  0.1466 -0.7424 -0.7684
11970SOL    HW136691   6.164   5.973   3.724 -0.7379 -0.6767 -0.6514
11970SOL    HW236692   6.212   6.082   3.818 -1.6346 -0.0326 -0.9205
11971SOL     OW36693   1.444   1.647   4.302  0.2290 -0.0496  0.4786
11971SOL    HW136694   1.353   1.639   4.275  0.4634 -0.9523 -0.0893
11971SOL    HW236695   1.491   1.667   4.220  0.6622 -0.5847  0.5898
11972SOL     OW36696   1.810   5.043   3.129 -0.3501 -0.3444 -0.0157
11972SOL    HW136697   1.869   5.101   3.177 -0.9675  0.8924 -0.7001
11972SOL    HW236698   1.869   4.990   3.075  0.2853 -1.1352  1.3983
11973SOL     OW36699   0.208   8.081   8.291  0.0465 -0.3945 -0.2711
11973SOL    HW136700   0.264   8.104   8.217  1.3404  1.9180  1.3007
11973SOL    HW236701   0.252   8.007   8.333  0.1211 -0.7204 -0.9065
11974SOL     OW36702   6.498   5.267   7.545  0.4686  0.6413 -0.1256
11974SOL    HW136703   6.580   5.218   7.543  0.1474  0.1086 -0.3368
11974SOL    HW236704   6.438   5.211   7.593  0.6894  1.7684  1.5577
11975SOL     OW36705   6.293   7.849   5.414 -0.2592  0.2727 -0.0759
11975SOL    HW136706   6.381   7.882   5.431  0.3913 -1.8683  1.1245
11975SOL    HW236707   6.234   7.918   5.445  0.9989  1.2022  0.3034
11976SOL     OW36708   6.515   7.050   1.170 -1.0423 -0.0509 -0.6098
11976SOL    HW136709   6.486   6.969   1.211  0.7691  0.0309  0.9697
11976SOL    HW236710   6.523   7.112   1.243  0.7200  0.5855 -1.2984
11977SOL     OW36711   7.230   4.306   8.174  0.1395  0.3524 -0.2042
11977SOL    HW136712   7.213   4.400   8.180 -2.0040 -0.0307  1.0098
11977SOL    HW236713   7.320   4.299   8.143 -0.2357  2.7784 -2.1565
11978SOL     OW36714   5.816   3.860   4.149 -0.4301  0.6360  0.3990
11978SOL    HW136715   5.730   3.896   4.127 -1.4683 -1.4062  0.9313
11978SOL    HW236716   5.798   3.791   4.212  1.4851 -0.6626 -0.3972
11979SOL     OW36717   5.758   8.228   0.512 -0.2567 -0.1413  0.0168
11979SOL    HW136718   5.739   8.307   0.461  1.3581  0.4069  0.2070
11979SOL    HW236719   5.849   8.207   0.490 -0.2770 -1.2416  0.9158
11980SOL     OW36720   0.497   1.094   6.712  0.4950 -0.0179 -0.3357
11980SOL    HW136721   0.428   1.155   6.685  0.4945 -0.2451 -0.8456
11980SOL    HW236722   0.498   1.027   6.644  0.3880 -0.6812  0.3036
11981SOL     OW36723   1.617   4.178   2.096  0.0652 -0.8030 -0.0049
11981SOL    HW136724   1.542   4.215   2.050 -0.2794  1.5270  2.1881
11981SOL    HW236725   1.692   4.231   2.068 -0.2701  1.1548  2.4518
11982SOL     OW36726   4.656   2.703   5.728  0.3433 -0.5322 -0.1847
11982SOL    HW136727   4.744   2.739   5.730  0.2225 -0.0697 -1.6741
11982SOL    HW236728   4.664   2.620   5.682 -0.1359  0.0608 -1.4040
11983SOL     OW36729   5.794   3.590   3.803 -0.2641 -0.4296 -0.0869
11983SOL    HW136730   5.872   3.548   3.766  1.7729  2.9103 -0.0553
11983SOL    HW236731   5.797   3.567   3.896 -1.1870 -2.8188 -0.5695
11984SOL     OW36732   7.173   3.795   7.645 -0.1343 -0.4432  0.5725
11984SOL    HW136733   7.104   3.846   7.687 -0.5299 -0.3517 -0.1743
11984SOL    HW236734   7.127   3.743   7.579  0.3116 -1.5086  1.0846
11985SOL     OW36735   0.362   7.326   1.515  0.1240  0.2807  0.0438
11985SOL    HW136736   0.407   7.382   1.578  1.6460  0.5571 -1.2483
11985SOL    HW236737   0.295   7.383   1.477 -0.6183  0.1947  1.1622
11986SOL     OW36738   7.511   0.556   0.754 -0.2250 -0.2736  0.1572
11986SOL    HW136739   7.592   0.506   0.742  0.4424  0.0350  2.7759
11986SOL    HW236740   7.441   0.491   0.744  0.4123 -0.8504 -0.6413
11987SOL     OW36741   7.283   3.382   2.182  0.0861 -1.0514 -0.0014
11987SOL    HW136742   7.223   3.456   2.176  2.2713  0.8185 -0.3220
11987SOL    HW236743   7.266   3.343   2.267 -0.8208  0.1096  0.3705
11988SOL     OW36744   2.427   3.454   1.418  0.3410  0.0979 -0.2617
11988SOL    HW136745   2.407   3.410   1.336  0.3865 -1.2953  0.4367
11988SOL    HW236746   2.394   3.543   1.407 -1.9713 -0.7617 -0.8860
11989SOL     OW36747   1.929   3.329   0.997 -0.0821 -0.9878  0.5481
11989SOL    HW136748   1.881   3.247   1.012 -0.9024 -0.6502 -0.1187
11989SOL    HW236749   1.954   3.325   0.905 -2.0573  0.4475 -0.1284
11990SOL     OW36750   3.170   1.731   4.483 -0.0245 -0.0153  0.2699
11990SOL    HW136751   3.194   1.653   4.433 -2.5429 -0.8087  0.1854
11990SOL    HW236752   3.184   1.803   4.421  0.3777 -0.6096 -0.3533
11991SOL     OW36753   3.386   4.112   5.235  0.0434  0.0275 -0.3454
11991SOL    HW136754   3.477   4.124   5.210  0.0361  0.0228 -0.3748
11991SOL    HW236755   3.370   4.019   5.222 -0.4489  0.3066 -1.9724
11992SOL     OW36756   6.317   8.250   7.583 -0.4288  0.0508  0.1858
11992SOL    HW136757   6.337   8.338   7.616  0.1671  0.9584 -2.3394
11992SOL    HW236758   6.403   8.210   7.569 -0.6739 -0.4058 -0.0141
11993SOL     OW36759   6.661   6.833   1.020  0.5789  0.3637 -0.1348
11993SOL    HW136760   6.625   6.921   1.036 -0.0804 -0.4674  3.9674
11993SOL    HW236761   6.599   6.793   0.959 -0.4824  1.9268 -0.1456
11994SOL     OW36762   5.373   0.641   7.140 -0.7324 -0.2812 -0.0924
11994SOL    HW136763   5.410   0.601   7.062  0.2791  1.7623 -0.6997
11994SOL    HW236764   5.284   0.667   7.114 -0.1459  1.0607 -0.8303
11995SOL     OW36765   4.761   5.445   3.303 -0.0893  0.2492  0.0931
11995SOL    HW136766   4.758   5.420   3.211  1.1061 -1.9021  0.5650
11995SOL    HW236767   4.682   5.405   3.341  0.2202 -0.1842  0.2829
11996SOL     OW36768   3.623   7.699   4.953  0.6579 -0.4568 -0.1905
11996SOL    HW136769   3.562   7.677   4.882 -1.1094 -3.1102  1.9647
11996SOL    HW236770   3.567   7.727   5.025  2.2290 -0.3377  1.0350
11997SOL     OW36771   1.305   5.088   6.473 -0.1212  0.4850 -0.3912
11997SOL    HW136772   1.217   5.070   6.506 -0.2363  1.5945 -0.0604
11997SOL    HW236773   1.342   5.001   6.455 -0.8287 -0.0483  0.6395
11998SOL     OW36774   2.611   6.072   2.414  0.6303 -0.1230  0.0710
11998SOL    HW136775   2.528   6.031   2.439 -0.2599  1.6864  0.2332
11998SOL    HW236776   2.586   6.159   2.381  2.2831 -0.2719 -1.7884
11999SOL     OW36777   7.472   1.495   2.539  0.2224 -0.3056 -0.8871
11999SOL    HW136778   7.486   1.588   2.519 -0.0658 -0.2100 -0.6565
11999SOL    HW236779   7.377   1.483   2.529  0.2708 -0.5948 -0.9921
12000SOL     OW36780   0.057   5.241   4.030 -0.1199 -0.3713 -0.2430
12000SOL    HW136781   0.032   5.170   3.971  0.5855 -0.9095  0.0880
12000SOL    HW236782   0.121   5.292   3.980 -0.5807  0.0165 -0.4577
12001SOL     OW36783   2.559   6.517   4.097  0.7386 -0.3799  0.3517
12001SOL    HW136784   2.511   6.490   4.019  0.9219  0.2537  0.0127
12001SOL    HW236785   2.496   6.505   4.169 -0.1779  1.0486 -0.1614
12002SOL     OW36786   6.940   2.370   5.941 -0.6686  0.2807 -0.2587
12002SOL    HW136787   7.028   2.369   5.903  0.4190 -0.1316  2.0911
12002SOL    HW236788   6.906   2.282   5.925  0.0107 -0.0783  0.2317
12003SOL     OW36789   6.922   2.821   1.414  0.2877 -0.2632  0.1594
12003SOL    HW136790   7.007   2.833   1.371  0.5828  0.1292  0.8357
12003SOL    HW236791   6.887   2.909   1.422 -1.1677 -0.5656 -2.0047
12004SOL     OW36792   6.228   3.212   1.394  0.5341 -0.3803  0.0890
12004SOL    HW136793   6.321   3.201   1.375  0.3072 -2.2945 -0.2004
12004SOL    HW236794   6.187   3.136   1.352 -1.2323  0.7160 -0.2577
12005SOL     OW36795   2.137   2.632   4.571  0.3214  0.1684 -0.1254
12005SOL    HW136796   2.123   2.659   4.480  0.2133 -0.9362 -0.4534
12005SOL    HW236797   2.116   2.710   4.623 -0.9659  0.4168 -0.9651
12006SOL     OW36798   2.327   3.786   7.070  0.0945  0.4308  0.0738
12006SOL    HW136799   2.343   3.873   7.033  0.1541  1.5647  2.5343
12006SOL    HW236800   2.367   3.790   7.157 -0.7742 -1.7314  0.6255
12007SOL     OW36801   6.020   1.057   3.175 -0.4924  0.1012  0.2265
12007SOL    HW136802   6.070   1.066   3.094  1.1205  5.0611  1.3573
12007SOL    HW236803   6.064   0.987   3.223  0.5112 -0.7978 -1.8788
12008SOL     OW36804   1.228   0.318   5.291  0.2753 -0.2584 -0.6216
12008SOL    HW136805   1.159   0.356   5.345  0.5822 -0.7637  0.1384
12008SOL    HW236806   1.184   0.249   5.241 -0.2703  1.0141 -1.9626
12009SOL     OW36807   0.953   4.120   3.746 -0.6915 -0.0866  0.4045
12009SOL    HW136808   0.989   4.101   3.832  1.5192 -2.2934 -0.9011
12009SOL    HW236809   1.010   4.188   3.710  0.3142 -1.3162 -0.4227
12010SOL     OW36810   1.095   4.547   6.002 -0.8008 -0.6040 -0.8192
12010SOL    HW136811   1.037   4.619   6.028 -1.3513 -1.0754 -0.7194
12010SOL    HW236812   1.179   4.590   5.984 -0.6101 -0.1424  0.9424
12011SOL     OW36813   3.118   7.342   3.456 -0.0880  0.5991 -0.3358
12011SOL    HW136814   3.112   7.321   3.549 -0.1563 -1.1345 -0.6934
12011SOL    HW236815   3.210   7.362   3.441 -0.3173  2.3276  0.3523
12012SOL     OW36816   5.220   1.149   1.349  0.1647  0.8280 -0.3312
12012SOL    HW136817   5.158   1.079   1.329 -0.0435  0.8083  0.3882
12012SOL    HW236818   5.204   1.214   1.281  0.8265 -0.1072 -1.4271
12013SOL     OW36819   5.545   1.136   7.864  0.6001 -0.1128 -0.0070
12013SOL    HW136820   5.545   1.098   7.776 -0.1012  1.6879 -0.8363
12013SOL    HW236821   5.458   1.115   7.898  0.7148 -0.4427  0.0825
12014SOL     OW36822   6.182   0.442   6.136  0.0714 -1.3051 -0.3305
12014SOL    HW136823   6.087   0.430   6.128  0.1481 -0.7985 -2.2341
12014SOL    HW236824   6.212   0.461   6.048  2.1670 -2.8805 -0.0390
12015SOL     OW36825   2.323   3.057   4.483 -0.0188 -0.3893 -0.4375
12015SOL    HW136826   2.351   2.968   4.506  0.3430 -0.0358  0.5658
12015SOL    HW236827   2.380   3.082   4.411  0.3289 -0.7269 -0.2834
12016SOL     OW36828   6.743   5.419   3.767  0.0024  0.1130  0.2502
12016SOL    HW136829   6.803   5.492   3.755  0.8505 -0.7492 -1.0584
12016SOL    HW236830   6.796   5.351   3.808 -0.6155  0.0260  0.9124
12017SOL     OW36831   3.860   4.747   1.580  0.2812  0.7347  0.2118
12017SOL    HW136832   3.901   4.685   1.520  0.7589  0.8428  0.4160
12017SOL    HW236833   3.861   4.703   1.665 -0.5294  0.5203  0.1154
12018SOL     OW36834   2.941   6.513   2.131  0.0518 -0.1629 -0.0142
12018SOL    HW136835   2.915   6.426   2.101 -0.4526 -0.0918  0.2111
12018SOL    HW236836   2.924   6.512   2.225 -0.2319  0.2741 -0.0583
12019SOL     OW36837   4.062   1.467   7.835 -0.0118 -0.1636  0.0115
12019SOL    HW136838   4.139   1.519   7.810 -0.7513  0.7866 -0.3627
12019SOL    HW236839   3.989   1.529   7.831 -0.8368 -1.0968  0.1606
12020SOL     OW36840   5.907   6.826   4.164 -0.0074  0.2239 -0.1273
12020SOL    HW136841   6.000   6.805   4.168 -0.1870 -0.5411  0.2462
12020SOL    HW236842   5.864   6.755   4.213 -0.6825  1.2062  0.7547
12021SOL     OW36843   0.595   1.126   1.721 -0.0456 -0.2224 -0.2606
12021SOL    HW136844   0.684   1.099   1.744  0.4130  1.2564 -0.2061
12021SOL    HW236845   0.538   1.067   1.772  0.8970 -0.6760  0.2891
12022SOL     OW36846   3.087   6.032   0.810  0.0759  0.3676 -0.0414
12022SOL    HW136847   2.995   6.025   0.782 -0.0388 -1.9624  0.6758
12022SOL    HW236848   3.137   6.007   0.732  0.1308  1.6562 -0.4382
12023SOL     OW36849   6.557   0.557   5.531  0.4452 -0.3745 -0.0929
12023SOL    HW136850   6.623   0.595   5.588  1.1297 -0.8808 -0.5262
12023SOL    HW236851   6.607   0.511   5.464 -0.3381  0.0126 -0.9709
12024SOL     OW36852   1.297   5.552   3.031 -0.3582  0.7109  0.0424
12024SOL    HW136853   1.314   5.504   2.950 -0.2000  0.1600  0.3994
12024SOL    HW236854   1.347   5.633   3.022 -0.6632  0.8403 -0.5839
12025SOL     OW36855   8.175   3.492   7.251 -0.7557 -0.0728 -0.5823
12025SOL    HW136856   8.248   3.466   7.195 -0.5365  0.1140 -0.3866
12025SOL    HW236857   8.120   3.414   7.257 -0.7991 -0.0847 -1.0852
12026SOL     OW36858   6.316   7.921   3.739 -0.0663  0.4340 -0.0450
12026SOL    HW136859   6.343   7.983   3.671  1.1696 -0.8470 -0.7839
12026SOL    HW236860   6.331   7.835   3.700 -0.8108 -0.3394  1.3014
12027SOL     OW36861   4.317   5.293   2.148  0.1008 -0.0438 -0.5017
12027SOL    HW136862   4.358   5.321   2.230  0.6547 -0.9166 -0.4659
12027SOL    HW236863   4.385   5.242   2.104  0.1668  1.2376 -1.9744
12028SOL     OW36864   7.696   6.479   4.481  0.2657 -0.5996 -0.3353
12028SOL    HW136865   7.687   6.391   4.443 -1.5938 -1.7378  2.3354
12028SOL    HW236866   7.613   6.492   4.529 -0.2999  3.4190 -2.0560
12029SOL     OW36867   2.638   4.400   7.783  0.6378 -0.1203 -0.7856
12029SOL    HW136868   2.675   4.394   7.695  0.0060  3.0732 -1.4313
12029SOL    HW236869   2.698   4.458   7.831 -0.5632  0.6110 -0.1008
12030SOL     OW36870   5.137   6.051   0.650  0.4056 -0.0823 -0.6298
12030SOL    HW136871   5.211   6.004   0.687  0.6048  0.8309  0.1862
12030SOL    HW236872   5.061   6.016   0.695  0.7613  1.9805  1.7970
12031SOL     OW36873   6.590   2.501   6.511 -0.4039 -0.0701  0.2869
12031SOL    HW136874   6.505   2.464   6.534 -1.8973  3.2468  0.7796
12031SOL    HW236875   6.568   2.585   6.469  2.6193  1.0024  0.6293
12032SOL     OW36876   8.294   7.129   4.833 -0.0508 -0.3714 -0.8148
12032SOL    HW136877   8.367   7.080   4.871  0.1319 -0.8282 -1.7339
12032SOL    HW236878   8.216   7.093   4.875  0.2447  0.1596  0.2192
12033SOL     OW36879   0.300   4.116   5.938 -0.2025  0.2523 -0.0208
12033SOL    HW136880   0.339   4.036   5.903  2.4163  1.8279 -0.9947
12033SOL    HW236881   0.371   4.158   5.986 -2.3287  0.6157  3.0934
12034SOL     OW36882   2.501   4.931   0.784 -0.4153  0.1552 -0.1251
12034SOL    HW136883   2.456   5.006   0.824 -0.4998  0.3445 -0.5664
12034SOL    HW236884   2.593   4.958   0.780 -0.1733 -0.4097  1.1893
12035SOL     OW36885   2.293   4.665   6.375 -0.9439  0.5262  0.7562
12035SOL    HW136886   2.238   4.660   6.454 -2.2463 -1.6702 -0.1987
12035SOL    HW236887   2.255   4.601   6.315  0.0024  2.1255 -1.7097
12036SOL     OW36888   5.074   1.914   0.757  0.0094  0.6405  0.0935
12036SOL    HW136889   5.159   1.941   0.791 -0.6938  0.1707  2.4226
12036SOL    HW236890   5.028   1.996   0.740 -0.5153  1.0087  2.8498
12037SOL     OW36891   4.269   7.828   3.341 -0.0469  0.3800  0.2271
12037SOL    HW136892   4.350   7.801   3.385 -0.1362  0.4785  0.4493
12037SOL    HW236893   4.229   7.891   3.400  0.0029  0.7722 -0.1533
12038SOL     OW36894   6.360   7.577   4.577  0.3940  0.1228  0.4634
12038SOL    HW136895   6.429   7.637   4.604  1.6379 -0.7227 -0.7207
12038SOL    HW236896   6.359   7.583   4.481  0.7246 -1.8847  0.2952
12039SOL     OW36897   5.443   6.636   6.437  0.0266 -0.1198  0.1427
12039SOL    HW136898   5.492   6.717   6.423  0.6645 -0.3940  0.7282
12039SOL    HW236899   5.351   6.664   6.443  0.0266  0.3300 -1.5394
12040SOL     OW36900   1.460   6.512   0.936  0.4513 -0.3462 -0.0758
12040SOL    HW136901   1.506   6.472   0.862 -0.1181 -1.5598  0.2095
12040SOL    HW236902   1.529   6.541   0.995  0.8847 -0.3249 -0.5814
12041SOL     OW36903   0.538   4.634   8.007 -0.4094 -0.0796 -0.3058
12041SOL    HW136904   0.494   4.665   7.929 -1.2264 -3.1850 -1.2015
12041SOL    HW236905   0.476   4.651   8.078 -0.6615  0.6272 -0.6869
12042SOL     OW36906   1.039   0.305   4.522  0.1020 -0.0584 -0.2467
12042SOL    HW136907   0.989   0.224   4.510 -0.6812  0.6580 -2.2791
12042SOL    HW236908   0.986   0.372   4.478  1.7177  1.1694 -0.4165
12043SOL     OW36909   5.299   1.335   7.759  0.2324  0.8739 -0.4349
12043SOL    HW136910   5.376   1.367   7.805  0.7222 -0.7652 -0.0560
12043SOL    HW236911   5.225   1.378   7.803  0.8253  1.0914  0.3679
12044SOL     OW36912   2.175   0.741   6.467 -0.3840  0.0291  0.0515
12044SOL    HW136913   2.126   0.778   6.394  0.7733  1.8316  0.1046
12044SOL    HW236914   2.206   0.818   6.516  0.9324 -1.0787  1.0359
12045SOL     OW36915   6.224   5.428   4.701  0.0919  0.0391  0.2608
12045SOL    HW136916   6.193   5.465   4.783  0.3959  0.7087  0.0843
12045SOL    HW236917   6.203   5.494   4.635  1.7701  0.4861  0.1189
12046SOL     OW36918   4.358   2.135   4.864  0.1022  0.0529 -0.0215
12046SOL    HW136919   4.324   2.109   4.778  0.9014  0.9131 -0.6155
12046SOL    HW236920   4.292   2.195   4.898 -0.4259 -0.6206  0.1637
12047SOL     OW36921   3.328   6.031   7.270  0.7736  0.1680  0.2858
12047SOL    HW136922   3.399   6.064   7.325 -0.0551  1.2165  0.7737
12047SOL    HW236923   3.276   5.975   7.329  0.5853  0.2939  0.2411
12048SOL     OW36924   2.402   8.291   1.387  0.6793 -0.0898 -0.3258
12048SOL    HW136925   2.496   8.279   1.370  0.7864 -1.2165  0.8692
12048SOL    HW236926   2.377   8.366   1.333  2.8394  1.9056  1.2449
12049SOL     OW36927   0.784   1.782   1.796  0.1171  0.0519 -0.7829
12049SOL    HW136928   0.814   1.795   1.885 -0.2873 -0.3607 -0.5814
12049SOL    HW236929   0.852   1.821   1.741  0.1619  0.6838 -0.2855
12050SOL     OW36930   5.630   6.783   6.318  0.3596  0.0637  0.0703
12050SOL    HW136931   5.707   6.784   6.374  0.7781 -0.0436 -0.4908
12050SOL    HW236932   5.656   6.833   6.240 -0.5451  1.1030  0.3957
12051SOL     OW36933   5.220   3.406   5.054 -0.4450  0.2578 -0.4997
12051SOL    HW136934   5.215   3.484   5.109  0.7676 -0.0320  0.0628
12051SOL    HW236935   5.180   3.337   5.108  1.5821 -0.2304  0.4595
12052SOL     OW36936   3.173   5.454   1.185 -0.3751 -0.0364 -0.2009
12052SOL    HW136937   3.162   5.367   1.147 -0.9198 -0.0622  0.0157
12052SOL    HW236938   3.255   5.449   1.234 -0.3466 -0.3915 -0.2856
12053SOL     OW36939   1.774   3.811   2.231  0.3698 -0.0637 -0.4788
12053SOL    HW136940   1.712   3.748   2.267  1.2604 -0.6480  0.0608
12053SOL    HW236941   1.750   3.818   2.139 -0.1773 -0.6607 -0.3897
12054SOL     OW36942   2.724   1.569   3.246 -0.0502 -0.1620 -0.7126
12054SOL    HW136943   2.753   1.521   3.168  0.4160  0.7851 -1.1343
12054SOL    HW236944   2.720   1.502   3.314  4.3165 -0.2859 -0.2645
12055SOL     OW36945   7.053   5.045   3.702 -0.2642  0.2465 -0.0962
12055SOL    HW136946   6.989   5.045   3.773  1.2493 -1.4611  1.3909
12055SOL    HW236947   7.117   5.112   3.727 -1.2522  1.7632 -1.4429
12056SOL     OW36948   6.642   5.105   1.371  0.2157  0.3199 -0.0943
12056SOL    HW136949   6.695   5.075   1.297  0.8396  0.6911  0.1965
12056SOL    HW236950   6.664   5.197   1.382 -0.6887  0.5500 -0.1294
12057SOL     OW36951   3.427   1.248   7.780  0.1798  0.2050  0.1198
12057SOL    HW136952   3.500   1.229   7.838 -0.2479  0.5794  0.7948
12057SOL    HW236953   3.445   1.197   7.701  1.4744  0.7733  0.0284
12058SOL     OW36954   7.788   0.443   5.705  0.2004  0.0029  0.0853
12058SOL    HW136955   7.856   0.463   5.641  0.1803  0.4676  0.2033
12058SOL    HW236956   7.820   0.365   5.750  1.1970  0.8460  0.8897
12059SOL     OW36957   1.500   1.705   3.178  0.0591  0.7836 -0.7034
12059SOL    HW136958   1.426   1.748   3.221  0.5975  1.2230 -0.1955
12059SOL    HW236959   1.461   1.637   3.124 -1.0663  3.2125 -3.2403
12060SOL     OW36960   7.541   1.514   5.464  0.1231  0.2166  0.3188
12060SOL    HW136961   7.496   1.496   5.381  1.4955 -2.1577  0.0004
12060SOL    HW236962   7.492   1.463   5.529  0.7585 -0.2584  0.4321
12061SOL     OW36963   8.188   0.067   3.852  0.2815  0.9801  0.2314
12061SOL    HW136964   8.211   0.125   3.925  1.7253 -1.1010  1.5708
12061SOL    HW236965   8.166  -0.016   3.894 -2.6229  0.7393 -1.5513
12062SOL     OW36966   0.325   6.771   0.693 -0.5897 -0.4695  0.0161
12062SOL    HW136967   0.278   6.853   0.683 -1.4892 -1.0922 -1.1444
12062SOL    HW236968   0.400   6.792   0.748 -1.3785  0.8863  0.6106
12063SOL     OW36969   8.035   2.706   0.464 -0.6398  0.2763 -0.7425
12063SOL    HW136970   8.051   2.735   0.374  0.1145  1.8890 -0.1131
12063SOL    HW236971   8.088   2.627   0.473  0.9014  1.2296 -1.1208
12064SOL     OW36972   4.882   4.858   5.827 -0.2063 -0.0695  0.3134
12064SOL    HW136973   4.802   4.897   5.863  1.3437  2.2692  1.4727
12064SOL    HW236974   4.909   4.918   5.758 -0.9168 -2.3769 -2.1552
12065SOL     OW36975   0.225   3.869   3.833 -0.6644  0.1612  0.1028
12065SOL    HW136976   0.221   3.906   3.921 -1.3520 -0.7607  0.4703
12065SOL    HW236977   0.313   3.889   3.802 -0.2889  0.1458  1.1518
12066SOL     OW36978   5.006   8.268   0.245  0.3362 -0.1121  0.1640
12066SOL    HW136979   4.969   8.357   0.242  0.5135 -0.0550 -0.4836
12066SOL    HW236980   4.963   8.227   0.320  0.9289  0.8190  1.0319
12067SOL     OW36981   5.254   4.673   6.220 -0.2158 -0.8845 -0.2296
12067SOL    HW136982   5.312   4.746   6.199 -1.3603 -0.0228 -0.4418
12067SOL    HW236983   5.166   4.710   6.218 -0.8542 -2.3524 -0.7296
12068SOL     OW36984   6.866   0.555   7.084  0.5278  0.1664 -0.0215
12068SOL    HW136985   6.850   0.461   7.080 -1.4147  0.4719 -0.6351
12068SOL    HW236986   6.815   0.585   7.160 -0.9210  1.0251 -1.2732
12069SOL     OW36987   7.944   6.263   1.320 -0.1968 -0.1918  0.1179
12069SOL    HW136988   7.929   6.169   1.317 -0.7758 -0.0817 -0.5075
12069SOL    HW236989   7.975   6.286   1.233 -3.3871  0.7326 -0.8961
12070SOL     OW36990   0.370   7.966   5.449  0.2363 -0.0253  0.1526
12070SOL    HW136991   0.426   7.912   5.506 -0.9875 -0.5897  0.8542
12070SOL    HW236992   0.282   7.929   5.460 -0.3395  1.0643 -0.6589
12071SOL     OW36993   3.232   0.397   8.111  0.8162  0.5446  0.4546
12071SOL    HW136994   3.282   0.322   8.142  1.6335  0.9495  0.1342
12071SOL    HW236995   3.252   0.467   8.173  1.1364  0.8829 -0.0226
12072SOL     OW36996   4.289   7.294   7.439  0.2138  0.1610  0.0169
12072SOL    HW136997   4.296   7.234   7.365  1.4993  0.0663  0.1972
12072SOL    HW236998   4.373   7.286   7.485  0.6726  2.4942 -0.2721
12073SOL     OW36999   5.789   6.545   0.506 -0.4795 -0.1877  0.1903
12073SOL    HW137000   5.748   6.604   0.570 -1.8004  1.0748 -1.6910
12073SOL    HW237001   5.883   6.552   0.523 -0.5358  2.8409 -0.1566
12074SOL     OW37002   6.149   2.512   5.176  0.1871  0.3653  0.4762
12074SOL    HW137003   6.080   2.468   5.226  0.7820 -1.8508 -0.5086
12074SOL    HW237004   6.104   2.584   5.131 -1.1611 -0.1128  1.0026
12075SOL     OW37005   3.292   3.002   2.963  0.5443 -0.0546  0.1983
12075SOL    HW137006   3.316   2.956   2.883 -0.2000 -0.3828  0.1569
12075SOL    HW237007   3.295   3.095   2.939  0.9942 -0.1231 -0.0150
12076SOL     OW37008   3.672   6.993   0.930  0.0997  0.4304 -0.6518
12076SOL    HW137009   3.736   7.059   0.959  1.6058 -0.6737 -1.3462
12076SOL    HW237010   3.720   6.910   0.932 -1.7657 -0.6961  0.2534
12077SOL     OW37011   6.173   4.324   5.313  0.2385  0.5141 -0.2288
12077SOL    HW137012   6.110   4.380   5.359  1.1531  1.3078  0.0832
12077SOL    HW237013   6.247   4.381   5.293 -0.3829  0.3875 -3.3477
12078SOL     OW37014   0.141   3.745   5.355  0.1204  0.4365  0.0078
12078SOL    HW137015   0.214   3.807   5.359  0.3972  0.3181 -2.0959
12078SOL    HW237016   0.155   3.696   5.274 -1.4734 -0.6615  0.3403
12079SOL     OW37017   0.250   4.855   5.327  0.1128 -0.0983  0.2168
12079SOL    HW137018   0.202   4.933   5.352 -0.7577 -0.2415 -0.9064
12079SOL    HW237019   0.255   4.859   5.232  1.1551 -0.7813  0.2216
12080SOL     OW37020   0.013   3.069   7.478 -0.0825  0.0575 -0.1129
12080SOL    HW137021   0.020   2.976   7.456 -0.2672 -0.6763  2.5137
12080SOL    HW237022  -0.074   3.078   7.517 -0.0925  1.3570 -0.3883
12081SOL     OW37023   6.228   6.593   0.909  0.5822 -0.0350 -0.1212
12081SOL    HW137024   6.280   6.671   0.892  1.1745 -0.3841  0.0563
12081SOL    HW237025   6.137   6.620   0.892  0.8551  0.4723 -0.8079
12082SOL     OW37026   4.560   3.438   2.424  0.3783  0.0365  0.0437
12082SOL    HW137027   4.618   3.432   2.348  0.7971  1.1701  0.2472
12082SOL    HW237028   4.490   3.496   2.395  0.0854 -0.2190  0.2468
12083SOL     OW37029   1.680   7.521   4.129 -0.4531 -0.2215 -0.4889
12083SOL    HW137030   1.680   7.487   4.040 -2.5632 -0.3937 -0.4578
12083SOL    HW237031   1.613   7.469   4.175 -0.3125  0.7332  0.8515
12084SOL     OW37032   5.655   1.379   3.535 -0.1336  0.1106  0.0541
12084SOL    HW137033   5.703   1.441   3.479  1.9271 -1.5226 -0.1454
12084SOL    HW237034   5.646   1.424   3.619  1.2195  0.7669 -0.1204
12085SOL     OW37035   0.520   3.047   3.029 -0.1719 -0.3921  0.0219
12085SOL    HW137036   0.444   3.009   2.984 -0.3006 -0.9792  0.7151
12085SOL    HW237037   0.595   3.020   2.975 -0.3640 -0.6548 -0.1162
12086SOL     OW37038   8.224   0.792   6.900 -0.3695 -0.0498 -0.3463
12086SOL    HW137039   8.186   0.852   6.835 -1.4067 -0.5182 -0.1963
12086SOL    HW237040   8.180   0.814   6.982  0.4958  0.1242  0.0897
12087SOL     OW37041   7.708   0.626   6.113 -0.1991 -0.2236  0.5581
12087SOL    HW137042   7.673   0.544   6.147 -2.7164  0.7903  0.6434
12087SOL    HW237043   7.655   0.644   6.035  1.1356  0.7137 -0.1658
12088SOL     OW37044   6.244   1.574   5.375  0.0854  0.2028  0.0753
12088SOL    HW137045   6.215   1.497   5.327 -1.8888  1.3558 -0.6967
12088SOL    HW237046   6.337   1.558   5.391  0.0525 -1.7062 -1.2235
12089SOL     OW37047   2.976   6.062   1.865 -0.3218 -0.2033  0.4073
12089SOL    HW137048   2.969   5.967   1.867  1.1937 -0.3928 -1.0571
12089SOL    HW237049   2.983   6.087   1.957  1.6937 -1.7699  0.7455
12090SOL     OW37050   6.690   4.960   6.792 -0.7111  0.0578  0.4922
12090SOL    HW137051   6.718   4.908   6.867  1.6751  1.7294  0.8895
12090SOL    HW237052   6.712   5.050   6.815 -0.6184  0.7269 -1.8780
12091SOL     OW37053   6.742   7.495   6.585  0.7149 -0.0033  0.1131
12091SOL    HW137054   6.830   7.503   6.548  1.4547  0.0035  1.7982
12091SOL    HW237055   6.740   7.559   6.656 -0.6930  0.0562  0.0513
12092SOL     OW37056   6.743   6.399   1.762  0.3618  0.1364  0.2359
12092SOL    HW137057   6.704   6.486   1.777  0.5834  0.1814  0.5695
12092SOL    HW237058   6.837   6.416   1.753  0.3330  0.0033 -0.3572
12093SOL     OW37059   4.830   2.386   2.671 -0.0407  0.3260 -0.4946
12093SOL    HW137060   4.834   2.463   2.728 -0.6921 -0.8024  1.1395
12093SOL    HW237061   4.917   2.347   2.678 -0.1323  0.1674 -0.2508
12094SOL     OW37062   5.017   8.166   6.217  0.6683 -0.4833  0.1648
12094SOL    HW137063   4.988   8.149   6.128  1.1268 -0.3995 -0.0064
12094SOL    HW237064   5.075   8.093   6.238  0.5468 -0.5146  0.4040
12095SOL     OW37065   6.655   6.431   7.176 -0.1639 -0.1874  0.3235
12095SOL    HW137066   6.666   6.381   7.095  0.7610  0.5569 -0.0364
12095SOL    HW237067   6.566   6.466   7.171  0.5432  1.5659 -1.4182
12096SOL     OW37068   6.551   4.571   6.153  0.6048 -0.2657  0.4346
12096SOL    HW137069   6.617   4.515   6.112 -0.0991  0.5273 -2.0037
12096SOL    HW237070   6.585   4.589   6.240  3.6604  0.1187 -0.7091
12097SOL     OW37071   3.313   5.793   0.807  0.8137  0.0334  0.3884
12097SOL    HW137072   3.315   5.793   0.711 -0.0814  0.6318  0.3605
12097SOL    HW237073   3.283   5.705   0.830  3.1902 -0.9108  0.2199
12098SOL     OW37074   2.405   6.325   0.698  0.0819 -0.6388 -0.1589
12098SOL    HW137075   2.311   6.341   0.707  0.2866 -0.0903  1.4599
12098SOL    HW237076   2.437   6.398   0.645 -0.4193 -0.8993 -0.8277
12099SOL     OW37077   4.199   2.559   0.865 -0.1807 -0.2215 -0.1346
12099SOL    HW137078   4.105   2.568   0.852  0.0697  0.0423 -2.0000
12099SOL    HW237079   4.223   2.632   0.922 -1.3134 -1.2017  1.6876
12100SOL     OW37080   5.185   6.700   6.483  0.0833 -0.4660  0.2258
12100SOL    HW137081   5.111   6.719   6.541 -1.3424 -1.5679 -1.1317
12100SOL    HW237082   5.179   6.767   6.415  0.5219 -0.3951  0.2557
12101SOL     OW37083   2.676   1.127   2.476  0.2362 -0.3717  0.0526
12101SOL    HW137084   2.658   1.218   2.455 -0.4284 -0.1728  1.3348
12101SOL    HW237085   2.770   1.116   2.462  0.3423  0.5492  0.0128
12102SOL     OW37086   0.256   8.203   5.821 -0.1512 -0.1968  0.5350
12102SOL    HW137087   0.243   8.109   5.807  0.5541 -0.2068 -0.0865
12102SOL    HW237088   0.349   8.212   5.840  0.0759  0.5359 -0.8216
12103SOL     OW37089   3.987   5.803   7.234 -0.5199  0.3849  0.7790
12103SOL    HW137090   3.892   5.798   7.227 -0.5178 -3.1666  1.5195
12103SOL    HW237091   4.005   5.781   7.326  1.0482  1.7785  0.8654
12104SOL     OW37092   7.327   0.367   0.748 -0.2979 -0.5549  0.1589
12104SOL    HW137093   7.305   0.290   0.697  0.0771  0.9545 -2.4506
12104SOL    HW237094   7.269   0.363   0.824 -1.4783 -2.4924 -0.7829
12105SOL     OW37095   7.431   6.776   3.518  0.5141  0.3559  0.4310
12105SOL    HW137096   7.468   6.789   3.605  1.7277 -0.8613  0.1314
12105SOL    HW237097   7.396   6.862   3.493 -0.1087  0.6583  2.2046
12106SOL     OW37098   5.955   0.647   7.032  0.2280  0.0640 -0.6650
12106SOL    HW137099   5.924   0.570   7.081  0.6203 -0.8440 -1.7988
12106SOL    HW237100   5.885   0.712   7.044  0.3352 -0.0926  1.1264
12107SOL     OW37101   2.651   6.255   1.332  0.1328  0.2255 -0.4565
12107SOL    HW137102   2.639   6.193   1.404 -1.8356 -0.6662 -1.4561
12107SOL    HW237103   2.718   6.316   1.363 -2.1605  1.2609  3.0679
12108SOL     OW37104   1.559   6.375   2.025 -0.0724  0.2817  0.2159
12108SOL    HW137105   1.472   6.388   1.987 -0.2768 -0.7443  0.2932
12108SOL    HW237106   1.542   6.364   2.119  0.1291 -0.0208  0.2168
12109SOL     OW37107   3.308   7.532   5.066  0.0410  0.1154 -0.4847
12109SOL    HW137108   3.252   7.521   5.143  1.7349  1.1809  0.9827
12109SOL    HW237109   3.335   7.444   5.042 -2.6234 -0.5180 -1.6243
12110SOL     OW37110   6.330   7.439   7.889  0.0448  0.6800  0.3683
12110SOL    HW137111   6.275   7.426   7.967  0.3816 -1.8530  0.2660
12110SOL    HW237112   6.269   7.464   7.820 -0.9573 -1.4749  0.4113
12111SOL     OW37113   0.991   5.701   6.651  0.4360 -0.4269 -0.1559
12111SOL    HW137114   1.034   5.786   6.653  0.2737 -0.3460  1.0637
12111SOL    HW237115   0.902   5.719   6.620 -0.0432  0.1021  1.4028
12112SOL     OW37116   0.342   5.980   4.025  0.0313 -0.1215  0.2738
12112SOL    HW137117   0.381   5.893   4.022 -0.3266 -0.2715 -0.3637
12112SOL    HW237118   0.416   6.040   4.011 -0.0493 -0.4424 -2.0361
12113SOL     OW37119   1.469   0.976   8.032 -0.0090 -0.3255  0.0210
12113SOL    HW137120   1.481   1.007   7.942  0.1821  0.0248  0.1665
12113SOL    HW237121   1.553   0.934   8.054  0.8322  1.6915  0.8650
12114SOL     OW37122   3.526   3.371   6.528  0.3003  0.2594  0.4033
12114SOL    HW137123   3.600   3.425   6.554  1.7078 -0.8501 -1.0605
12114SOL    HW237124   3.566   3.293   6.488 -1.6325  0.0801 -1.3800
12115SOL     OW37125   4.357   2.077   8.164  0.4168  0.0471 -0.4379
12115SOL    HW137126   4.419   2.036   8.104  1.2831  2.4395 -1.2758
12115SOL    HW237127   4.283   2.101   8.110  0.6760  1.1162 -0.3458
12116SOL     OW37128   6.946   3.143   7.000  0.2662  0.2002  0.1640
12116SOL    HW137129   7.029   3.148   7.048 -0.9891  0.4554  2.4235
12116SOL    HW237130   6.955   3.207   6.930  1.8040  0.5568  0.6470
12117SOL     OW37131   1.299   4.321   6.899  0.0261 -0.1532 -0.0478
12117SOL    HW137132   1.309   4.416   6.910  0.1324 -0.4092  2.4932
12117SOL    HW237133   1.383   4.293   6.863  0.4218  0.5633  0.2948
12118SOL     OW37134   6.170   8.229   0.968 -0.7746 -0.0855 -0.1758
12118SOL    HW137135   6.265   8.227   0.981 -0.8471 -1.7322  0.2319
12118SOL    HW237136   6.133   8.222   1.056 -1.2667 -0.7215 -0.4228
12119SOL     OW37137   2.977   6.343   4.068  0.0451 -0.0755  0.0500
12119SOL    HW137138   2.916   6.316   4.000  1.3372 -0.8982 -0.8228
12119SOL    HW237139   2.928   6.407   4.120 -1.1540  0.1612 -1.3154
12120SOL     OW37140   3.979   2.979   2.250 -0.0750  0.7332  0.1563
12120SOL    HW137141   3.920   2.949   2.320  0.8525 -2.8832 -0.3807
12120SOL    HW237142   4.046   3.031   2.295 -0.2879 -0.3289  1.7842
12121SOL     OW37143   0.534   2.869   4.956  0.4342  0.6529  0.0771
12121SOL    HW137144   0.601   2.804   4.974 -0.1119  0.2114  0.5214
12121SOL    HW237145   0.487   2.835   4.879  0.4989  0.7958 -0.0271
12122SOL     OW37146   4.435   3.868   8.283 -0.2579 -0.1171  0.7743
12122SOL    HW137147   4.380   3.945   8.269 -1.4058 -0.7229  1.7089
12122SOL    HW237148   4.519   3.891   8.245 -0.4903  1.7089  1.2610
12123SOL     OW37149   6.419   7.069   7.123 -0.2579 -0.4156 -0.8499
12123SOL    HW137150   6.464   6.998   7.169 -0.8489 -0.5575 -0.4819
12123SOL    HW237151   6.426   7.046   7.031  1.0736 -0.0518 -0.8631
12124SOL     OW37152   1.893   7.818   6.371 -0.1888  0.2912 -0.2832
12124SOL    HW137153   1.804   7.795   6.396  0.3774 -0.8690  0.7659
12124SOL    HW237154   1.948   7.753   6.414  1.2140  1.3130 -0.4574
12125SOL     OW37155   7.879   3.131   0.791 -0.1255  1.0017 -0.2437
12125SOL    HW137156   7.966   3.126   0.831 -0.6064  2.0674  0.9863
12125SOL    HW237157   7.822   3.085   0.853 -0.2708 -0.9440 -1.7137
12126SOL     OW37158   2.966   2.350   6.743  0.0638 -0.2406 -0.7484
12126SOL    HW137159   2.993   2.436   6.776 -0.0629 -0.5229  0.1285
12126SOL    HW237160   3.042   2.319   6.693 -0.6131  1.2168 -2.8037
12127SOL     OW37161   5.065   3.387   5.833  0.1383  0.0508  0.1096
12127SOL    HW137162   5.095   3.414   5.920 -1.9004  0.3197  0.7878
12127SOL    HW237163   5.100   3.299   5.822  2.2606  0.8227  0.2225
12128SOL     OW37164   1.110   2.690   2.577 -0.4663  0.2906 -0.3760
12128SOL    HW137165   1.046   2.621   2.593 -0.1762  0.2357  0.6008
12128SOL    HW237166   1.067   2.770   2.609 -0.1525  0.2940  0.0419
12129SOL     OW37167   0.504   6.354   7.538  0.3474  0.7573 -0.5488
12129SOL    HW137168   0.502   6.367   7.633  0.7976 -0.3952 -0.3652
12129SOL    HW237169   0.412   6.356   7.511  0.2531  1.6240 -0.1716
12130SOL     OW37170   6.212   8.272   1.534 -1.0555  0.0159 -0.3605
12130SOL    HW137171   6.192   8.360   1.501 -1.2885  0.3707  0.6954
12130SOL    HW237172   6.126   8.232   1.548 -0.9669 -0.0384  0.0461
12131SOL     OW37173   0.976   7.517   5.119  0.1755 -0.2316  0.2105
12131SOL    HW137174   0.960   7.430   5.155  1.0831 -0.7468 -0.5998
12131SOL    HW237175   1.020   7.564   5.190  0.5036 -0.7293  0.3415
12132SOL     OW37176   2.724   4.423   1.121  0.3801  0.0337  0.1269
12132SOL    HW137177   2.710   4.380   1.037  1.2279 -3.0426  1.4297
12132SOL    HW237178   2.812   4.459   1.116  0.1906  0.4212 -0.5027
12133SOL     OW37179   3.314   4.470   7.123  0.0352 -0.2709 -0.0064
12133SOL    HW137180   3.372   4.453   7.049 -1.5497 -1.4518 -1.0238
12133SOL    HW237181   3.373   4.493   7.195  1.6726 -0.1937 -1.3238
12134SOL     OW37182   0.799   5.365   0.902  0.2706 -0.0324 -0.1579
12134SOL    HW137183   0.864   5.397   0.840  0.0444  0.9604  0.0919
12134SOL    HW237184   0.843   5.368   0.987  0.2228 -0.3317 -0.1200
12135SOL     OW37185   6.889   0.307   4.641 -0.4643 -0.8801 -0.1198
12135SOL    HW137186   6.933   0.378   4.688 -1.6919  0.4500 -0.9320
12135SOL    HW237187   6.915   0.228   4.689  0.3817  0.1624  1.2240
12136SOL     OW37188   3.277   3.362   4.214 -0.0531  0.3503  0.3742
12136SOL    HW137189   3.326   3.373   4.132 -0.9561 -1.1586 -0.4109
12136SOL    HW237190   3.185   3.361   4.187 -0.4496  1.3232  1.6036
12137SOL     OW37191   1.569   5.446   7.892  0.8645 -0.6152 -0.9519
12137SOL    HW137192   1.570   5.436   7.797 -2.1708 -2.2765 -0.9353
12137SOL    HW237193   1.512   5.375   7.923  1.3212  0.2008  2.0686
12138SOL     OW37194   0.664   6.192   3.240  0.7575 -0.0521 -0.2863
12138SOL    HW137195   0.662   6.210   3.334 -1.9474 -1.2787 -0.0305
12138SOL    HW237196   0.653   6.278   3.199 -1.6401  0.1731  0.6713
12139SOL     OW37197   4.865   2.731   7.099 -0.4220  0.1842  0.3743
12139SOL    HW137198   4.771   2.740   7.111 -0.6159 -0.9085 -0.1977
12139SOL    HW237199   4.886   2.785   7.024 -0.4517  1.0475  0.9747
12140SOL     OW37200   7.503   6.228   5.071  1.0797 -0.1752  0.4631
12140SOL    HW137201   7.452   6.287   5.128 -0.0110 -3.0113  2.6782
12140SOL    HW237202   7.452   6.223   4.991 -0.0251  0.1366  1.1177
12141SOL     OW37203   0.071   7.549   3.416 -0.0083 -0.0518  0.1553
12141SOL    HW137204   0.087   7.465   3.459  1.6140 -0.0128 -0.2945
12141SOL    HW237205   0.104   7.614   3.477  1.4069  0.0618 -0.6909
12142SOL     OW37206   7.811   2.587   6.597  0.7156 -0.0980 -0.4762
12142SOL    HW137207   7.891   2.535   6.599  1.6920  1.2647 -1.8075
12142SOL    HW237208   7.760   2.548   6.525  0.9419  0.0774 -0.7334
12143SOL     OW37209   1.053   7.469   1.670  0.1563 -0.0755 -0.1247
12143SOL    HW137210   1.084   7.380   1.656  0.4785  0.0103  0.0321
12143SOL    HW237211   1.128   7.524   1.648  0.2981  0.1123  0.8192
12144SOL     OW37212   1.992   1.705   7.009  0.4420 -0.5126  1.0559
12144SOL    HW137213   1.953   1.651   7.078  0.3427 -0.7764  0.7971
12144SOL    HW237214   2.044   1.769   7.056  1.1964 -1.3210  1.3511
12145SOL     OW37215   5.512   5.164   7.256 -0.1790  0.0036 -0.5210
12145SOL    HW137216   5.598   5.202   7.239  0.0828 -0.1682  0.3809
12145SOL    HW237217   5.456   5.201   7.188  0.9066 -1.0200 -2.0343
12146SOL     OW37218   3.467   5.636   7.261  0.7376 -0.0722 -0.3021
12146SOL    HW137219   3.407   5.573   7.301 -0.7956  1.5873  0.1307
12146SOL    HW237220   3.504   5.684   7.335 -0.7987  1.8574 -0.7093
12147SOL     OW37221   4.697   5.917   4.098  0.0840  0.0202  0.0601
12147SOL    HW137222   4.623   5.865   4.128  0.1796 -0.2330 -0.1377
12147SOL    HW237223   4.724   5.968   4.175  0.0416 -0.2858  0.2780
12148SOL     OW37224   7.336   1.996   6.516  0.1234  0.1786  0.1819
12148SOL    HW137225   7.306   2.085   6.532  2.0427  0.7033  1.1713
12148SOL    HW237226   7.266   1.941   6.551  0.0638  1.3250  2.0098
12149SOL     OW37227   2.067   1.730   5.168  0.1365  0.4040 -0.5850
12149SOL    HW137228   2.096   1.766   5.084 -0.4730 -0.6181 -1.2496
12149SOL    HW237229   2.113   1.647   5.177  1.2420  1.1217  0.7619
12150SOL     OW37230   7.443   0.253   0.498  0.1369  0.6378  0.0838
12150SOL    HW137231   7.531   0.259   0.461  1.0062  0.7949  2.0610
12150SOL    HW237232   7.391   0.313   0.444  1.4745  1.3383 -0.4839
12151SOL     OW37233   5.375   8.118   4.287 -0.1188  0.0616  0.2021
12151SOL    HW137234   5.385   8.204   4.248  0.5189  0.2552  0.7719
12151SOL    HW237235   5.464   8.082   4.292 -0.1364  0.1294  1.6178
12152SOL     OW37236   0.818   3.179   7.232 -0.3810 -0.5170  0.5414
12152SOL    HW137237   0.799   3.087   7.250 -2.2482  0.0695  1.8695
12152SOL    HW237238   0.805   3.224   7.316 -1.6531  1.2467 -0.5172
12153SOL     OW37239   3.708   2.334   2.890  0.0513  0.1815  0.6844
12153SOL    HW137240   3.731   2.243   2.910  1.5898  0.5896  0.9071
12153SOL    HW237241   3.785   2.369   2.845 -0.5625  1.3471  0.4990
12154SOL     OW37242   2.871   4.090   6.905  0.0437 -0.2285 -0.4412
12154SOL    HW137243   2.776   4.084   6.910 -0.0243  0.9854  0.0960
12154SOL    HW237244   2.898   4.114   6.994  0.7782  0.1827 -0.7665
12155SOL     OW37245   4.408   3.304   7.826  0.2082 -0.6723  0.3623
12155SOL    HW137246   4.445   3.322   7.739  0.2279 -2.7909 -0.1116
12155SOL    HW237247   4.314   3.318   7.815  0.3687  0.6469  0.4659
12156SOL     OW37248   0.560   0.546   7.802  0.4268  0.5370 -0.1746
12156SOL    HW137249   0.519   0.632   7.804 -0.2902  0.2336 -1.1209
12156SOL    HW237250   0.555   0.519   7.710  0.2249 -0.7000  0.1792
12157SOL     OW37251   5.231   2.773   0.052 -0.2951 -0.3787  0.4728
12157SOL    HW137252   5.277   2.703   0.006 -0.7130 -0.4511  0.1592
12157SOL    HW237253   5.298   2.840   0.067 -0.5456  0.5912 -2.1137
12158SOL     OW37254   2.565   2.366   3.002 -0.3090  0.3676  0.0524
12158SOL    HW137255   2.618   2.289   3.026  0.1667  0.3105 -1.0931
12158SOL    HW237256   2.479   2.330   2.979  0.2558 -0.0066 -1.6403
12159SOL     OW37257   5.628   1.892   4.679  0.2932 -0.6312  0.0152
12159SOL    HW137258   5.682   1.914   4.755 -1.2521  0.4359  0.8529
12159SOL    HW237259   5.667   1.943   4.607  1.1225 -0.8171  0.3179
12160SOL     OW37260   4.716   4.476   2.272  0.5682 -0.2831  0.4180
12160SOL    HW137261   4.737   4.481   2.178 -1.8191  1.8886 -0.1232
12160SOL    HW237262   4.664   4.397   2.280 -4.2155  2.2373 -1.4793
12161SOL     OW37263   1.095   6.069   3.249  0.2156  0.6158 -0.0582
12161SOL    HW137264   1.027   6.003   3.234  0.8492  0.2687 -1.5557
12161SOL    HW237265   1.165   6.021   3.293 -0.0405  0.7139  0.4642
12162SOL     OW37266   4.030   1.617   3.688  0.6058  0.1003  0.0678
12162SOL    HW137267   4.096   1.664   3.637  1.5997 -1.2659  0.0439
12162SOL    HW237268   3.994   1.552   3.628  1.9771 -1.7127  1.1024
12163SOL     OW37269   4.057   5.882   0.839  0.1171 -0.0581  0.0871
12163SOL    HW137270   4.002   5.908   0.765  1.3120 -1.7040 -1.4567
12163SOL    HW237271   4.126   5.949   0.841 -0.1435  0.2180 -0.0387
12164SOL     OW37272   5.560   1.231   1.185  0.5407 -0.0832 -0.9601
12164SOL    HW137273   5.631   1.295   1.181 -0.3578  1.0572  0.3855
12164SOL    HW237274   5.500   1.266   1.250 -0.6066 -1.6974 -1.0914
12165SOL     OW37275   3.874   3.243   0.035  0.2707 -0.4082  0.6725
12165SOL    HW137276   3.860   3.303   0.109 -0.6411 -1.7713  1.6461
12165SOL    HW237277   3.939   3.181   0.066 -0.7078 -1.4729  0.6471
12166SOL     OW37278   7.729   3.588   4.760  0.1451 -0.1416 -0.3859
12166SOL    HW137279   7.731   3.641   4.839 -1.5857  0.2783 -0.5853
12166SOL    HW237280   7.822   3.571   4.740  0.6542  0.9867  0.8693
12167SOL     OW37281   0.306   7.282   8.061 -0.6904  0.2027 -0.6913
12167SOL    HW137282   0.321   7.362   8.011  0.3998  0.5609  0.1719
12167SOL    HW237283   0.369   7.286   8.134 -0.5716 -1.4487 -0.6439
12168SOL     OW37284   1.106   3.843   6.927 -0.5188  0.7142 -0.1504
12168SOL    HW137285   1.079   3.763   6.882  1.5642  0.8833 -1.8529
12168SOL    HW237286   1.190   3.821   6.968 -0.8888  1.4745  1.0883
12169SOL     OW37287   3.519   3.363   1.558  0.3444 -0.3444 -0.5221
12169SOL    HW137288   3.569   3.442   1.536  1.2888 -0.2777  1.6107
12169SOL    HW237289   3.583   3.292   1.555 -0.1441 -0.7702 -0.8752
12170SOL     OW37290   2.909   1.610   2.802 -0.5236  0.4089  0.6822
12170SOL    HW137291   2.922   1.640   2.892 -1.0329  1.1263  0.5211
12170SOL    HW237292   2.857   1.530   2.810 -1.4707  1.0533  0.9681
12171SOL     OW37293   3.000   2.923   4.731  0.4117  0.2832  0.2702
12171SOL    HW137294   3.015   2.878   4.648  1.1373 -0.1616  0.6270
12171SOL    HW237295   3.068   2.990   4.734  1.5839 -0.9037  1.3234
12172SOL     OW37296   0.715   2.540   3.258 -0.2236  0.3273 -0.0972
12172SOL    HW137297   0.713   2.445   3.244 -4.5516  0.3134 -0.7987
12172SOL    HW237298   0.744   2.576   3.174 -0.2309 -0.3297 -0.3852
12173SOL     OW37299   1.660   1.107   0.524 -0.2694 -0.4776 -0.2620
12173SOL    HW137300   1.741   1.117   0.574  0.0956  1.2156 -1.1220
12173SOL    HW237301   1.687   1.065   0.442  0.1987  2.0155 -1.4870
12174SOL     OW37302   3.778   2.735   5.762  0.4962  0.0591 -0.7147
12174SOL    HW137303   3.693   2.752   5.722 -0.8178  1.1547  2.2598
12174SOL    HW237304   3.813   2.822   5.782  0.6779 -0.4284  1.2055
12175SOL     OW37305   0.942   7.742   1.736  0.2076  0.0909 -0.3774
12175SOL    HW137306   0.955   7.651   1.711 -1.4697 -0.1814 -0.3866
12175SOL    HW237307   0.941   7.790   1.653  0.7732  0.0810 -0.3933
12176SOL     OW37308   3.714   6.464   5.429 -0.5662 -0.1421  0.8328
12176SOL    HW137309   3.753   6.502   5.507  0.4998 -0.3398  0.4103
12176SOL    HW237310   3.771   6.490   5.358  0.2709 -2.5441  0.5320
12177SOL     OW37311   2.200   0.565   8.125  0.1393  0.1263  0.3113
12177SOL    HW137312   2.173   0.655   8.106  0.4468 -0.0427 -1.0575
12177SOL    HW237313   2.284   0.556   8.080 -0.3907 -1.1546 -0.4903
12178SOL     OW37314   1.865   4.097   0.684 -0.7158  0.3939 -0.0414
12178SOL    HW137315   1.943   4.048   0.659 -1.5302  0.2056 -2.5158
12178SOL    HW237316   1.814   4.036   0.737 -0.5050 -0.5250 -0.8651
12179SOL     OW37317   2.534   4.145   3.275 -0.1093  0.5100 -0.0597
12179SOL    HW137318   2.599   4.086   3.313 -1.0401  0.3048  1.2708
12179SOL    HW237319   2.554   4.145   3.181  1.5994  0.2176  0.2718
12180SOL     OW37320   5.169   4.375   6.226  0.2388 -0.2857  0.1584
12180SOL    HW137321   5.172   4.345   6.316 -0.3400  2.0037  1.0181
12180SOL    HW237322   5.180   4.470   6.232  3.3022 -0.2770 -2.4101
12181SOL     OW37323   0.235   7.517   2.979 -0.2813  0.0947  0.1339
12181SOL    HW137324   0.253   7.544   3.070  1.2013 -1.8847  0.4856
12181SOL    HW237325   0.208   7.426   2.986  2.1644 -0.8616 -1.5379
12182SOL     OW37326   2.199   0.188   5.994  0.4993  0.6439 -0.0107
12182SOL    HW137327   2.139   0.261   5.978  2.0351  1.9098 -0.2250
12182SOL    HW237328   2.226   0.199   6.085 -0.2840 -0.4849  0.3837
12183SOL     OW37329   3.405   6.261   7.997  0.2417 -0.3072 -0.0608
12183SOL    HW137330   3.325   6.264   7.943 -0.5773  1.2095  1.1310
12183SOL    HW237331   3.377   6.220   8.079 -0.1485  2.6438  1.4548
12184SOL     OW37332   6.840   6.903   2.720 -0.0977 -0.0243 -0.3567
12184SOL    HW137333   6.781   6.879   2.791 -0.7052  1.5816 -0.2756
12184SOL    HW237334   6.927   6.905   2.760 -0.4818  1.2403  0.4591
12185SOL     OW37335   1.044   7.690   0.279 -0.4859 -0.5109 -0.0960
12185SOL    HW137336   1.000   7.681   0.194 -0.8367  1.1182 -0.1123
12185SOL    HW237337   1.073   7.601   0.300  1.5305 -0.6389 -2.9312
12186SOL     OW37338   5.428   5.603   7.860  0.5987  0.2402  0.1026
12186SOL    HW137339   5.391   5.515   7.858  3.4792 -1.1127 -1.9594
12186SOL    HW237340   5.494   5.599   7.929  0.9302  0.6760 -0.1873
12187SOL     OW37341   2.752   6.846   6.388 -0.2575 -0.5637 -0.6724
12187SOL    HW137342   2.802   6.884   6.459 -2.0724 -0.6590  0.7229
12187SOL    HW237343   2.743   6.917   6.324  1.7365 -0.6068 -1.0713
12188SOL     OW37344   8.051   7.686   5.215 -0.1545  0.0331  0.2679
12188SOL    HW137345   7.998   7.749   5.265 -0.7103  0.0122 -0.2769
12188SOL    HW237346   8.078   7.735   5.137  1.9614  0.5488  1.2531
12189SOL     OW37347   6.718   4.860   7.428 -0.7883  0.0153 -0.0108
12189SOL    HW137348   6.681   4.879   7.514  1.2645  1.0258  0.7171
12189SOL    HW237349   6.708   4.942   7.379  1.4544  0.7427  0.6226
12190SOL     OW37350   5.565   2.588   2.453 -0.1243  0.3055  0.2335
12190SOL    HW137351   5.562   2.493   2.462 -0.5906  0.2886 -0.0581
12190SOL    HW237352   5.551   2.604   2.360  0.9808  0.6237  0.1140
12191SOL     OW37353   3.761   1.950   2.496 -0.0508 -0.2012  0.2839
12191SOL    HW137354   3.758   1.963   2.591  2.4782  1.9886  0.1859
12191SOL    HW237355   3.811   1.869   2.485 -0.8266 -0.7656  0.7922
12192SOL     OW37356   3.505   6.144   1.645 -0.0553  0.0651  0.1936
12192SOL    HW137357   3.447   6.106   1.579 -0.1257  1.2020 -0.4257
12192SOL    HW237358   3.594   6.126   1.612 -0.0904  0.6443 -0.2230
12193SOL     OW37359   0.887   3.003   8.071  0.1005 -0.1317  0.3630
12193SOL    HW137360   0.866   3.059   7.997 -0.9582  1.0292  1.4988
12193SOL    HW237361   0.978   3.025   8.093  0.4559 -0.5634 -0.6289
12194SOL     OW37362   3.653   3.282   4.287  0.3194 -0.2797  0.3160
12194SOL    HW137363   3.626   3.355   4.231 -1.1518 -1.8195 -1.1037
12194SOL    HW237364   3.581   3.271   4.348  0.1048 -1.1334 -0.0892
12195SOL     OW37365   0.005   4.875   2.010 -0.0125  0.0171  0.4674
12195SOL    HW137366   0.075   4.848   2.069 -1.3013 -2.2090  1.1186
12195SOL    HW237367   0.001   4.970   2.019  2.3729  0.1203  0.9871
12196SOL     OW37368   1.174   5.762   0.225  0.1937 -0.1339  0.0563
12196SOL    HW137369   1.257   5.761   0.176  0.5463 -0.6288  0.6580
12196SOL    HW237370   1.199   5.776   0.316 -0.4836  1.0582  0.0817
12197SOL     OW37371   5.679   3.217   0.646  0.0823  0.3362  0.0467
12197SOL    HW137372   5.659   3.311   0.645  0.5853  0.4455 -0.9857
12197SOL    HW237373   5.652   3.186   0.560  1.5699 -0.1017 -0.2879
12198SOL     OW37374   1.528   2.784   6.681  0.3305  0.5810 -0.3110
12198SOL    HW137375   1.451   2.797   6.626  0.3495  2.0656 -0.0274
12198SOL    HW237376   1.568   2.871   6.687  0.5488  0.3839  1.6967
12199SOL     OW37377   5.939   8.019   4.841  0.3822  0.8730 -0.3935
12199SOL    HW137378   5.863   8.077   4.850  0.1428  1.2770 -3.7789
12199SOL    HW237379   5.925   7.974   4.758  2.5907 -1.0668  0.1719
12200SOL     OW37380   0.086   5.241   7.900  0.5462  0.4064 -0.3356
12200SOL    HW137381   0.137   5.186   7.960 -1.2463 -1.1813 -0.1671
12200SOL    HW237382   0.044   5.179   7.840 -1.7933  1.5200  0.0437
12201SOL     OW37383   5.925   4.006   0.950  0.0056  0.2852  0.2513
12201SOL    HW137384   5.845   4.037   0.992 -0.4128  1.9659 -1.6155
12201SOL    HW237385   5.974   4.086   0.930  1.1736 -0.5852 -0.5051
12202SOL     OW37386   2.584   5.406   5.196  0.0803  0.5303  0.3720
12202SOL    HW137387   2.543   5.478   5.148  1.3765  0.3537 -1.0709
12202SOL    HW237388   2.662   5.445   5.234  2.6820 -0.6990 -3.1937
12203SOL     OW37389   6.821   5.244   5.067 -0.2814 -0.7488  0.5165
12203SOL    HW137390   6.744   5.302   5.068  1.4963  1.9733 -2.4748
12203SOL    HW237391   6.885   5.289   5.123 -0.3166 -2.2623  1.8354
12204SOL     OW37392   3.220   1.079   2.036 -0.4108 -0.1428  0.0948
12204SOL    HW137393   3.214   1.167   2.072  0.3975 -0.2399  0.4797
12204SOL    HW237394   3.311   1.070   2.008 -0.8202 -0.3650 -1.2242
12205SOL     OW37395   1.177   4.595   3.606 -0.1052  0.2887 -0.0114
12205SOL    HW137396   1.272   4.595   3.616 -0.3104  0.4638  2.6706
12205SOL    HW237397   1.161   4.640   3.523  2.0977  1.5930  0.2034
12206SOL     OW37398   5.682   7.348   5.889  0.0224 -0.4497  0.3113
12206SOL    HW137399   5.662   7.420   5.949  2.1830  0.2200  0.3134
12206SOL    HW237400   5.615   7.354   5.822 -0.3582  1.0347  0.7825
12207SOL     OW37401   8.092   4.915   6.409 -0.3414 -0.0954  0.2038
12207SOL    HW137402   8.008   4.959   6.397 -0.7137 -0.5488  1.0366
12207SOL    HW237403   8.125   4.901   6.321 -0.6525  1.0107 -0.0940
12208SOL     OW37404   8.270   7.356   1.540  0.4814 -0.0273  0.4468
12208SOL    HW137405   8.297   7.303   1.464 -1.7220  0.6785 -0.9217
12208SOL    HW237406   8.323   7.436   1.532 -0.5603  0.5685 -1.1396
12209SOL     OW37407   1.357   1.164   7.791  0.1034 -0.2331  0.0908
12209SOL    HW137408   1.283   1.106   7.808  0.7445 -1.4250 -1.0081
12209SOL    HW237409   1.368   1.163   7.696  1.7664 -0.4358  0.2444
12210SOL     OW37410   3.014   5.699   0.876 -0.4442 -0.4203  0.5995
12210SOL    HW137411   2.949   5.746   0.824  0.3363 -0.9097 -0.8823
12210SOL    HW237412   2.996   5.725   0.967 -3.2642 -1.2095  0.3770
12211SOL     OW37413   0.015   4.419   7.494  0.3324  0.2097 -0.0072
12211SOL    HW137414   0.046   4.438   7.405  0.5626  2.2562  0.4632
12211SOL    HW237415  -0.006   4.505   7.531 -1.8591 -0.7642  1.1853
12212SOL     OW37416   0.723   1.016   3.403 -0.4531 -1.1867 -0.5442
12212SOL    HW137417   0.676   0.987   3.325 -0.1617 -2.3761 -0.2979
12212SOL    HW237418   0.750   0.935   3.446  0.3998 -0.5378  0.1818
12213SOL     OW37419   8.191   6.811   4.893 -0.1844 -0.1694  0.4913
12213SOL    HW137420   8.189   6.715   4.895  0.8610 -0.2281  3.0005
12213SOL    HW237421   8.278   6.832   4.858 -0.6239 -0.1024 -0.5865
12214SOL     OW37422   4.483   8.195   1.205 -0.5469  0.4044 -0.0760
12214SOL    HW137423   4.481   8.262   1.137 -0.3042 -0.6690 -1.1941
12214SOL    HW237424   4.409   8.138   1.184  0.2495 -0.6262 -0.2018
12215SOL     OW37425   3.446   7.276   4.982  0.1733 -0.2272 -0.1479
12215SOL    HW137426   3.465   7.187   4.954 -1.6467 -0.5611 -0.4486
12215SOL    HW237427   3.387   7.266   5.057  0.9098  0.7198  0.5854
12216SOL     OW37428   1.591   7.992   1.994  0.0903  0.3184  0.0583
12216SOL    HW137429   1.543   7.922   2.038 -1.0958  0.1534 -1.4338
12216SOL    HW237430   1.600   8.060   2.061  0.6974 -0.9657  1.3366
12217SOL     OW37431   1.560   6.567   6.393  0.5682 -0.1263  0.3331
12217SOL    HW137432   1.556   6.651   6.439 -0.0497 -0.3900  0.7756
12217SOL    HW237433   1.555   6.590   6.301  0.2450  0.3112  0.4586
12218SOL     OW37434   6.057   2.924   4.984 -0.3527  0.4524 -0.5186
12218SOL    HW137435   6.014   3.006   4.959 -1.2460  0.0870 -0.2114
12218SOL    HW237436   6.096   2.943   5.069 -0.1230  0.7088 -0.6786
12219SOL     OW37437   7.710   8.166   2.796 -0.0867 -0.0458 -0.1257
12219SOL    HW137438   7.662   8.169   2.714  1.0751  2.5208 -0.7984
12219SOL    HW237439   7.681   8.242   2.845  0.4715 -0.6035  1.1406
12220SOL     OW37440   0.600   4.117   5.913  0.7385  0.1727 -0.2515
12220SOL    HW137441   0.603   4.085   6.003  0.3130 -0.5089 -0.4741
12220SOL    HW237442   0.595   4.038   5.859 -1.3376  0.5955 -0.7767
12221SOL     OW37443   3.528   7.000   3.375  0.4451 -0.5305  0.9340
12221SOL    HW137444   3.576   6.917   3.376 -0.1916 -0.9407 -0.3395
12221SOL    HW237445   3.436   6.974   3.370  0.0801  0.2476  2.9306
12222SOL     OW37446   1.266   2.366   0.682 -0.6235 -0.0599  0.3072
12222SOL    HW137447   1.214   2.286   0.692 -0.5713 -0.4874 -2.1823
12222SOL    HW237448   1.311   2.377   0.765 -0.2978 -2.8874  0.5741
12223SOL     OW37449   3.426   2.873   2.454 -0.1901  0.2449 -0.0135
12223SOL    HW137450   3.489   2.827   2.509  0.2663  1.4844  0.5429
12223SOL    HW237451   3.432   2.965   2.482 -0.9834  0.6707 -1.1529
12224SOL     OW37452   4.786   1.737   0.619  0.0835 -0.3905  0.3763
12224SOL    HW137453   4.756   1.710   0.532  0.3251 -3.0629  1.0393
12224SOL    HW237454   4.752   1.825   0.630  0.0234  0.0229 -2.4086
12225SOL     OW37455   6.058   5.453   2.628 -0.4864  0.0353  0.4762
12225SOL    HW137456   5.985   5.417   2.578 -0.4269 -0.2865  0.6207
12225SOL    HW237457   6.109   5.377   2.655  0.3555  0.3015 -0.3157
12226SOL     OW37458   7.351   6.098   7.766  0.1734  0.4192  0.3412
12226SOL    HW137459   7.433   6.117   7.812  0.6453  0.0840 -0.3372
12226SOL    HW237460   7.295   6.173   7.785  1.1104  1.3096 -0.2731
12227SOL     OW37461   3.070   8.111   7.221  0.5480 -0.2259  0.4382
12227SOL    HW137462   2.978   8.112   7.244  0.4416  1.2949  0.0556
12227SOL    HW237463   3.073   8.074   7.133  0.1779  0.5631  0.0783
12228SOL     OW37464   4.115   5.048   3.405 -0.4329  0.3094 -0.0345
12228SOL    HW137465   4.030   5.071   3.368 -0.5599  0.0798  0.1059
12228SOL    HW237466   4.093   5.001   3.486 -0.1538  2.0707  1.1005
12229SOL     OW37467   0.518   6.361   5.625 -0.1500 -0.4362 -0.6456
12229SOL    HW137468   0.608   6.355   5.592 -0.7614  0.0595 -2.5285
12229SOL    HW237469   0.522   6.430   5.691  1.2069 -1.7461  0.7366
12230SOL     OW37470   0.731   6.269   7.226 -0.4458 -0.0735  0.3130
12230SOL    HW137471   0.670   6.236   7.292 -2.1340 -0.8453 -1.5401
12230SOL    HW237472   0.787   6.194   7.206 -0.7674 -0.2241 -0.0323
12231SOL     OW37473   3.397   6.166   4.788 -0.1208  0.0471 -0.2925
12231SOL    HW137474   3.316   6.113   4.785  0.3002 -0.7408  1.1464
12231SOL    HW237475   3.406   6.200   4.699 -1.1662 -1.1868 -0.9217
12232SOL     OW37476   2.795   5.438   8.299 -0.6115  1.0078  0.7890
12232SOL    HW137477   2.730   5.448   8.368 -0.0393 -0.8957  1.6664
12232SOL    HW237478   2.786   5.348   8.269 -0.3813  1.5897 -1.1879
12233SOL     OW37479   7.260   5.840   6.860  0.8957  0.0249 -0.1461
12233SOL    HW137480   7.282   5.922   6.904  2.1251  0.1310 -0.9223
12233SOL    HW237481   7.294   5.850   6.772 -0.2130 -0.7783 -0.6893
12234SOL     OW37482   0.353   8.215   5.367  0.2358 -0.1394  0.5811
12234SOL    HW137483   0.428   8.241   5.312  0.8878  0.7022  1.8235
12234SOL    HW237484   0.373   8.125   5.392  0.2353 -0.3238 -0.0605
12235SOL     OW37485   0.160   0.039   1.306 -0.4645 -0.1374 -0.1295
12235SOL    HW137486   0.188   0.077   1.222  0.6566  0.6553  0.5700
12235SOL    HW237487   0.161  -0.055   1.291 -0.4877 -0.0058 -1.0681
12236SOL     OW37488   2.405   7.068   6.807 -0.0555 -0.1338  1.1343
12236SOL    HW137489   2.397   7.067   6.712 -0.4596 -0.6309  1.1680
12236SOL    HW237490   2.373   7.154   6.834 -1.1784 -0.4647  0.9155
12237SOL     OW37491   5.084   2.310   5.261 -0.5927  0.0699 -0.2629
12237SOL    HW137492   5.050   2.232   5.217 -0.2000 -0.5198  0.4707
12237SOL    HW237493   5.019   2.330   5.328  0.5607 -1.2071  1.3108
12238SOL     OW37494   3.718   7.434   1.029 -0.2308  0.1567 -0.3574
12238SOL    HW137495   3.645   7.426   0.967 -0.8637  0.6588  0.3073
12238SOL    HW237496   3.702   7.516   1.074  0.3554 -0.0888  0.3136
12239SOL     OW37497   6.092   8.195   1.242  0.5454 -0.0516 -0.1391
12239SOL    HW137498   6.118   8.107   1.270 -2.1440 -1.1974 -0.9257
12239SOL    HW237499   6.028   8.223   1.308 -0.1230  0.4531 -0.9839
12240SOL     OW37500   3.658   4.392   4.049 -0.4029  0.5000 -0.4046
12240SOL    HW137501   3.695   4.348   3.973 -1.6228  0.0893 -0.7803
12240SOL    HW237502   3.589   4.449   4.013 -1.9255 -0.7100  0.4746
12241SOL     OW37503   1.850   4.746   3.241  0.3352 -1.0238  0.0199
12241SOL    HW137504   1.890   4.662   3.220 -1.1187 -1.6733 -0.2448
12241SOL    HW237505   1.796   4.767   3.164  3.2203  1.8425 -1.4901
12242SOL     OW37506   2.400   3.531   1.955 -0.3895  0.2435  0.4688
12242SOL    HW137507   2.402   3.534   2.051 -0.9005  0.0448  0.4887
12242SOL    HW237508   2.392   3.623   1.929 -1.7575  0.2063  0.6704
12243SOL     OW37509   0.577   2.204   8.018 -0.2292  0.1644 -0.7466
12243SOL    HW137510   0.526   2.152   8.080 -0.2407 -0.0675 -0.9446
12243SOL    HW237511   0.651   2.238   8.069  1.4485 -2.4708 -1.2100
12244SOL     OW37512   3.440   0.167   7.369 -0.3517  0.0853  0.1884
12244SOL    HW137513   3.391   0.089   7.342  0.6803 -1.3131  2.1348
12244SOL    HW237514   3.410   0.184   7.459  1.5210  0.1457  0.8412
12245SOL     OW37515   3.893   2.886   1.992 -0.4659  0.3615 -0.2581
12245SOL    HW137516   3.910   2.938   1.914 -0.2619  1.6160  0.5925
12245SOL    HW237517   3.948   2.926   2.060 -1.8187  0.3014  0.9109
12246SOL     OW37518   2.532   7.589   4.406 -0.0482  0.1105  0.0218
12246SOL    HW137519   2.462   7.636   4.452 -0.8933  0.6345 -1.7476
12246SOL    HW237520   2.498   7.500   4.398  0.1174  0.0082  0.4279
12247SOL     OW37521   4.365   2.159   4.069 -0.1218 -0.3207  0.0626
12247SOL    HW137522   4.369   2.071   4.106 -1.2674  0.3447  1.9514
12247SOL    HW237523   4.383   2.147   3.976  0.4781 -2.4389  0.3971
12248SOL     OW37524   0.646   3.568   0.100 -0.0007  0.6351  0.0395
12248SOL    HW137525   0.636   3.534   0.011  0.8514  0.2019  0.0932
12248SOL    HW237526   0.584   3.641   0.106 -0.8394 -0.0285 -0.5452
12249SOL     OW37527   4.623   3.577   0.465  0.1335 -0.9056 -0.2411
12249SOL    HW137528   4.644   3.498   0.415 -0.8339 -0.6726 -1.0495
12249SOL    HW237529   4.670   3.567   0.547 -0.1937 -2.4496 -0.2176
12250SOL     OW37530   5.006   0.954   3.875  0.3101 -0.3992  0.2358
12250SOL    HW137531   4.948   0.884   3.845 -1.2255  0.6596  0.6011
12250SOL    HW237532   4.948   1.030   3.886  1.7138  0.6116  0.9886
12251SOL     OW37533   6.665   0.232   3.331  0.4808  0.4040 -0.7798
12251SOL    HW137534   6.600   0.272   3.274 -0.1681  1.1050  0.4071
12251SOL    HW237535   6.735   0.203   3.272 -1.0504 -0.7018 -2.1251
12252SOL     OW37536   3.485   5.254   8.262  0.1411 -0.2266  0.3693
12252SOL    HW137537   3.547   5.183   8.277  0.6643  0.3130  0.7970
12252SOL    HW237538   3.463   5.248   8.169 -0.1008 -1.1626  0.4699
12253SOL     OW37539   0.485   7.606   2.855 -0.2574  0.5686 -0.3787
12253SOL    HW137540   0.457   7.666   2.924  0.1135 -1.4913  1.6749
12253SOL    HW237541   0.404   7.579   2.812 -0.8769 -0.4326  1.3103
12254SOL     OW37542   2.820   3.235   0.855  0.4605 -0.0702  0.0767
12254SOL    HW137543   2.913   3.227   0.879 -0.0200 -1.9450  1.5196
12254SOL    HW237544   2.797   3.148   0.823 -1.2095 -0.1294  1.3447
12255SOL     OW37545   3.128   4.815   3.847 -0.3126  0.1282 -0.0045
12255SOL    HW137546   3.088   4.815   3.934 -2.0125  1.6427 -0.7243
12255SOL    HW237547   3.087   4.889   3.802  0.2055 -0.8653 -2.2455
12256SOL     OW37548   1.653   6.738   5.398  0.0144  0.1268 -0.3431
12256SOL    HW137549   1.749   6.738   5.404 -0.0187  1.3757  0.6081
12256SOL    HW237550   1.628   6.648   5.420  0.9576 -0.1815 -0.4774
12257SOL     OW37551   8.217   3.769   1.141 -0.6104 -0.2575 -0.4978
12257SOL    HW137552   8.136   3.819   1.136 -0.4563  0.8048  3.7581
12257SOL    HW237553   8.197   3.694   1.197  1.4781  0.7228  1.7744
12258SOL     OW37554   1.817   1.240   7.012 -0.0731 -0.3830  0.3791
12258SOL    HW137555   1.823   1.301   6.939  0.9739 -0.9344  0.0020
12258SOL    HW237556   1.726   1.209   7.010  0.0950 -0.8454 -1.0607
12259SOL     OW37557   6.332   7.605   6.954 -0.2262  0.2709  0.2179
12259SOL    HW137558   6.342   7.575   6.864 -1.4062 -1.8698  0.7266
12259SOL    HW237559   6.319   7.700   6.946  0.3202  0.2269 -1.7903
12260SOL     OW37560   7.332   1.383   0.475 -0.1552 -0.2491 -0.0242
12260SOL    HW137561   7.285   1.387   0.392 -0.1598 -1.3985 -0.0988
12260SOL    HW237562   7.323   1.292   0.503  0.6757 -0.1095  0.7508
12261SOL     OW37563   1.027   5.607   5.342 -0.1539 -0.1081  0.2129
12261SOL    HW137564   1.052   5.678   5.401  1.3471 -0.2655 -0.1947
12261SOL    HW237565   0.938   5.584   5.368 -0.9718  2.3699 -0.0781
12262SOL     OW37566   2.382   2.936   8.159 -0.0672 -0.0258 -0.0338
12262SOL    HW137567   2.289   2.913   8.169 -0.3215  1.0651  0.2559
12262SOL    HW237568   2.385   2.988   8.079  0.2963 -0.0074 -0.0093
12263SOL     OW37569   7.956   1.588   2.453 -0.2194  0.6604  0.5637
12263SOL    HW137570   7.976   1.511   2.400  0.4764  0.6240  0.8751
12263SOL    HW237571   7.927   1.653   2.389 -0.7391  0.1672  0.2922
12264SOL     OW37572   6.475   3.078   7.264 -0.4358 -0.1196 -0.1099
12264SOL    HW137573   6.559   3.086   7.218  1.2301 -3.4447  1.9436
12264SOL    HW237574   6.427   3.011   7.214 -1.5429  1.1022 -0.7421
12265SOL     OW37575   5.710   2.772   5.815  0.3256  0.2087  0.5547
12265SOL    HW137576   5.718   2.707   5.745  2.7832 -0.2582  1.1582
12265SOL    HW237577   5.630   2.748   5.862 -0.0372 -0.9585 -0.6115
12266SOL     OW37578   3.388   6.483   7.181 -0.0828  0.3852 -0.0548
12266SOL    HW137579   3.359   6.394   7.163  1.9060 -0.7786  1.9481
12266SOL    HW237580   3.337   6.510   7.258  1.9540 -0.6099  1.7525
12267SOL     OW37581   7.501   6.218   7.079 -0.5869  0.5423 -0.2246
12267SOL    HW137582   7.454   6.259   7.151  0.4504 -1.0852  1.4669
12267SOL    HW237583   7.577   6.274   7.065 -1.2541  1.3565 -0.7084
12268SOL     OW37584   3.493   3.775   5.962  0.5285 -0.0265 -0.0373
12268SOL    HW137585   3.417   3.722   5.987  1.6212 -0.4293  2.9059
12268SOL    HW237586   3.465   3.865   5.980  1.2386 -0.2980  2.9331
12269SOL     OW37587   5.011   2.400   0.954 -0.2174  0.1014 -0.5392
12269SOL    HW137588   5.024   2.493   0.936  0.7928  0.1520  0.3573
12269SOL    HW237589   5.091   2.358   0.922 -1.0386 -0.5999 -1.7715
12270SOL     OW37590   2.725   0.950   2.078 -0.3043  0.6811 -0.1187
12270SOL    HW137591   2.712   1.038   2.043 -1.3689  2.0314  3.2422
12270SOL    HW237592   2.643   0.905   2.062 -0.0493  0.5684 -1.1296
12271SOL     OW37593   2.180   1.509   5.267 -0.1284 -0.0190  0.1602
12271SOL    HW137594   2.218   1.558   5.341  3.7860 -0.6294 -1.2067
12271SOL    HW237595   2.169   1.420   5.300 -0.1956  0.1318  0.5494
12272SOL     OW37596   7.267   2.786   2.250  0.8834 -0.1414 -0.4254
12272SOL    HW137597   7.200   2.850   2.225  1.3809  0.3340 -0.5538
12272SOL    HW237598   7.226   2.734   2.319 -0.1473 -0.8043 -1.4936
12273SOL     OW37599   5.574   2.018   6.258  0.1645  0.5847 -0.2177
12273SOL    HW137600   5.513   1.981   6.195  1.1830  0.1025 -0.9414
12273SOL    HW237601   5.618   2.089   6.210  3.7431 -2.2079 -1.4769
12274SOL     OW37602   7.492   4.250   0.244  0.0627  0.2636 -0.7061
12274SOL    HW137603   7.423   4.186   0.265 -0.8956  1.7616  0.9455
12274SOL    HW237604   7.573   4.203   0.262 -0.5451 -1.0129 -1.1055
12275SOL     OW37605   7.702   0.972   1.880 -0.1674 -0.4367 -0.1896
12275SOL    HW137606   7.755   0.919   1.940 -0.0978  0.6040  0.7035
12275SOL    HW237607   7.726   0.941   1.793 -0.0683 -1.8012  0.2970
12276SOL     OW37608   5.625   6.896   7.432 -0.4860 -0.4303 -0.0207
12276SOL    HW137609   5.677   6.861   7.361 -0.6492 -0.5152 -0.0984
12276SOL    HW237610   5.689   6.936   7.491 -0.4115  0.2667 -0.5658
12277SOL     OW37611   5.188   3.919   7.528 -0.3071 -0.3466 -0.2674
12277SOL    HW137612   5.197   3.898   7.436  1.3935  0.4290 -0.3163
12277SOL    HW237613   5.244   3.996   7.541 -1.2610  0.1465  1.2125
12278SOL     OW37614   6.082   1.685   5.694 -0.5260 -0.2803  0.3081
12278SOL    HW137615   6.110   1.659   5.781  2.6040 -1.6987 -0.9722
12278SOL    HW237616   6.150   1.744   5.663  1.0004 -3.2507 -2.6999
12279SOL     OW37617   6.055   6.623   7.315 -0.4718  0.0720  1.5008
12279SOL    HW137618   6.101   6.700   7.282 -0.7930  0.3575  1.7199
12279SOL    HW237619   6.104   6.597   7.393 -0.9943  0.6977  2.0439
12280SOL     OW37620   0.663   6.106   0.573  0.0353  0.4114  0.2902
12280SOL    HW137621   0.703   6.130   0.489 -1.1063 -3.0553 -1.4912
12280SOL    HW237622   0.583   6.158   0.577  0.2527  0.8493 -0.6727
12281SOL     OW37623   1.430   5.863   1.967  0.0184  0.3743 -0.3281
12281SOL    HW137624   1.412   5.786   2.022 -1.9386  0.3350 -0.9542
12281SOL    HW237625   1.387   5.936   2.013  1.3162  0.9968 -0.0686
12282SOL     OW37626   8.038   2.915   6.888  0.0905 -0.5122  0.3820
12282SOL    HW137627   7.967   2.967   6.850  0.5650  0.0076  0.1994
12282SOL    HW237628   7.994   2.837   6.921 -0.5244 -0.3542 -0.0262
12283SOL     OW37629   8.309   5.258   5.666  0.1137  0.1261  0.8534
12283SOL    HW137630   8.303   5.320   5.594 -0.2872 -1.3463 -0.4391
12283SOL    HW237631   8.220   5.254   5.702  0.5396  1.6699  2.1960
12284SOL     OW37632   6.774   7.871   6.623  0.3689 -0.1057 -0.7133
12284SOL    HW137633   6.704   7.935   6.638  1.6913  1.4763 -1.0205
12284SOL    HW237634   6.812   7.896   6.539 -0.5022 -2.7269 -2.0017
12285SOL     OW37635   3.861   1.677   7.825 -1.0247  0.0393 -0.1068
12285SOL    HW137636   3.839   1.720   7.908 -0.6990 -0.0475  0.0277
12285SOL    HW237637   3.894   1.747   7.769  1.8399 -0.3494  0.9260
12286SOL     OW37638   5.929   7.670   0.351  0.4640 -0.1101 -0.1857
12286SOL    HW137639   5.899   7.760   0.333  0.2818 -0.2561 -0.6407
12286SOL    HW237640   6.024   7.677   0.354  0.4237  0.2255  0.5144
12287SOL     OW37641   6.223   2.607   4.276  0.2313  0.6232 -0.5669
12287SOL    HW137642   6.255   2.529   4.321  1.1601  0.7003 -1.0811
12287SOL    HW237643   6.139   2.627   4.319  1.3806  1.0841  1.5855
12288SOL     OW37644   4.241   2.038   4.615 -0.1866 -0.3961  0.5219
12288SOL    HW137645   4.186   1.963   4.590 -2.1755  1.0755  0.3002
12288SOL    HW237646   4.312   2.037   4.551 -1.4580 -0.7503 -0.9413
12289SOL     OW37647   4.814   1.444   0.521  0.4657  0.4737  0.0479
12289SOL    HW137648   4.779   1.522   0.478  1.0295  0.2615 -0.8213
12289SOL    HW237649   4.742   1.380   0.518  0.6196  0.3438 -0.9014
12290SOL     OW37650   6.275   5.513   5.151  0.2485  0.0812  0.6012
12290SOL    HW137651   6.288   5.589   5.208  0.2382  0.0727  0.6144
12290SOL    HW237652   6.363   5.489   5.122  0.4691 -1.1242  2.1574
12291SOL     OW37653   1.294   2.556   7.537  0.6334  0.0490 -1.0929
12291SOL    HW137654   1.202   2.529   7.532 -0.3898  2.6166  1.3515
12291SOL    HW237655   1.337   2.484   7.584 -0.8620  0.1586  0.5779
12292SOL     OW37656   3.632   4.932   7.082  0.4760  0.0079 -0.0729
12292SOL    HW137657   3.563   4.974   7.133  2.5547  2.5153  0.8927
12292SOL    HW237658   3.665   5.001   7.025  3.6050 -0.3724  1.0816
12293SOL     OW37659   3.627   8.220   7.145  0.3299  0.0207  0.4282
12293SOL    HW137660   3.591   8.153   7.203 -0.5223  0.9935  1.0624
12293SOL    HW237661   3.587   8.203   7.060  1.6612 -1.4786  0.0606
12294SOL     OW37662   5.187   6.520   0.121 -0.1544  0.1870 -0.0805
12294SOL    HW137663   5.276   6.538   0.154  0.0306 -1.4858  0.4341
12294SOL    HW237664   5.189   6.427   0.098 -1.6051  0.2831 -0.6450
12295SOL     OW37665   4.268   3.058   4.939 -0.1663 -0.4999 -0.1621
12295SOL    HW137666   4.280   3.030   4.849  0.7416  0.5927 -0.4019
12295SOL    HW237667   4.304   2.986   4.991  1.8594  0.0032 -0.7595
12296SOL     OW37668   2.982   0.411   0.009 -0.2062 -0.3826 -0.2752
12296SOL    HW137669   2.921   0.485   0.006 -1.5013 -1.4372 -0.7241
12296SOL    HW237670   2.937   0.341  -0.037  0.8534 -1.5716  0.4395
12297SOL     OW37671   1.582   2.826   0.223 -0.4196 -0.0410 -0.0656
12297SOL    HW137672   1.597   2.767   0.150 -2.4181 -0.1200 -0.4740
12297SOL    HW237673   1.579   2.769   0.300  0.5544 -0.0838 -0.0399
12298SOL     OW37674   4.937   2.705   3.632  0.1729 -0.0063  0.4548
12298SOL    HW137675   5.016   2.759   3.632 -0.9345  1.7040  1.0185
12298SOL    HW237676   4.881   2.745   3.565 -0.0647 -1.4818 -0.2709
12299SOL     OW37677   2.802   0.307   3.159  0.8900 -0.4212 -0.0616
12299SOL    HW137678   2.873   0.252   3.126 -0.3837 -2.6997  0.7164
12299SOL    HW237679   2.749   0.327   3.082  0.8143 -1.2046 -0.2197
12300SOL     OW37680   7.916   0.068   2.180 -0.4173  0.6991 -0.5469
12300SOL    HW137681   7.915   0.061   2.276  3.8938  1.7005 -0.2336
12300SOL    HW237682   7.824   0.060   2.155 -1.6003 -1.2374  3.5013
12301SOL     OW37683   3.528   6.984   7.767  0.4986 -0.2675  0.0997
12301SOL    HW137684   3.568   7.058   7.812 -0.3700 -0.2698  0.9070
12301SOL    HW237685   3.548   6.908   7.821 -0.5037 -0.2791  0.4724
12302SOL     OW37686   1.030   4.952   4.895  0.1034 -0.1595 -0.2984
12302SOL    HW137687   1.099   4.940   4.830 -0.9731  1.0128 -1.7159
12302SOL    HW237688   0.951   4.916   4.854 -0.1822 -1.4604  1.2918
12303SOL     OW37689   4.672   0.698   0.213 -0.0614 -0.8345 -0.0494
12303SOL    HW137690   4.713   0.675   0.297 -1.4639  0.3544  1.0149
12303SOL    HW237691   4.743   0.738   0.162  0.5121 -0.2892  1.1258
12304SOL     OW37692   0.873   2.225   8.045 -0.2634 -0.0066  0.4231
12304SOL    HW137693   0.890   2.286   8.116  0.4371  1.1964 -0.7259
12304SOL    HW237694   0.894   2.138   8.081 -0.6351  0.4979  1.8786
12305SOL     OW37695   7.847   0.807   3.577  0.1620  0.6122 -0.4748
12305SOL    HW137696   7.864   0.751   3.502 -2.1760  1.0399 -1.4201
12305SOL    HW237697   7.793   0.754   3.636  1.4524  0.4921  0.6512
12306SOL     OW37698   8.322   6.826   2.580  0.1844  0.1192 -0.3435
12306SOL    HW137699   8.231   6.836   2.552 -0.6570 -2.1978  1.2454
12306SOL    HW237700   8.359   6.762   2.519 -0.1096 -1.0166  0.6345
12307SOL     OW37701   0.963   5.785   7.673  0.2613 -0.3080 -0.1313
12307SOL    HW137702   0.951   5.880   7.667  1.9653 -0.1179 -1.3331
12307SOL    HW237703   0.886   5.748   7.629  0.0082  0.5594 -0.4350
12308SOL     OW37704   3.521   6.819   8.193 -0.3525 -0.0218 -0.0529
12308SOL    HW137705   3.522   6.844   8.101 -1.3177 -0.4828 -0.2040
12308SOL    HW237706   3.576   6.741   8.198 -1.3376 -0.7713 -0.4970
12309SOL     OW37707   1.021   3.633   2.469 -0.0691 -0.5518  0.2339
12309SOL    HW137708   0.928   3.619   2.487  0.3327 -2.9316  0.7673
12309SOL    HW237709   1.042   3.570   2.400  0.9457  0.6877 -0.6395
12310SOL     OW37710   6.155   1.045   2.915  0.1372 -0.4538 -0.2477
12310SOL    HW137711   6.237   1.071   2.872 -0.8319  3.2185 -0.1915
12310SOL    HW237712   6.102   1.007   2.845  0.6830  0.2597 -1.0697
12311SOL     OW37713   0.884   1.996   1.601  0.1374  0.6221  0.5036
12311SOL    HW137714   0.815   1.941   1.565 -0.2882  2.4588 -1.7099
12311SOL    HW237715   0.951   1.934   1.631 -1.0066 -1.1158 -0.3827
12312SOL     OW37716   1.622   5.079   6.568 -0.3711  0.3473  0.6855
12312SOL    HW137717   1.708   5.042   6.549 -0.5656 -0.3418  1.1076
12312SOL    HW237718   1.563   5.034   6.507 -0.5506  0.2231  0.9485
12313SOL     OW37719   3.374   1.067   8.245 -0.0034  0.0193 -0.3588
12313SOL    HW137720   3.291   1.033   8.277  0.5422 -0.3157  0.7730
12313SOL    HW237721   3.440   1.007   8.281  0.7058  0.0070 -1.6133
12314SOL     OW37722   4.858   0.851   0.091 -0.3085  0.0489  0.3681
12314SOL    HW137723   4.863   0.916   0.161  0.4924 -0.0285  0.3860
12314SOL    HW237724   4.942   0.857   0.046 -0.7904  0.0713 -0.5687
12315SOL     OW37725   8.128   3.541   0.010  0.4069  0.7828  0.9388
12315SOL    HW137726   8.198   3.503   0.063  0.4093  0.8642  0.9936
12315SOL    HW237727   8.067   3.468  -0.004  1.1629  0.3435 -0.2396
12316SOL     OW37728   6.079   0.149   3.270 -0.2255  0.0545 -0.2824
12316SOL    HW137729   6.144   0.093   3.228  1.0165  1.4391 -0.3135
12316SOL    HW237730   6.131   0.213   3.319 -1.5226  1.8259 -1.1063
12317SOL     OW37731   6.673   1.102   2.635 -0.5969 -0.2520 -0.3880
12317SOL    HW137732   6.697   1.010   2.620  2.0260  0.7240 -3.4310
12317SOL    HW237733   6.617   1.124   2.561 -1.6675  0.5017  0.6256
12318SOL     OW37734   2.370   5.948   1.383  0.2620 -0.0352 -0.2732
12318SOL    HW137735   2.386   6.040   1.404 -0.2156 -0.4238  2.0733
12318SOL    HW237736   2.393   5.940   1.290 -1.1903  2.7863 -0.9847
12319SOL     OW37737   2.862   8.108   1.373 -0.4882  0.1174 -0.1694
12319SOL    HW137738   2.928   8.039   1.375 -0.3915  0.1878 -0.6882
12319SOL    HW237739   2.782   8.065   1.405 -0.4089 -0.2174 -0.4072
12320SOL     OW37740   4.943   1.149   5.928  0.0230  0.4268 -0.1854
12320SOL    HW137741   4.978   1.157   6.017  0.4963  1.3294 -0.4397
12320SOL    HW237742   4.868   1.209   5.926  1.4488  2.2736 -1.0691
12321SOL     OW37743   2.733   0.005   0.691  0.2904 -0.7839  0.1276
12321SOL    HW137744   2.798   0.051   0.745 -0.1249  0.7559 -0.6046
12321SOL    HW237745   2.776  -0.006   0.607 -0.3646  0.2420 -0.3606
12322SOL     OW37746   2.567   3.412   6.749  0.0108 -0.1495  0.6370
12322SOL    HW137747   2.534   3.483   6.803 -1.2069 -0.4037  0.2690
12322SOL    HW237748   2.527   3.333   6.786  0.5088 -0.5192  0.3984
12323SOL     OW37749   1.442   3.401   2.433  0.0988 -0.2794  0.0228
12323SOL    HW137750   1.417   3.396   2.340  0.7221 -0.2444 -0.1514
12323SOL    HW237751   1.362   3.428   2.478 -0.0347  0.3832 -0.5919
12324SOL     OW37752   6.604   0.612   0.830  0.4227 -0.1939  0.2817
12324SOL    HW137753   6.631   0.625   0.921  0.8560  0.2955  0.0890
12324SOL    HW237754   6.567   0.696   0.804 -1.7472 -0.9630  0.6715
12325SOL     OW37755   6.054   1.520   7.932 -0.3793  0.3404  0.0933
12325SOL    HW137756   6.027   1.598   7.884  2.1860  1.1524 -0.2119
12325SOL    HW237757   6.081   1.458   7.864  1.8078  0.9186  0.3586
12326SOL     OW37758   2.860   6.448   1.298  0.6372  0.1965 -0.6084
12326SOL    HW137759   2.844   6.538   1.270 -1.3834  0.5740  1.5001
12326SOL    HW237760   2.914   6.457   1.377 -1.7061 -0.1857  1.1380
12327SOL     OW37761   5.338   0.795   1.657  0.4397  0.2281  0.2980
12327SOL    HW137762   5.430   0.792   1.682  1.0681 -2.4988 -1.8558
12327SOL    HW237763   5.338   0.778   1.563 -2.2470  1.2634  0.0047
12328SOL     OW37764   2.286   0.363   0.365 -0.0113 -0.3616  0.4160
12328SOL    HW137765   2.377   0.335   0.357 -0.6189 -2.2585 -0.2260
12328SOL    HW237766   2.236   0.282   0.378 -1.9679  0.2274 -2.4093
12329SOL     OW37767   4.553   4.733   6.325  0.2973 -0.4435 -0.1708
12329SOL    HW137768   4.558   4.702   6.234  1.4860 -1.6407  0.2621
12329SOL    HW237769   4.476   4.690   6.360 -0.5908  0.5966 -0.7943
12330SOL     OW37770   4.412   4.465   6.360 -0.1336  0.2017  0.5928
12330SOL    HW137771   4.473   4.427   6.298 -1.6378  0.3475 -1.0429
12330SOL    HW237772   4.450   4.447   6.446  1.2673 -1.2855 -0.3072
12331SOL     OW37773   7.195   6.839   0.927 -0.4725  0.3430  0.4938
12331SOL    HW137774   7.231   6.888   1.000  1.4603  0.3754 -0.4090
12331SOL    HW237775   7.233   6.880   0.849 -0.5305 -1.1835 -0.3937
12332SOL     OW37776   8.110   7.857   2.074 -0.3121 -0.3820  0.3293
12332SOL    HW137777   8.200   7.857   2.108 -0.2476  0.2806  0.1638
12332SOL    HW237778   8.120   7.874   1.981 -0.6020 -0.5294  0.2719
12333SOL     OW37779   5.639   5.943   6.825  0.7349 -0.3342 -0.4862
12333SOL    HW137780   5.592   5.860   6.834  0.9045 -0.2980  0.9018
12333SOL    HW237781   5.610   5.977   6.740  1.2333 -2.1556 -1.4432
12334SOL     OW37782   3.689   1.663   4.096 -0.4469  0.1892 -0.6190
12334SOL    HW137783   3.634   1.655   4.174 -0.7281  1.7940 -0.6149
12334SOL    HW237784   3.672   1.583   4.047 -1.5354 -0.1060  0.1869
12335SOL     OW37785   1.687   2.859   1.418  0.3289  0.6310 -0.3616
12335SOL    HW137786   1.617   2.914   1.453 -0.9718 -0.1129 -1.6468
12335SOL    HW237787   1.740   2.835   1.493 -1.8329 -0.2150  0.9808
12336SOL     OW37788   7.359   6.393   5.241 -0.7811  0.3196  0.5299
12336SOL    HW137789   7.312   6.334   5.299  0.3980  0.7010  1.9474
12336SOL    HW237790   7.334   6.481   5.270 -0.9985  0.5287 -0.2578
12337SOL     OW37791   2.759   5.010   1.039  0.3125 -0.5014  0.5309
12337SOL    HW137792   2.791   5.094   1.074 -0.4028 -0.3294  0.7906
12337SOL    HW237793   2.753   5.025   0.944  0.4407 -0.3464  0.5461
12338SOL     OW37794   3.437   7.738   4.208  0.5339 -0.0102  0.3132
12338SOL    HW137795   3.360   7.700   4.252  1.2911 -1.9852  0.0487
12338SOL    HW237796   3.496   7.663   4.195  1.5859  1.0627 -1.4104
12339SOL     OW37797   5.542   3.287   1.703 -0.0403  0.2344  0.6494
12339SOL    HW137798   5.514   3.199   1.678  0.5050  0.6317 -1.4842
12339SOL    HW237799   5.463   3.327   1.741 -0.2926 -1.1271  1.6695
12340SOL     OW37800   3.409   3.053   3.242  0.4895 -0.0686 -0.1994
12340SOL    HW137801   3.427   3.012   3.327 -0.4273  1.2641  0.6736
12340SOL    HW237802   3.386   2.980   3.185  2.4253 -1.1437  0.3053
12341SOL     OW37803   1.460   6.974   2.355  0.4308  0.3115  0.4324
12341SOL    HW137804   1.544   6.933   2.336  1.1198  0.8896  2.0777
12341SOL    HW237805   1.422   6.993   2.269  0.7210 -2.4213 -0.3831
12342SOL     OW37806   5.351   0.291   4.328 -0.1056 -0.0363  0.2370
12342SOL    HW137807   5.258   0.274   4.344  0.6138 -2.3942  2.6928
12342SOL    HW237808   5.386   0.207   4.300  1.5066  0.5154  0.5134
12343SOL     OW37809   0.216   3.178   4.479 -0.5166 -0.4766 -0.7752
12343SOL    HW137810   0.305   3.175   4.441  0.4495 -0.8848  1.3809
12343SOL    HW237811   0.204   3.092   4.519 -0.6609  0.5585  1.5279
12344SOL     OW37812   2.679   8.172   6.858 -0.2519 -0.0635 -0.1615
12344SOL    HW137813   2.644   8.149   6.944  1.1730 -0.7854  0.2564
12344SOL    HW237814   2.727   8.253   6.873  1.1018 -0.8700  0.0481
12345SOL     OW37815   1.859   0.624   4.564  0.8428  0.2909 -0.4410
12345SOL    HW137816   1.901   0.541   4.542  0.5263  0.3149 -1.1574
12345SOL    HW237817   1.799   0.641   4.491  1.0320  1.2401 -0.3926
12346SOL     OW37818   2.905   6.610   7.853 -0.4536 -0.4756 -0.8728
12346SOL    HW137819   2.870   6.522   7.834 -0.0631 -1.2473  1.6503
12346SOL    HW237820   2.995   6.606   7.822 -1.1297 -0.0672 -3.0580
12347SOL     OW37821   2.208   5.713   5.809 -0.5822  0.4692 -0.2282
12347SOL    HW137822   2.153   5.662   5.749 -1.0174 -1.0101  1.3631
12347SOL    HW237823   2.159   5.794   5.822 -2.7778 -1.0325  1.5798
12348SOL     OW37824   2.265   2.046   0.465 -0.8206 -0.6156  0.3212
12348SOL    HW137825   2.284   2.120   0.523  1.0299 -0.7679 -0.0402
12348SOL    HW237826   2.171   2.053   0.448 -0.8375  1.1778  0.9220
12349SOL     OW37827   7.382   6.546   0.600 -0.0492  0.0259  0.4152
12349SOL    HW137828   7.458   6.493   0.578 -0.7769 -1.4706  1.3326
12349SOL    HW237829   7.410   6.636   0.583  0.9341 -0.6508 -2.0701
12350SOL     OW37830   4.787   0.143   1.636 -0.1400 -0.4317  0.1741
12350SOL    HW137831   4.852   0.171   1.572  0.4961  3.4643  2.2335
12350SOL    HW237832   4.713   0.113   1.584  0.6593  1.6967 -2.3974
12351SOL     OW37833   0.584   7.605   2.251  0.1723  0.0865  0.1421
12351SOL    HW137834   0.503   7.655   2.259 -0.4027 -0.8975  0.6519
12351SOL    HW237835   0.603   7.604   2.157  0.0021  0.9575  0.0969
12352SOL     OW37836   3.205   4.477   2.657 -0.2750 -0.4412  0.4350
12352SOL    HW137837   3.236   4.429   2.581  2.0511 -0.1589  1.1239
12352SOL    HW237838   3.284   4.512   2.698 -1.5441  0.4921  2.2730
12353SOL     OW37839   3.517   5.434   3.446  0.8013  0.3653  0.1387
12353SOL    HW137840   3.465   5.356   3.428 -1.0669  1.5081  0.2961
12353SOL    HW237841   3.534   5.471   3.359  0.2868  0.6291  0.1453
12354SOL     OW37842   3.586   4.753   1.391  0.4987 -0.3349  0.2567
12354SOL    HW137843   3.590   4.814   1.465 -0.4911  0.4656 -0.3319
12354SOL    HW237844   3.541   4.676   1.426 -1.1393  0.5473  0.1753
12355SOL     OW37845   2.454   0.742   6.708 -0.0362  0.1495  0.2379
12355SOL    HW137846   2.538   0.775   6.738 -0.2070 -0.1878  1.1385
12355SOL    HW237847   2.419   0.811   6.652  0.9520  0.1767 -0.3631
12356SOL     OW37848   3.876   6.934   6.337 -0.1380 -0.2719 -0.1542
12356SOL    HW137849   3.948   6.996   6.347  0.0985 -0.7715  1.5300
12356SOL    HW237850   3.909   6.870   6.274  0.4725  0.0880 -0.2145
12357SOL     OW37851   5.790   1.619   4.668 -0.0366 -0.0736  0.0562
12357SOL    HW137852   5.837   1.677   4.608  1.5613 -0.3690  0.9466
12357SOL    HW237853   5.858   1.586   4.727 -1.5329  0.2150  2.0452
12358SOL     OW37854   3.379   4.118   6.836 -0.0963  0.5308 -0.2174
12358SOL    HW137855   3.316   4.077   6.895 -0.5929 -0.4035 -1.3715
12358SOL    HW237856   3.463   4.082   6.861  0.0106  1.6903  1.2528
12359SOL     OW37857   2.205   1.418   0.393  0.1849  0.0522 -0.6774
12359SOL    HW137858   2.270   1.348   0.398  0.4398  0.1442 -2.2259
12359SOL    HW237859   2.121   1.375   0.412  0.0693 -1.1499 -3.3694
12360SOL     OW37860   3.567   5.136   5.520  0.0126 -0.6365  0.0069
12360SOL    HW137861   3.497   5.072   5.508  0.7587 -1.4641  0.0109
12360SOL    HW237862   3.645   5.084   5.542  0.6099  0.2719  0.1161
12361SOL     OW37863   7.528   6.550   5.453 -0.0469  0.0493 -0.1125
12361SOL    HW137864   7.552   6.503   5.374 -0.6872  0.0626 -0.3268
12361SOL    HW237865   7.442   6.588   5.433  0.0629  0.5758  0.3638
12362SOL     OW37866   4.197   5.623   3.299  0.5540 -0.3221 -0.4168
12362SOL    HW137867   4.131   5.579   3.352 -0.4684 -1.7882 -2.6975
12362SOL    HW237868   4.269   5.560   3.293  0.8676  0.0306 -0.3233
12363SOL     OW37869   3.626   5.286   0.737 -0.2259 -0.2938 -0.1866
12363SOL    HW137870   3.609   5.359   0.677  1.1493  0.0981 -0.1235
12363SOL    HW237871   3.674   5.325   0.810 -0.1357 -1.1344  0.2142
12364SOL     OW37872   2.873   8.220   0.483  0.4004 -0.0129 -0.3295
12364SOL    HW137873   2.945   8.159   0.470  0.8586  0.4592 -0.0551
12364SOL    HW237874   2.893   8.294   0.425 -0.2439 -0.1955 -0.8015
12365SOL     OW37875   5.706   7.274   1.220 -0.1349 -0.8610 -0.2111
12365SOL    HW137876   5.640   7.330   1.260  0.0172 -0.4697 -0.4969
12365SOL    HW237877   5.768   7.256   1.291 -1.2789 -2.4043  0.4405
12366SOL     OW37878   4.842   7.274   0.096 -0.2319 -0.2358 -0.0887
12366SOL    HW137879   4.886   7.192   0.120 -0.0177  0.2941  1.4553
12366SOL    HW237880   4.776   7.248   0.032  1.0734 -1.3248 -1.0529
12367SOL     OW37881   7.921   4.867   0.605  0.3915 -0.6695  0.3478
12367SOL    HW137882   8.003   4.823   0.581  0.7175  0.3332 -0.4310
12367SOL    HW237883   7.947   4.957   0.625 -0.8261  0.4166 -2.5005
12368SOL     OW37884   1.773   4.874   0.185 -0.0899  0.1626  0.3428
12368SOL    HW137885   1.682   4.872   0.216 -0.5820 -0.0086 -1.0034
12368SOL    HW237886   1.765   4.897   0.092  1.1859 -0.5806  0.0275
12369SOL     OW37887   0.546   5.761   2.936 -0.0221  0.2488  0.6861
12369SOL    HW137888   0.478   5.826   2.920 -0.4540 -0.1161  1.0155
12369SOL    HW237889   0.605   5.803   2.999 -0.4026  0.2519  1.0436
12370SOL     OW37890   2.965   1.081   0.167  0.3022 -0.2947 -0.7040
12370SOL    HW137891   3.024   1.037   0.228 -0.5592 -0.0725  0.3157
12370SOL    HW237892   2.889   1.023   0.161 -0.0295  0.1476 -0.8156
12371SOL     OW37893   3.658   2.179   5.937  0.2716  0.4646 -0.3899
12371SOL    HW137894   3.646   2.192   5.842  0.1226  0.1942 -0.4087
12371SOL    HW237895   3.673   2.267   5.971  2.5007  0.3692 -0.9612
12372SOL     OW37896   7.185   3.973   1.354 -0.3503 -0.2173  0.6325
12372SOL    HW137897   7.233   4.054   1.370 -0.2529 -0.2297  0.4037
12372SOL    HW237898   7.104   4.002   1.311  0.7076 -0.4184 -1.5920
12373SOL     OW37899   0.292   3.824   7.632  0.5491  0.2152  0.0934
12373SOL    HW137900   0.243   3.898   7.599  1.0867 -0.4310 -2.3485
12373SOL    HW237901   0.228   3.753   7.640  0.5740  0.1271 -0.4632
12374SOL     OW37902   7.168   7.417   1.459 -0.2710 -0.3259  0.0266
12374SOL    HW137903   7.179   7.499   1.411 -0.4594 -0.0932  0.3802
12374SOL    HW237904   7.232   7.358   1.419 -0.7388 -0.2815 -0.8299
12375SOL     OW37905   6.017   2.686   6.691  0.1624  0.1124 -0.0955
12375SOL    HW137906   5.923   2.697   6.681  0.6204  5.2894 -1.8812
12375SOL    HW237907   6.031   2.676   6.785 -2.1078  1.1768  0.4165
12376SOL     OW37908   4.886   2.288   6.710 -0.0499 -0.2011  0.2284
12376SOL    HW137909   4.914   2.350   6.776  0.5665  1.1635 -1.2526
12376SOL    HW237910   4.812   2.331   6.667 -0.3490 -0.9965 -0.0670
12377SOL     OW37911   5.422   7.218   0.485  0.8137  0.3599  0.1341
12377SOL    HW137912   5.457   7.158   0.551 -2.9331 -2.1528  0.1720
12377SOL    HW237913   5.393   7.294   0.535 -0.3255 -0.7235  1.1813
12378SOL     OW37914   3.298   3.428   6.371  0.4269 -0.7751  0.4763
12378SOL    HW137915   3.366   3.392   6.429 -0.5099 -0.3203  1.9294
12378SOL    HW237916   3.217   3.386   6.400  0.0184 -1.0974 -1.0402
12379SOL     OW37917   2.214   0.637   2.807  0.0913  0.1501 -0.1549
12379SOL    HW137918   2.281   0.591   2.858  0.9598 -0.9452 -2.1322
12379SOL    HW237919   2.151   0.569   2.784  0.5749  0.2051 -1.8239
12380SOL     OW37920   4.240   1.091   3.520 -0.1248  0.0191  0.0453
12380SOL    HW137921   4.152   1.100   3.558  0.3202  1.4614  0.8454
12380SOL    HW237922   4.267   1.182   3.502  1.6663 -0.2732  0.9733
12381SOL     OW37923   4.449   7.438   3.442  0.4044  0.1281 -0.0274
12381SOL    HW137924   4.370   7.414   3.395  0.1774 -4.0725  2.0536
12381SOL    HW237925   4.519   7.390   3.398  1.4608  1.8298 -0.3113
12382SOL     OW37926   1.752   4.140   6.744  0.6568 -0.1551  0.2951
12382SOL    HW137927   1.835   4.153   6.790  0.7656  1.8645 -0.3636
12382SOL    HW237928   1.703   4.080   6.800  1.6866  0.3555  1.8286
12383SOL     OW37929   3.277   3.291   6.134 -0.4987 -0.2790 -0.0639
12383SOL    HW137930   3.190   3.289   6.093 -0.4146 -1.6173 -0.2245
12383SOL    HW237931   3.270   3.357   6.202 -2.7452 -2.6845  2.2858
12384SOL     OW37932   7.135   6.643   8.111 -0.1386  0.6540 -0.0955
12384SOL    HW137933   7.132   6.680   8.022 -0.2592 -0.0481 -0.3897
12384SOL    HW237934   7.043   6.641   8.139 -0.1016  0.8666  0.0446
12385SOL     OW37935   7.182   0.119   4.222  0.6172  0.3576  0.2953
12385SOL    HW137936   7.155   0.146   4.134  0.6345 -1.3379 -0.2749
12385SOL    HW237937   7.108   0.142   4.278 -0.2569 -0.3695 -0.5232
12386SOL     OW37938   6.995   5.688   7.770 -0.2213  0.4426 -0.0485
12386SOL    HW137939   6.984   5.779   7.796 -1.4587 -0.0271  1.1583
12386SOL    HW237940   6.913   5.665   7.727  0.2158 -0.0206 -0.6640
12387SOL     OW37941   0.386   2.211   4.237  0.5062  0.1212 -0.3312
12387SOL    HW137942   0.354   2.253   4.157 -0.3184 -2.0139 -1.2108
12387SOL    HW237943   0.307   2.188   4.285  0.9868  1.0286  0.9623
12388SOL     OW37944   6.983   3.394   2.986  0.2258  0.0284  0.2589
12388SOL    HW137945   6.941   3.399   3.072 -0.8060  3.3986 -0.2801
12388SOL    HW237946   7.048   3.464   2.987 -0.1722  0.4983 -1.8425
12389SOL     OW37947   2.183   3.975   0.902 -0.0617  0.3152  0.3818
12389SOL    HW137948   2.167   3.990   0.809  2.7471  1.3141 -0.0455
12389SOL    HW237949   2.096   3.965   0.940 -1.2862 -0.4659 -2.3747
12390SOL     OW37950   6.552   2.870   4.396 -0.4556 -0.4768 -0.1910
12390SOL    HW137951   6.498   2.792   4.407 -3.3942  1.3879 -0.4813
12390SOL    HW237952   6.506   2.939   4.443  1.8696  1.2164 -0.1901
12391SOL     OW37953   7.879   0.064   4.307  0.2688  0.4307 -0.3824
12391SOL    HW137954   7.893   0.148   4.351  0.7863  0.3551 -0.3959
12391SOL    HW237955   7.957   0.052   4.253  0.4554 -0.3160  0.0456
12392SOL     OW37956   1.753   3.976   5.918 -0.3966  0.6141 -0.6585
12392SOL    HW137957   1.782   3.910   5.855  1.6947  0.9501 -0.1022
12392SOL    HW237958   1.662   3.952   5.937  0.7161 -3.1326  0.7850
12393SOL     OW37959   4.044   7.242   2.336  0.2572 -0.4590  0.3102
12393SOL    HW137960   4.001   7.167   2.296 -1.3391  0.2720  0.5803
12393SOL    HW237961   4.048   7.308   2.266  0.8973 -0.4903  0.3081
12394SOL     OW37962   0.167   3.628   2.818  0.4902 -0.0354 -0.6201
12394SOL    HW137963   0.125   3.713   2.830  4.4290  2.0065  0.6700
12394SOL    HW237964   0.154   3.607   2.725 -1.0321  1.7034 -0.8433
12395SOL     OW37965   5.735   1.217   6.938 -0.2437 -0.0241 -0.1766
12395SOL    HW137966   5.783   1.245   7.016  0.5737  0.1714 -0.7349
12395SOL    HW237967   5.674   1.150   6.970 -0.1996  0.3403  0.6918
12396SOL     OW37968   1.109   0.289   1.561 -0.3597  0.4283  0.5439
12396SOL    HW137969   1.092   0.372   1.516 -0.3659 -0.3444 -0.9165
12396SOL    HW237970   1.183   0.308   1.619 -0.3011  1.4356  0.1533
12397SOL     OW37971   2.815   0.089   6.877 -0.5658  0.0624  0.1322
12397SOL    HW137972   2.791   0.166   6.928 -0.7782  0.3189 -0.3487
12397SOL    HW237973   2.909   0.078   6.893 -0.6174  0.1753  0.5254
12398SOL     OW37974   2.586   3.421   3.933 -0.1780  0.0398  0.6942
12398SOL    HW137975   2.622   3.506   3.907 -0.2767 -0.4491 -1.1896
12398SOL    HW237976   2.584   3.370   3.852 -1.4847 -1.2735  1.5031
12399SOL     OW37977   5.475   3.977   7.036  0.0626  0.1266  0.2507
12399SOL    HW137978   5.419   4.053   7.045 -1.4814 -1.1066  1.7228
12399SOL    HW237979   5.423   3.915   6.984 -0.3765 -1.3381  2.2907
12400SOL     OW37980   3.629   3.667   3.573 -0.0565  0.2093 -0.4474
12400SOL    HW137981   3.709   3.626   3.540 -0.5910 -0.0637 -1.4591
12400SOL    HW237982   3.586   3.597   3.623 -0.1249  0.0626 -0.7090
12401SOL     OW37983   5.741   3.691   6.030 -0.2833  0.4022  0.0460
12401SOL    HW137984   5.831   3.658   6.026 -0.3826  0.1117  0.2324
12401SOL    HW237985   5.709   3.663   6.116 -1.2962 -1.3978 -0.8643
12402SOL     OW37986   6.690   1.482   4.466 -0.0765  0.4765 -0.1942
12402SOL    HW137987   6.776   1.474   4.426  0.1605  0.5407  0.3014
12402SOL    HW237988   6.685   1.410   4.529 -1.6623 -1.5905 -2.5006
12403SOL     OW37989   3.728   4.784   0.691  0.7791 -0.3197 -0.3497
12403SOL    HW137990   3.650   4.751   0.735  0.2083 -2.2214 -2.5624
12403SOL    HW237991   3.799   4.728   0.722  0.9023  0.1150  0.1651
12404SOL     OW37992   4.135   5.147   7.374  0.5940  0.9329  0.2517
12404SOL    HW137993   4.043   5.147   7.399  0.4102  1.6885 -0.3995
12404SOL    HW237994   4.136   5.178   7.283  1.4155  0.1024 -0.0452
12405SOL     OW37995   0.314   4.221   8.080  0.5403  0.1405 -0.0735
12405SOL    HW137996   0.349   4.239   7.993 -1.7311  0.0385 -1.0687
12405SOL    HW237997   0.219   4.221   8.069  0.1953 -0.7661  2.2359
12406SOL     OW37998   4.845   5.641   7.769 -0.0942 -0.2632  0.2837
12406SOL    HW137999   4.786   5.638   7.694  0.0122 -0.1414  0.1935
12406SOL    HW238000   4.930   5.615   7.733  0.1040  0.4696  0.2169
12407SOL     OW38001   8.090   7.935   1.806 -0.3592  0.3860 -0.3574
12407SOL    HW138002   7.995   7.926   1.794 -0.3802  2.1977 -2.0189
12407SOL    HW238003   8.128   7.868   1.749 -0.6167  0.2193 -0.3351
12408SOL     OW38004   4.182   0.770   6.891  0.1965 -0.4075 -0.1835
12408SOL    HW138005   4.135   0.731   6.818  1.7588 -0.5631 -1.1299
12408SOL    HW238006   4.273   0.776   6.862  1.0075 -1.1504  2.0148
12409SOL     OW38007   2.023   1.097   1.637 -0.3310 -0.2189  0.1883
12409SOL    HW138008   2.037   1.003   1.627 -1.1304 -0.2007 -1.4183
12409SOL    HW238009   1.979   1.106   1.722  1.0411 -1.1155  1.0308
12410SOL     OW38010   0.830   5.215   4.877  0.3430 -0.0321  0.1609
12410SOL    HW138011   0.762   5.202   4.811  0.0297  0.0471  0.4581
12410SOL    HW238012   0.910   5.180   4.838  0.2981  0.5779 -0.5004
12411SOL     OW38013   2.587   1.111   4.058  0.1088 -0.1366  0.4314
12411SOL    HW138014   2.514   1.158   4.018 -0.4113 -1.8750 -0.7881
12411SOL    HW238015   2.655   1.177   4.068 -0.6879  0.9495 -0.9355
12412SOL     OW38016   3.506   4.812   2.126 -0.1212 -0.1794  0.3277
12412SOL    HW138017   3.556   4.851   2.054 -1.1394 -1.0860 -0.9022
12412SOL    HW238018   3.416   4.841   2.111 -0.4422 -0.8666  0.8992
12413SOL     OW38019   4.646   1.223   8.182  0.0074 -0.3010  0.4023
12413SOL    HW138020   4.694   1.141   8.191  0.8283  0.3287  2.1823
12413SOL    HW238021   4.715   1.290   8.175 -0.6437  0.3171 -0.2987
12414SOL     OW38022   1.411   7.524   3.849  0.2053  0.0624  0.5600
12414SOL    HW138023   1.371   7.465   3.785  1.1713 -1.4236  1.2737
12414SOL    HW238024   1.506   7.515   3.835  0.3974  0.8752  1.2006
12415SOL     OW38025   1.096   0.504   4.110 -0.1385  0.2409 -0.4357
12415SOL    HW138026   1.028   0.572   4.116  0.9921  1.5269 -1.4467
12415SOL    HW238027   1.153   0.521   4.185 -0.6034 -0.4650  0.0803
12416SOL     OW38028   4.288   1.553   2.476 -0.3835 -0.1567 -0.5593
12416SOL    HW138029   4.293   1.458   2.462  0.5364  0.0467 -1.8166
12416SOL    HW238030   4.243   1.586   2.398  0.0446  0.5065 -0.5325
12417SOL     OW38031   7.860   0.010   5.059  0.3432  0.0012  0.2073
12417SOL    HW138032   7.774  -0.013   5.024 -0.1349 -0.2620  1.5073
12417SOL    HW238033   7.847   0.097   5.097  0.7999  0.1879 -0.0538
12418SOL     OW38034   2.531   0.783   7.010  0.0414 -0.4367 -0.4030
12418SOL    HW138035   2.595   0.713   6.996  0.2854 -0.5984  1.3560
12418SOL    HW238036   2.461   0.741   7.059 -0.0281  0.4505  0.2661
12419SOL     OW38037   5.646   0.789   1.049  0.1621 -0.1596 -0.8434
12419SOL    HW138038   5.680   0.879   1.045 -0.6979  0.1487 -1.5538
12419SOL    HW238039   5.705   0.739   0.993  0.6232 -0.0318 -0.4779
12420SOL     OW38040   0.220   5.787   2.294  0.1906 -0.2308  0.1054
12420SOL    HW138041   0.256   5.701   2.318  0.8572 -0.0131 -0.1133
12420SOL    HW238042   0.138   5.766   2.249 -0.5747 -0.6884  1.6401
12421SOL     OW38043   7.310   5.621   4.905  0.0550 -0.3984  0.6827
12421SOL    HW138044   7.307   5.581   4.992  0.4002 -1.1048  0.3785
12421SOL    HW238045   7.310   5.546   4.845 -0.3091  0.0867  0.0720
12422SOL     OW38046   1.709   6.714   4.403  0.1473 -0.4568  0.3579
12422SOL    HW138047   1.639   6.761   4.358  0.4137  0.2110  0.6385
12422SOL    HW238048   1.729   6.640   4.345 -1.3026 -1.0847  0.6330
12423SOL     OW38049   7.120   3.896   1.010  0.1181 -0.6469  1.2431
12423SOL    HW138050   7.069   3.883   1.090 -0.0920 -0.3108  1.1674
12423SOL    HW238051   7.059   3.875   0.939  0.3760 -1.1825  1.1723
12424SOL     OW38052   7.845   6.984   4.619 -0.1877 -0.7025 -0.1226
12424SOL    HW138053   7.933   6.997   4.582  0.6041  0.5552  2.0058
12424SOL    HW238054   7.829   6.890   4.610  1.7067 -1.0924  0.1115
12425SOL     OW38055   0.991   6.645   2.247  0.4097 -0.2810 -0.0483
12425SOL    HW138056   0.989   6.610   2.158  0.0017 -0.6028  0.0828
12425SOL    HW238057   1.051   6.719   2.243 -1.3526  1.1902 -1.1254
12426SOL     OW38058   8.165   1.952   5.926  0.0177  0.4029  0.9200
12426SOL    HW138059   8.087   1.899   5.915  1.2157 -1.3059  0.2172
12426SOL    HW238060   8.172   2.002   5.844 -0.3479  0.5896  1.0027
12427SOL     OW38061   2.429   7.026   7.955 -0.1845 -0.5568 -0.3342
12427SOL    HW138062   2.503   7.046   8.013  0.4199 -1.4498 -0.7674
12427SOL    HW238063   2.435   7.090   7.885 -0.0048 -0.4293 -0.2028
12428SOL     OW38064   5.037   4.402   1.099 -0.4699 -0.0028  0.0762
12428SOL    HW138065   5.063   4.483   1.144 -0.3495  0.6188 -1.0775
12428SOL    HW238066   5.102   4.337   1.127  0.1031  0.5852  0.1363
12429SOL     OW38067   2.235   3.840   5.063  0.3335 -0.2013 -0.5672
12429SOL    HW138068   2.294   3.911   5.088  1.0287 -0.4974 -1.3114
12429SOL    HW238069   2.226   3.787   5.142 -0.5961  0.9747  0.1449
12430SOL     OW38070   3.936   3.312   0.886 -0.8962 -0.2629  0.5433
12430SOL    HW138071   3.891   3.372   0.946 -0.2591  0.4943  0.2802
12430SOL    HW238072   4.014   3.359   0.859 -1.1833 -0.5859 -0.9096
12431SOL     OW38073   7.740   5.479   7.130 -0.0648  0.3360 -0.0647
12431SOL    HW138074   7.686   5.423   7.074  0.0619  1.6176 -1.5316
12431SOL    HW238075   7.742   5.433   7.214 -0.9799 -1.2218 -0.8361
12432SOL     OW38076   3.322   2.967   0.258  0.4419  0.2780  0.3624
12432SOL    HW138077   3.358   2.924   0.336 -1.2994 -2.2774 -0.0990
12432SOL    HW238078   3.228   2.976   0.278 -0.5436 -2.6296 -2.2017
12433SOL     OW38079   3.339   7.962   7.958  0.0813 -0.1313  0.4235
12433SOL    HW138080   3.293   7.932   7.880  1.2590 -0.2516 -0.2471
12433SOL    HW238081   3.432   7.943   7.941  0.3285 -0.5303  2.0171
12434SOL     OW38082   0.115   3.232   6.438 -0.6762 -0.5332 -0.4475
12434SOL    HW138083   0.062   3.304   6.404 -1.1609  0.4532  2.1729
12434SOL    HW238084   0.077   3.153   6.398 -0.7189  0.5123 -2.6552
12435SOL     OW38085   4.067   6.918   1.057 -0.0542 -0.1852  0.1913
12435SOL    HW138086   4.006   6.952   0.992 -1.5033 -1.1168  1.0078
12435SOL    HW238087   4.049   6.968   1.136 -1.4578 -1.9872  1.0998
12436SOL     OW38088   2.789   3.418   6.393 -0.2565 -0.0937  0.4301
12436SOL    HW138089   2.871   3.372   6.412 -0.1193  0.2175  0.6010
12436SOL    HW238090   2.795   3.499   6.444 -0.5260  0.0831  0.1808
12437SOL     OW38091   0.899   3.210   5.224 -0.1099 -0.0213  0.0476
12437SOL    HW138092   0.866   3.165   5.147  0.6558 -1.0954  0.3342
12437SOL    HW238093   0.994   3.202   5.219  0.0710  1.6902  0.0471
12438SOL     OW38094   6.664   7.900   3.758  0.3817  0.1585 -0.1286
12438SOL    HW138095   6.755   7.904   3.785  0.3689 -3.7033  1.0169
12438SOL    HW238096   6.617   7.949   3.825  1.4836  1.3491 -0.1853
12439SOL     OW38097   0.752   2.089   0.331 -0.0537 -0.0442  0.3818
12439SOL    HW138098   0.808   2.041   0.270  1.1127  1.1963  0.4219
12439SOL    HW238099   0.665   2.052   0.319  0.1961 -0.0292 -1.8325
12440SOL     OW38100   2.614   7.886   5.691  0.0284 -0.4538 -0.1355
12440SOL    HW138101   2.698   7.898   5.736  0.3341  0.4277 -0.9270
12440SOL    HW238102   2.617   7.946   5.617 -1.2044 -0.5993 -0.3226
12441SOL     OW38103   0.001   5.452   5.487 -0.0705  0.4084  0.1185
12441SOL    HW138104  -0.059   5.497   5.427  0.6010 -0.1379 -0.9944
12441SOL    HW238105   0.076   5.429   5.433 -0.2865 -1.8740  0.6564
12442SOL     OW38106   4.450   8.028   4.920  0.9041 -0.0860  0.1121
12442SOL    HW138107   4.531   8.052   4.966  0.2802  0.4508  0.9451
12442SOL    HW238108   4.381   8.043   4.983  0.2158 -1.4455 -0.2706
12443SOL     OW38109   7.310   7.056   2.781 -0.2034  0.0940  0.3514
12443SOL    HW138110   7.244   7.121   2.756  0.8691  0.5022 -1.6012
12443SOL    HW238111   7.335   7.014   2.698  0.6300 -1.3687  1.2980
12444SOL     OW38112   2.724   5.926   2.193  0.1361 -0.2438 -0.0960
12444SOL    HW138113   2.678   5.966   2.266  0.6365 -0.0628  0.1254
12444SOL    HW238114   2.817   5.945   2.209  0.2143  0.2385 -1.0385
12445SOL     OW38115   0.990   1.500   1.589 -0.1415  0.3081 -0.5206
12445SOL    HW138116   0.984   1.471   1.680  1.7728  0.4934 -0.2961
12445SOL    HW238117   0.927   1.445   1.543 -1.0811  0.1467  0.8790
12446SOL     OW38118   3.982   6.585   0.243 -0.1905  0.0606 -0.1168
12446SOL    HW138119   3.938   6.628   0.316 -1.0499 -0.3585 -0.3806
12446SOL    HW238120   3.948   6.628   0.165 -0.8293 -0.8591 -0.3672
12447SOL     OW38121   7.914   5.507   6.506  0.2650  0.1076  0.2119
12447SOL    HW138122   7.979   5.562   6.549  1.6365 -1.7757  0.6820
12447SOL    HW238123   7.953   5.485   6.422  0.2220 -0.9671  0.4583
12448SOL     OW38124   5.333   3.603   7.544  0.1615 -0.2197 -0.4963
12448SOL    HW138125   5.370   3.645   7.622 -0.1126  0.0311 -0.4984
12448SOL    HW238126   5.361   3.658   7.471 -0.0233 -0.1546 -0.5202
12449SOL     OW38127   0.207   4.383   0.946  0.3618  0.2064 -0.5131
12449SOL    HW138128   0.288   4.348   0.908  0.1400 -0.4689 -0.3770
12449SOL    HW238129   0.227   4.475   0.964  1.6003 -0.2749  0.8351
12450SOL     OW38130   5.556   7.207   4.526 -0.2597  0.0223  0.2639
12450SOL    HW138131   5.584   7.230   4.614 -0.3563 -1.6089  0.7471
12450SOL    HW238132   5.606   7.129   4.503 -0.6498  0.0804 -0.9021
12451SOL     OW38133   1.050   7.860   4.923 -0.1562 -0.1940 -0.2508
12451SOL    HW138134   1.068   7.954   4.928  1.1588 -0.4636  0.9798
12451SOL    HW238135   0.959   7.854   4.894 -0.7082  1.4986  0.9633
12452SOL     OW38136   5.124   6.578   1.859 -0.0626 -0.1580  0.3898
12452SOL    HW138137   5.084   6.596   1.773 -0.3214  1.0683  0.7454
12452SOL    HW238138   5.172   6.658   1.880 -0.0354 -0.4315  1.4102
12453SOL     OW38139   5.106   7.659   4.787 -0.1656  0.5668 -0.2968
12453SOL    HW138140   5.160   7.733   4.812  2.4086 -1.1850 -0.2647
12453SOL    HW238141   5.113   7.655   4.691  1.8935 -1.0309 -0.1639
12454SOL     OW38142   7.702   0.989   2.794  0.6004  0.1470  0.2126
12454SOL    HW138143   7.630   0.943   2.751 -0.5272  0.8950  1.2211
12454SOL    HW238144   7.744   1.039   2.724 -1.0101  1.1197 -0.0975
12455SOL     OW38145   5.835   6.780   7.806 -0.2505  0.2846 -0.1040
12455SOL    HW138146   5.923   6.760   7.838 -0.1427 -0.1690 -0.6804
12455SOL    HW238147   5.834   6.875   7.795 -0.3652  0.4995  1.4602
12456SOL     OW38148   4.431   7.939   2.608  0.3414  0.0238  0.4863
12456SOL    HW138149   4.485   7.886   2.667 -1.7455 -0.4514  2.0986
12456SOL    HW238150   4.375   7.876   2.563 -2.6633  0.7028  2.9313
12457SOL     OW38151   4.621   4.935   5.616  1.0132  0.8838  0.0852
12457SOL    HW138152   4.570   4.884   5.554  2.9272 -0.1778 -0.6895
12457SOL    HW238153   4.566   4.937   5.695 -0.5173  0.4347 -0.9111
12458SOL     OW38154   4.374   7.720   8.073  0.1761 -0.0721  0.7715
12458SOL    HW138155   4.448   7.732   8.132  0.4798 -0.0513  0.3955
12458SOL    HW238156   4.392   7.637   8.029  0.3660  0.2858  0.1436
12459SOL     OW38157   1.719   3.211   7.830 -0.0787  0.5134  0.4021
12459SOL    HW138158   1.722   3.162   7.748 -0.1983  2.9578 -1.1274
12459SOL    HW238159   1.626   3.224   7.847 -0.2215 -1.9540  2.2972
12460SOL     OW38160   2.308   6.997   0.331 -0.3332 -0.2585 -0.4475
12460SOL    HW138161   2.300   6.906   0.303 -1.8499  0.0860 -1.2283
12460SOL    HW238162   2.228   7.014   0.381  0.8305  0.1039  1.3669
12461SOL     OW38163   7.631   5.330   7.351 -0.0671 -0.2394  0.0673
12461SOL    HW138164   7.539   5.321   7.328 -0.2372 -2.5783  1.4160
12461SOL    HW238165   7.633   5.404   7.411 -0.8496  0.5529 -0.8325
12462SOL     OW38166   3.135   2.353   1.028 -0.1659 -0.5279 -0.1562
12462SOL    HW138167   3.210   2.316   0.982  0.9414  0.9372  0.4006
12462SOL    HW238168   3.118   2.292   1.100 -0.3807 -1.5609 -1.0558
12463SOL     OW38169   3.688   2.353   1.899  0.0187  0.0741 -0.1034
12463SOL    HW138170   3.783   2.356   1.883 -0.0414  1.5521 -0.2981
12463SOL    HW238171   3.677   2.286   1.967  1.1654 -0.2773 -0.2378
12464SOL     OW38172   0.326   3.718   1.687 -0.2804 -0.4138 -0.0858
12464SOL    HW138173   0.282   3.742   1.768 -0.3546  0.5084 -0.3810
12464SOL    HW238174   0.414   3.690   1.714 -0.3674 -0.2871  0.3263
12465SOL     OW38175   0.207   3.680   0.287  0.6872 -0.2975  0.6284
12465SOL    HW138176   0.270   3.610   0.272  0.9076  0.2689 -1.4516
12465SOL    HW238177   0.166   3.694   0.202 -1.0116  0.5400  1.5352
12466SOL     OW38178   1.983   3.608   6.479 -0.2578 -0.4544  0.3743
12466SOL    HW138179   2.029   3.553   6.416  0.4371  0.3247  0.1808
12466SOL    HW238180   2.002   3.568   6.564  1.0364  0.0135  0.3226
12467SOL     OW38181   0.100   6.982   0.636 -0.1940 -0.0251  0.1002
12467SOL    HW138182   0.046   6.907   0.611  2.3338 -1.9108 -0.0716
12467SOL    HW238183   0.141   7.010   0.554  1.9437 -1.1106  0.7145
12468SOL     OW38184   2.575   8.290   0.944 -0.0006 -0.0589  0.9041
12468SOL    HW138185   2.610   8.288   0.855 -0.1789  1.0027  0.8048
12468SOL    HW238186   2.534   8.376   0.952 -0.4157 -0.3350  1.8525
12469SOL     OW38187   2.630   2.729   4.951 -0.0310  0.3910 -0.2681
12469SOL    HW138188   2.597   2.805   4.999  0.6259  0.1317  0.6309
12469SOL    HW238189   2.718   2.715   4.987 -0.7550 -1.8035  0.8294
12470SOL     OW38190   0.293   6.831   2.635 -0.6979 -0.1978  0.1497
12470SOL    HW138191   0.207   6.831   2.593 -0.4923 -1.0548 -0.2887
12470SOL    HW238192   0.332   6.748   2.610  0.8202  0.7406 -0.7816
12471SOL     OW38193   3.569   0.796   6.450  0.1429  0.0521  0.6046
12471SOL    HW138194   3.571   0.709   6.490 -0.4309  0.3623  1.3323
12471SOL    HW238195   3.618   0.852   6.510  1.3060  0.0662 -0.3194
12472SOL     OW38196   1.550   4.981   1.294  0.2698 -0.5724  0.0458
12472SOL    HW138197   1.630   4.940   1.327  2.0697  3.9912  2.0598
12472SOL    HW238198   1.483   4.957   1.357  0.6794 -2.0839 -0.0515
12473SOL     OW38199   7.482   8.112   1.099  0.1439  0.2597  0.3177
12473SOL    HW138200   7.539   8.040   1.073 -0.6400 -0.8097  1.4988
12473SOL    HW238201   7.446   8.145   1.016  1.6619  0.3075 -0.3616
12474SOL     OW38202   4.461   0.990   0.572 -0.4596  0.1800 -0.2863
12474SOL    HW138203   4.531   1.013   0.633 -1.6881  0.9630  0.8857
12474SOL    HW238204   4.430   0.905   0.602 -0.3654  0.0774 -0.4786
12475SOL     OW38205   5.070   5.209   4.547  0.0236 -0.1632  0.8492
12475SOL    HW138206   4.989   5.178   4.589 -0.2090  0.5688  0.9554
12475SOL    HW238207   5.116   5.129   4.521 -1.1572 -0.5958 -0.0218
12476SOL     OW38208   5.193   0.277   3.683  0.0513  0.2718  0.3563
12476SOL    HW138209   5.190   0.368   3.711 -0.8998  0.2512  0.3507
12476SOL    HW238210   5.222   0.229   3.760 -1.1460  0.3893  0.9086
12477SOL     OW38211   4.085   7.008   2.638 -0.3318  0.0287  1.0754
12477SOL    HW138212   4.114   7.093   2.606  0.7862 -0.5491  0.4739
12477SOL    HW238213   4.019   6.980   2.575  1.8633 -1.1093 -0.9016
12478SOL     OW38214   7.099   7.829   5.488 -0.1507 -0.3851 -0.5106
12478SOL    HW138215   7.089   7.772   5.565  0.3049 -1.1456 -1.0076
12478SOL    HW238216   7.103   7.770   5.414  2.2249  0.1490 -0.8878
12479SOL     OW38217   1.970   3.763   3.336  0.1417  0.0353  0.0594
12479SOL    HW138218   1.902   3.787   3.398  0.0237 -0.4029  0.0999
12479SOL    HW238219   2.000   3.846   3.300  0.5948  0.3333  1.0955
12480SOL     OW38220   2.537   0.866   4.790  0.1909 -0.3524 -0.1177
12480SOL    HW138221   2.485   0.917   4.728  0.1331 -0.3250 -0.0466
12480SOL    HW238222   2.477   0.798   4.821  0.4232 -0.7999 -0.6233
12481SOL     OW38223   0.880   2.532   8.273  0.3444 -0.0906 -0.0945
12481SOL    HW138224   0.960   2.480   8.289 -0.2686 -0.4920  2.0061
12481SOL    HW238225   0.809   2.468   8.279 -0.1332 -0.0585 -3.6736
12482SOL     OW38226   2.785   4.833   6.889  0.0437 -0.1932  0.0941
12482SOL    HW138227   2.837   4.790   6.957  1.5362  0.3035 -0.6997
12482SOL    HW238228   2.820   4.800   6.807 -0.3518  0.7860 -0.4800
12483SOL     OW38229   6.275   0.678   6.610  0.6714 -0.1836 -0.5539
12483SOL    HW138230   6.329   0.708   6.683  0.0458 -0.5031  0.0477
12483SOL    HW238231   6.212   0.749   6.597 -0.2512 -0.8172  0.2963
12484SOL     OW38232   4.979   0.502   1.809  0.1157 -0.2001 -0.9493
12484SOL    HW138233   5.030   0.574   1.773 -0.5033  0.1791 -1.0960
12484SOL    HW238234   4.943   0.536   1.891  1.9197 -1.2202  0.3424
12485SOL     OW38235   2.179   2.950   7.366 -0.1979  0.1853 -0.0879
12485SOL    HW138236   2.188   2.857   7.344 -1.0636 -0.2038  1.0738
12485SOL    HW238237   2.230   2.996   7.299 -0.7530 -1.0420 -1.4136
12486SOL     OW38238   0.486   5.728   5.084  0.4673 -0.5077 -0.5182
12486SOL    HW138239   0.409   5.678   5.112 -0.4239  1.5798  1.0361
12486SOL    HW238240   0.515   5.774   5.163  3.0213 -0.7954 -1.1938
12487SOL     OW38241   0.276   2.305   4.012  0.0297 -0.2728 -0.6419
12487SOL    HW138242   0.320   2.324   3.929 -0.2346  0.2716 -0.6623
12487SOL    HW238243   0.202   2.250   3.989  0.4172 -0.7906 -0.6668
12488SOL     OW38244   1.942   6.958   1.749  0.2161 -0.0249 -0.1706
12488SOL    HW138245   2.024   7.006   1.754  0.6395 -0.8506  2.5350
12488SOL    HW238246   1.962   6.878   1.702  0.5784  0.4587 -0.8413
12489SOL     OW38247   7.037   6.023   7.188 -0.4629  0.0155 -0.5807
12489SOL    HW138248   7.090   6.013   7.267  0.5107 -1.3688 -1.3664
12489SOL    HW238249   7.100   6.036   7.117 -1.0567 -2.0715 -1.6022
12490SOL     OW38250   4.575   7.202   0.458  0.3548 -0.3749  0.1608
12490SOL    HW138251   4.502   7.198   0.519 -1.8007  0.5319 -2.1963
12490SOL    HW238252   4.614   7.288   0.474  0.8563 -0.7935  1.3134
12491SOL     OW38253   5.319   4.597   5.143 -0.7321 -0.1149 -0.0775
12491SOL    HW138254   5.315   4.681   5.189  0.6472 -0.2171  0.2735
12491SOL    HW238255   5.366   4.617   5.062 -0.5842 -0.5130 -0.0878
12492SOL     OW38256   0.368   1.690   5.912 -0.1993 -0.4374 -0.0571
12492SOL    HW138257   0.326   1.618   5.865 -0.2377  0.1504 -0.9503
12492SOL    HW238258   0.461   1.669   5.909 -0.3169 -1.2060  1.0091
12493SOL     OW38259   6.242   5.052   8.324  0.0089  0.3968  0.2261
12493SOL    HW138260   6.216   4.963   8.303  2.2864 -0.3900  0.4620
12493SOL    HW238261   6.165   5.090   8.366 -0.6433 -1.8458  1.2302
12494SOL     OW38262   6.931   7.594   2.394  0.2054 -0.2124  0.1855
12494SOL    HW138263   6.848   7.629   2.360  0.0306 -2.0022 -1.3526
12494SOL    HW238264   6.962   7.535   2.326  1.3935 -1.6476  1.8868
12495SOL     OW38265   5.417   6.630   0.168  0.3369  0.6108  0.7558
12495SOL    HW138266   5.434   6.724   0.178  0.6130  0.5912  0.5200
12495SOL    HW238267   5.496   6.588   0.203  0.8126  0.5120 -0.3765
12496SOL     OW38268   3.850   7.908   5.995 -0.4731  0.1087 -0.1402
12496SOL    HW138269   3.784   7.908   6.064  0.2062  1.1165  0.5338
12496SOL    HW238270   3.801   7.889   5.915 -1.5375  0.6049  0.3739
12497SOL     OW38271   5.641   7.930   6.513 -0.0040  0.1742 -0.7112
12497SOL    HW138272   5.698   7.854   6.525 -0.7008 -0.1726  0.6752
12497SOL    HW238273   5.700   8.001   6.487  0.9840 -0.3068  0.1566
12498SOL     OW38274   0.172   8.091   1.287 -0.0150  0.1152  0.2500
12498SOL    HW138275   0.212   8.086   1.200  0.3528  1.1199  0.3383
12498SOL    HW238276   0.216   8.024   1.338  0.9331  0.5998  0.0939
12499SOL     OW38277   0.431   3.419   1.702  0.4304  0.4848 -0.3248
12499SOL    HW138278   0.469   3.427   1.790 -2.0446 -1.2007  1.0109
12499SOL    HW238279   0.338   3.434   1.714 -0.0600 -0.3381 -2.5730
12500SOL     OW38280   1.016   3.897   3.038  0.1142 -0.1803 -0.1012
12500SOL    HW138281   1.104   3.913   3.073  0.2228 -1.4866  0.2561
12500SOL    HW238282   0.966   3.973   3.067  0.5870 -0.4721  1.6209
12501SOL     OW38283   1.401   6.523   7.086  0.1549  0.1147 -0.2830
12501SOL    HW138284   1.315   6.486   7.106 -0.5218  0.1011 -2.8907
12501SOL    HW238285   1.405   6.525   6.991  2.3116  1.8958 -0.2359
12502SOL     OW38286   3.926   0.794   5.450  0.1668 -0.1569  0.0495
12502SOL    HW138287   3.884   0.709   5.465  0.5499 -0.7307 -1.8276
12502SOL    HW238288   3.879   0.831   5.375 -0.0987  1.4082  0.9285
12503SOL     OW38289   6.874   5.999   1.781  0.6014 -0.1364 -0.0243
12503SOL    HW138290   6.845   5.912   1.808  2.5425 -1.1736 -1.0374
12503SOL    HW238291   6.833   6.013   1.696  0.5646 -0.2409 -0.0241
12504SOL     OW38292   1.809   4.494   8.241  0.1360  0.0987  0.5261
12504SOL    HW138293   1.873   4.550   8.198 -1.1621  0.5062 -0.9563
12504SOL    HW238294   1.744   4.555   8.277 -0.7340 -0.3873 -0.1885
12505SOL     OW38295   4.049   0.343   0.680  0.1533  0.2025 -0.3941
12505SOL    HW138296   3.957   0.330   0.701 -0.0639  0.9759 -0.8188
12505SOL    HW238297   4.079   0.258   0.647 -0.8003  0.3311 -1.6570
12506SOL     OW38298   0.171   8.245   3.293  0.1778  0.1543 -0.8940
12506SOL    HW138299   0.150   8.315   3.232 -1.4367  0.6612  0.1517
12506SOL    HW238300   0.266   8.241   3.294  0.2754  1.5864 -1.8051
12507SOL     OW38301   5.814   1.944   0.120  0.2650  0.4975 -0.5276
12507SOL    HW138302   5.723   1.939   0.152 -0.0108  0.9455 -1.2203
12507SOL    HW238303   5.867   1.934   0.199 -0.3789 -0.0655 -0.1443
12508SOL     OW38304   1.956   2.353   3.968 -0.0905 -0.5091 -0.8223
12508SOL    HW138305   1.987   2.441   3.991  2.3247 -1.3978 -0.3129
12508SOL    HW238306   2.010   2.327   3.893 -0.4328 -1.7252 -0.6799
12509SOL     OW38307   0.417   0.255   5.657 -0.0415 -0.4324  0.0427
12509SOL    HW138308   0.342   0.313   5.669  1.2759  1.7522 -1.5114
12509SOL    HW238309   0.385   0.185   5.600 -1.0650  0.1542 -0.1280
12510SOL     OW38310   2.077   5.783   6.830 -0.2549  0.1163 -0.0524
12510SOL    HW138311   1.996   5.788   6.780 -0.1647  0.3269 -0.1809
12510SOL    HW238312   2.135   5.847   6.788 -0.6564  1.3445  1.1952
12511SOL     OW38313   7.945   6.057   3.624  0.1451 -0.3795  0.0640
12511SOL    HW138314   7.989   5.991   3.572  0.8025  1.1057 -1.3466
12511SOL    HW238315   8.014   6.096   3.678  0.3184  0.9620 -1.0873
12512SOL     OW38316   3.302   1.060   5.236  0.5216  0.4203  0.0076
12512SOL    HW138317   3.278   0.968   5.225 -1.5222  0.8687  0.3101
12512SOL    HW238318   3.344   1.084   5.154  2.0382 -1.0344  0.3138
12513SOL     OW38319   5.430   3.092   2.468  0.1831  0.2265 -0.5411
12513SOL    HW138320   5.375   3.078   2.391  1.2011 -1.5055 -1.0080
12513SOL    HW238321   5.509   3.040   2.451 -0.1238 -1.3580  2.2248
12514SOL     OW38322   0.752   1.424   7.610  0.3098 -0.2053  0.4142
12514SOL    HW138323   0.713   1.435   7.696 -1.1980 -0.4236 -0.2111
12514SOL    HW238324   0.766   1.330   7.602 -1.0316 -0.3796 -0.1667
12515SOL     OW38325   4.687   2.164   0.893  0.3494  0.2836 -0.1521
12515SOL    HW138326   4.727   2.211   0.966 -0.9051 -0.5403  1.1254
12515SOL    HW238327   4.642   2.233   0.842  0.8190  0.8025  0.1248
12516SOL     OW38328   7.740   7.724   2.910  0.4983  0.2916 -0.2370
12516SOL    HW138329   7.712   7.638   2.939 -1.4451  0.7876 -0.4993
12516SOL    HW238330   7.713   7.729   2.818 -0.8846  1.7403  0.2085
12517SOL     OW38331   2.492   3.891   1.866  0.1834 -0.5196  0.3889
12517SOL    HW138332   2.561   3.829   1.844  0.5721 -0.6028  1.7550
12517SOL    HW238333   2.525   3.975   1.833  0.6977 -0.6508  0.5566
12518SOL     OW38334   3.465   4.560   3.165  0.2279 -0.1955  0.6867
12518SOL    HW138335   3.528   4.503   3.121 -1.8310 -1.4960 -0.7740
12518SOL    HW238336   3.516   4.606   3.231  3.2516  0.8337 -2.1194
12519SOL     OW38337   6.019   0.594   6.775 -0.2767 -0.1266  0.1348
12519SOL    HW138338   6.011   0.590   6.870  1.4288 -1.6537  0.2683
12519SOL    HW238339   6.018   0.687   6.755 -0.7099  0.2205  1.6444
12520SOL     OW38340   6.380   2.981   6.848  0.2108  0.2237  0.0576
12520SOL    HW138341   6.334   3.009   6.927 -0.8232 -2.8136  0.6716
12520SOL    HW238342   6.310   2.954   6.788  1.0441 -2.0497  0.0214
12521SOL     OW38343   0.692   2.315   0.507  0.3588  0.7409  0.3713
12521SOL    HW138344   0.731   2.246   0.453  0.2248 -0.2955  1.5478
12521SOL    HW238345   0.666   2.270   0.587 -0.4943  2.0185  0.8320
12522SOL     OW38346   2.504   5.881   1.960  0.3577  0.4069 -0.8688
12522SOL    HW138347   2.500   5.789   1.934  2.0627 -0.2413  0.8837
12522SOL    HW238348   2.517   5.929   1.878  1.3690 -1.1152 -1.6429
12523SOL     OW38349   0.904   7.290   1.122  0.6983 -0.2236 -0.0758
12523SOL    HW138350   0.960   7.355   1.079  2.4001 -1.0515  0.7707
12523SOL    HW238351   0.820   7.334   1.132  0.6295  0.4817 -2.9376
12524SOL     OW38352   6.670   4.795   4.410  0.3778 -0.1631  0.6577
12524SOL    HW138353   6.762   4.775   4.428  0.5862  1.2971  1.3565
12524SOL    HW238354   6.667   4.811   4.316  0.7807 -0.4819  0.5867
12525SOL     OW38355   5.849   6.069   4.795 -0.8320 -0.9620  0.4972
12525SOL    HW138356   5.759   6.092   4.820 -0.2392 -0.7662  2.6339
12525SOL    HW238357   5.870   6.129   4.724 -2.3212 -0.9099  0.0578
12526SOL     OW38358   2.703   3.733   6.873  0.2565 -0.0126 -0.3675
12526SOL    HW138359   2.644   3.696   6.939  0.3862  0.4472  0.0133
12526SOL    HW238360   2.648   3.748   6.797  0.4577 -2.2466 -1.0221
12527SOL     OW38361   7.165   3.373   0.553  0.2314 -0.1429  0.4720
12527SOL    HW138362   7.179   3.349   0.645  1.3744 -1.8694 -0.0995
12527SOL    HW238363   7.154   3.289   0.508  1.8660  0.5097 -1.2863
12528SOL     OW38364   6.281   3.087   1.673 -0.5257 -0.5910  0.5166
12528SOL    HW138365   6.201   3.078   1.621 -0.4502  0.2392  0.2342
12528SOL    HW238366   6.291   3.182   1.684 -0.1148 -0.7275  1.3842
12529SOL     OW38367   2.260   6.990   1.407 -0.2328 -0.2658  0.3496
12529SOL    HW138368   2.333   7.052   1.413 -1.1129  0.9572 -0.9266
12529SOL    HW238369   2.243   6.983   1.313 -2.8515  0.8636  0.6599
12530SOL     OW38370   6.841   6.488   6.257  0.1785 -0.2079 -0.3039
12530SOL    HW138371   6.758   6.510   6.216  0.3897  2.7420  0.6571
12530SOL    HW238372   6.907   6.507   6.191  0.2273 -0.4214 -0.3181
12531SOL     OW38373   0.038   4.912   6.542  0.6286  0.3447 -0.3678
12531SOL    HW138374   0.061   4.878   6.455  1.1929  0.2490 -0.1842
12531SOL    HW238375  -0.058   4.909   6.544  0.6489 -1.3830 -0.2963
12532SOL     OW38376   1.164   7.355   2.187 -0.1132  0.3596 -0.2617
12532SOL    HW138377   1.073   7.382   2.171  0.3700  2.1342 -0.2482
12532SOL    HW238378   1.179   7.374   2.280  0.5070  0.8336 -0.4543
12533SOL     OW38379   8.089   0.455   3.934  0.3325 -0.0838  0.1684
12533SOL    HW138380   8.076   0.477   3.841 -1.3826  0.2607  0.4486
12533SOL    HW238381   8.000   0.445   3.968  0.9534 -1.3407  1.5279
12534SOL     OW38382   6.386   1.646   0.269 -0.4996  0.0400  0.1774
12534SOL    HW138383   6.311   1.633   0.210  0.1220 -0.4952 -0.5121
12534SOL    HW238384   6.370   1.587   0.342 -1.1531  0.5251  0.4379
12535SOL     OW38385   7.298   6.972   7.293  0.1671  0.3842 -0.4119
12535SOL    HW138386   7.273   7.055   7.333 -1.0413  0.1996 -0.7369
12535SOL    HW238387   7.215   6.923   7.287  0.8294 -0.7727 -0.3788
12536SOL     OW38388   4.184   3.851   4.074 -0.2891  0.0292  0.6422
12536SOL    HW138389   4.274   3.882   4.087 -0.8308  1.0997  2.1012
12536SOL    HW238390   4.192   3.756   4.070  1.3157  0.1476 -3.0784
12537SOL     OW38391   6.518   1.582   1.241  0.5806  0.6563 -0.2955
12537SOL    HW138392   6.612   1.596   1.253  0.5844  0.0555  0.4682
12537SOL    HW238393   6.477   1.650   1.296  0.5985 -0.9382  1.8290
12538SOL     OW38394   2.847   8.253   6.472 -0.3402 -0.1447 -0.2531
12538SOL    HW138395   2.772   8.311   6.458 -0.4340  0.5727  2.7588
12538SOL    HW238396   2.920   8.311   6.491  0.6383 -0.9107 -1.5118
12539SOL     OW38397   3.334   4.120   1.937 -0.2068 -0.2092  0.1458
12539SOL    HW138398   3.299   4.069   1.865  1.2235 -0.1174 -0.6424
12539SOL    HW238399   3.266   4.184   1.957 -0.0831  0.6599 -2.0401
12540SOL     OW38400   6.785   1.199   4.184  0.3043 -0.8529  0.3462
12540SOL    HW138401   6.773   1.154   4.267  1.3377 -2.2092 -0.1911
12540SOL    HW238402   6.875   1.230   4.186 -0.0253  0.1632  0.2008
12541SOL     OW38403   4.021   7.627   1.649 -0.0218  0.3843  0.0715
12541SOL    HW138404   4.097   7.621   1.706  1.3033  3.2654 -1.1820
12541SOL    HW238405   4.058   7.636   1.561 -1.8714  0.5824 -0.7253
12542SOL     OW38406   0.806   7.179   1.606 -0.0600  0.2944 -0.0836
12542SOL    HW138407   0.745   7.117   1.567 -0.1434  0.1038  0.3385
12542SOL    HW238408   0.781   7.264   1.571  1.2527 -0.1215 -2.1782
12543SOL     OW38409   6.070   7.330   6.593  0.0782 -0.3082  0.8131
12543SOL    HW138410   6.094   7.238   6.584  0.2048 -0.3806  1.7478
12543SOL    HW238411   6.075   7.366   6.504  0.2578 -1.1434  0.4828
12544SOL     OW38412   3.297   6.144   6.540 -0.1817  0.3059  0.7907
12544SOL    HW138413   3.294   6.056   6.503  0.7909 -0.0425  1.4825
12544SOL    HW238414   3.206   6.174   6.540 -0.6526 -1.0460  1.3627
12545SOL     OW38415   7.620   6.735   4.738 -0.4350 -0.3631  0.4072
12545SOL    HW138416   7.614   6.755   4.832  1.1421  0.1879  0.4116
12545SOL    HW238417   7.594   6.816   4.695  0.6748  0.0074  0.3997
12546SOL     OW38418   5.840   2.017   3.244 -0.5186 -0.1206 -0.3905
12546SOL    HW138419   5.821   2.105   3.276 -0.6737 -0.1784 -0.3201
12546SOL    HW238420   5.859   1.966   3.322 -0.4834 -0.1625 -0.4260
12547SOL     OW38421   0.260   2.524   7.906 -0.5856  0.5066 -0.1696
12547SOL    HW138422   0.331   2.568   7.953  0.0905 -1.2646  0.5787
12547SOL    HW238423   0.302   2.450   7.863 -1.9124 -0.4180  0.0493
12548SOL     OW38424   7.048   0.194   3.964  0.2474 -0.3538  0.1276
12548SOL    HW138425   6.999   0.272   3.938 -1.0314 -1.0078  0.5120
12548SOL    HW238426   7.097   0.169   3.885 -0.6170 -0.1100 -0.4964
12549SOL     OW38427   1.175   7.422   2.455 -0.5533  0.1647 -0.1032
12549SOL    HW138428   1.214   7.410   2.541 -1.7076 -1.6498  0.2449
12549SOL    HW238429   1.081   7.413   2.470 -1.0861  3.0194 -1.1084
12550SOL     OW38430   2.612   4.580   1.632  0.3030 -0.0904 -0.4555
12550SOL    HW138431   2.603   4.547   1.721 -0.1095  0.4979 -0.2715
12550SOL    HW238432   2.630   4.502   1.579 -1.8564 -0.8034 -0.2213
12551SOL     OW38433   4.408   2.812   4.383 -0.0156  0.6258  0.1077
12551SOL    HW138434   4.486   2.865   4.399  0.5255 -0.1553  0.1098
12551SOL    HW238435   4.442   2.724   4.366 -0.9183  0.1941  0.4716
12552SOL     OW38436   4.495   0.816   3.781 -0.0982  0.1626  0.5303
12552SOL    HW138437   4.536   0.886   3.730  0.5069  0.6503  1.6541
12552SOL    HW238438   4.404   0.843   3.791  0.2390  1.0521  1.3661
12553SOL     OW38439   8.295   6.333   8.193 -0.0295  0.0747  0.6340
12553SOL    HW138440   8.286   6.324   8.287 -1.0575 -0.2667  0.5205
12553SOL    HW238441   8.215   6.379   8.166 -1.4585 -2.8291 -0.4628
12554SOL     OW38442   7.138   2.074   8.182  0.0483 -0.5569  0.5220
12554SOL    HW138443   7.187   2.112   8.109  2.6616  2.5072  3.5258
12554SOL    HW238444   7.052   2.117   8.179 -0.0222 -0.7723 -0.9147
12555SOL     OW38445   2.005   2.697   6.604  0.5286 -0.2366  0.4932
12555SOL    HW138446   1.937   2.764   6.600  0.6201 -0.2285 -1.5018
12555SOL    HW238447   1.963   2.624   6.650 -0.0558  0.6086  1.3503
12556SOL     OW38448   2.890   7.696   4.146 -0.3066 -0.2921  0.3312
12556SOL    HW138449   2.970   7.727   4.104 -0.1174 -0.6138  0.4525
12556SOL    HW238450   2.839   7.656   4.075 -0.7929  0.7651  0.0686
12557SOL     OW38451   4.589   2.674   1.735 -0.2973  0.8001 -0.1579
12557SOL    HW138452   4.684   2.668   1.747 -0.2016  1.5427 -0.4881
12557SOL    HW238453   4.562   2.747   1.790 -0.5438  1.1755 -0.7684
12558SOL     OW38454   2.035   4.753   4.121  0.0714 -0.3341 -0.0010
12558SOL    HW138455   1.945   4.776   4.141 -0.1937 -1.8063  0.5670
12558SOL    HW238456   2.061   4.816   4.054 -1.5981 -0.3268 -0.6806
12559SOL     OW38457   0.247   5.057   3.199 -0.2745 -0.3603  0.0756
12559SOL    HW138458   0.298   5.084   3.275  0.0320  0.4314 -0.3943
12559SOL    HW238459   0.170   5.114   3.200 -1.1329 -1.5082  0.7463
12560SOL     OW38460   1.851   5.013   6.431  0.0096 -0.1593 -0.9007
12560SOL    HW138461   1.868   5.071   6.357 -0.4370 -0.2892 -1.1053
12560SOL    HW238462   1.935   4.971   6.448 -0.0676 -0.7266 -1.8429
12561SOL     OW38463   2.131   0.379   5.262 -0.5174  0.8705 -0.5407
12561SOL    HW138464   2.215   0.383   5.307 -0.9070 -0.1042  0.3219
12561SOL    HW238465   2.154   0.373   5.169  0.3492  1.0527 -0.3454
12562SOL     OW38466   1.848   6.894   7.720 -0.0211 -0.1055 -0.2644
12562SOL    HW138467   1.790   6.967   7.745  0.4083  0.4216 -0.7959
12562SOL    HW238468   1.799   6.846   7.653 -0.0724  0.0139 -0.3124
12563SOL     OW38469   8.121   7.373   4.914 -0.0809  0.2754  0.4384
12563SOL    HW138470   8.060   7.311   4.955  1.2385 -1.5629 -0.2187
12563SOL    HW238471   8.066   7.446   4.886 -2.0037 -1.3161 -0.1746
12564SOL     OW38472   2.073   5.571   8.268  0.0145  0.0800 -0.4822
12564SOL    HW138473   2.007   5.623   8.222 -0.3955  1.4834  1.5387
12564SOL    HW238474   2.037   5.483   8.269  0.3034 -0.1502 -3.2233
12565SOL     OW38475   3.960   7.310   7.602 -0.3983  0.1397 -0.1329
12565SOL    HW138476   4.030   7.376   7.604 -0.3456  0.0744  0.3705
12565SOL    HW238477   3.940   7.299   7.509  0.4426 -0.0371 -0.2963
12566SOL     OW38478   6.713   1.348   2.728  0.3272  0.1162  0.4120
12566SOL    HW138479   6.681   1.342   2.818 -0.0920  1.7671  0.4091
12566SOL    HW238480   6.687   1.265   2.687 -1.2079  0.1426  1.2721
12567SOL     OW38481   6.292   0.645   8.143  0.2920  0.5460  0.4586
12567SOL    HW138482   6.235   0.686   8.078 -0.4936  1.5916  1.7672
12567SOL    HW238483   6.345   0.716   8.178  1.6654 -0.2323  0.0441
12568SOL     OW38484   0.045   0.158   3.696 -0.2211  0.0143  0.5520
12568SOL    HW138485   0.028   0.252   3.683 -2.9679 -0.6510 -1.4421
12568SOL    HW238486  -0.030   0.127   3.746  0.2950 -1.2947  0.5592
12569SOL     OW38487   7.447   5.781   7.939  0.0669  0.0513  0.5023
12569SOL    HW138488   7.412   5.809   8.024  0.4681  2.8423 -0.1467
12569SOL    HW238489   7.371   5.781   7.881  0.3044  1.5192  0.1463
12570SOL     OW38490   0.591   7.817   7.316 -0.1167 -0.4221  0.1446
12570SOL    HW138491   0.555   7.801   7.403  0.2330 -0.9850  0.1969
12570SOL    HW238492   0.534   7.768   7.257 -0.5256  0.1958  0.0209
12571SOL     OW38493   5.906   2.464   3.231 -0.0651  0.3030 -0.1295
12571SOL    HW138494   5.976   2.403   3.253 -0.1416  0.9053  2.0795
12571SOL    HW238495   5.951   2.543   3.202  0.0858 -0.0900 -0.9928
12572SOL     OW38496   2.173   1.097   4.455 -0.1998 -0.3635  0.0752
12572SOL    HW138497   2.145   1.042   4.528 -1.1134 -0.4666 -0.3383
12572SOL    HW238498   2.093   1.110   4.403  0.2097  0.5624 -0.3447
12573SOL     OW38499   2.944   1.891   0.690  0.3896  0.2140 -0.3045
12573SOL    HW138500   3.008   1.913   0.758 -1.1177  0.6430  1.0543
12573SOL    HW238501   2.860   1.894   0.735 -0.9306  2.6689 -2.6771
12574SOL     OW38502   5.473   1.457   0.529 -0.2439 -0.2822 -0.1290
12574SOL    HW138503   5.566   1.435   0.530  0.4931  2.3387 -1.5116
12574SOL    HW238504   5.430   1.378   0.496  1.4797 -1.4697  0.3220
12575SOL     OW38505   3.704   1.169   2.588 -0.3334 -0.6534 -0.2214
12575SOL    HW138506   3.618   1.205   2.610 -0.9031 -2.2238  0.2411
12575SOL    HW238507   3.690   1.124   2.504  0.8565  1.8264 -1.8515
12576SOL     OW38508   5.419   7.709   5.785  0.6466  0.4010 -0.2197
12576SOL    HW138509   5.429   7.630   5.838 -1.8088  0.6758  0.7743
12576SOL    HW238510   5.360   7.682   5.714  0.1731  1.1960 -0.1390
12577SOL     OW38511   5.591   1.870   5.075 -0.3420  0.7107 -0.2123
12577SOL    HW138512   5.535   1.894   5.001  0.1224 -0.5739 -1.0223
12577SOL    HW238513   5.545   1.798   5.118  0.8207 -0.6239 -1.1177
12578SOL     OW38514   4.756   3.533   6.475 -0.1842  0.5411 -0.2876
12578SOL    HW138515   4.837   3.505   6.432 -0.3612  1.5700 -1.3652
12578SOL    HW238516   4.703   3.569   6.404 -0.7873  1.6675  0.6946
12579SOL     OW38517   4.570   4.555   5.028 -0.2497 -1.2715  0.2530
12579SOL    HW138518   4.569   4.646   5.057 -0.8333 -1.1858 -0.0161
12579SOL    HW238519   4.614   4.558   4.943 -0.1276 -1.2643  0.3162
12580SOL     OW38520   2.570   6.385   2.824  0.0335  0.1686 -0.1100
12580SOL    HW138521   2.542   6.461   2.773 -0.3072  0.5773  0.6720
12580SOL    HW238522   2.492   6.357   2.872 -0.1446 -1.3797 -1.2238
12581SOL     OW38523   0.136   5.901   6.586 -0.1349  0.3050  0.2601
12581SOL    HW138524   0.204   5.968   6.576  1.3313 -1.1567 -0.1069
12581SOL    HW238525   0.175   5.837   6.646 -0.9088 -0.9042 -0.4894
12582SOL     OW38526   5.121   5.570   6.289 -0.4654  0.6399  0.0384
12582SOL    HW138527   5.052   5.516   6.328 -0.3590  1.7648  1.9046
12582SOL    HW238528   5.085   5.600   6.206 -1.9286  0.5901  0.6356
12583SOL     OW38529   6.703   0.426   8.038  0.4941  0.2635  0.0883
12583SOL    HW138530   6.711   0.331   8.033  0.4681  0.2882 -0.6392
12583SOL    HW238531   6.790   0.459   8.017  0.2508  0.4096 -0.7493
12584SOL     OW38532   1.147   4.087   5.915 -0.5537 -0.1602 -0.8490
12584SOL    HW138533   1.166   4.100   5.822  0.1064 -0.9636 -0.8436
12584SOL    HW238534   1.073   4.144   5.934  1.0617  2.1667 -1.2118
12585SOL     OW38535   1.818   7.387   0.338 -0.1342 -0.6029 -0.1423
12585SOL    HW138536   1.797   7.361   0.249 -2.0493  2.2116 -0.6152
12585SOL    HW238537   1.906   7.422   0.333 -0.9631  1.4401 -1.4385
12586SOL     OW38538   0.974   0.488   0.368 -0.0257 -0.5304 -0.2904
12586SOL    HW138539   1.066   0.465   0.384  0.0651  0.2181  0.3323
12586SOL    HW238540   0.968   0.497   0.273  0.9556  1.0147 -0.2479
12587SOL     OW38541   7.879   5.642   0.668  0.0378 -0.3269 -0.4362
12587SOL    HW138542   7.849   5.655   0.578 -0.7475  1.5424  0.0456
12587SOL    HW238543   7.865   5.549   0.685 -1.3886 -0.3867 -1.7011
12588SOL     OW38544   2.539   1.470   1.332 -0.4528 -0.0864  0.1224
12588SOL    HW138545   2.524   1.493   1.240  1.3131 -1.6035 -0.6165
12588SOL    HW238546   2.453   1.477   1.373 -1.7108 -1.3417 -2.1180
12589SOL     OW38547   2.529   7.292   7.186  0.3634  0.1351 -0.2248
12589SOL    HW138548   2.517   7.209   7.140 -1.9472 -0.0690  0.6154
12589SOL    HW238549   2.546   7.356   7.116 -0.0031 -0.6797 -1.0858
12590SOL     OW38550   4.569   0.740   5.008  0.4983  0.4586 -0.1082
12590SOL    HW138551   4.617   0.749   5.091 -0.2630 -0.0694  0.4031
12590SOL    HW238552   4.564   0.829   4.975  0.9383  0.6621  0.3380
12591SOL     OW38553   0.872   2.491   0.672  0.1753  0.3331  0.2084
12591SOL    HW138554   0.819   2.446   0.607 -1.0385  2.8542 -0.6518
12591SOL    HW238555   0.812   2.509   0.744  0.1410  2.0365 -0.2063
12592SOL     OW38556   3.524   1.072   3.889 -0.2855 -0.6249  0.2480
12592SOL    HW138557   3.531   0.986   3.932 -1.0561 -0.3556  0.9370
12592SOL    HW238558   3.592   1.070   3.822  1.1487 -0.9822  1.6409
12593SOL     OW38559   3.918   7.712   2.449 -0.0691  0.6744 -0.3326
12593SOL    HW138560   3.993   7.707   2.391  1.1094  0.5028  1.1547
12593SOL    HW238561   3.926   7.797   2.492 -0.0392  0.1768  0.6908
12594SOL     OW38562   3.414   1.151   3.098 -0.5383  0.8369 -0.9382
12594SOL    HW138563   3.351   1.164   3.169 -1.8004 -0.7719 -1.6993
12594SOL    HW238564   3.362   1.162   3.018  0.3925  0.4987 -1.6066
12595SOL     OW38565   7.057   5.978   6.466 -0.1528  0.3827 -0.1710
12595SOL    HW138566   7.088   6.068   6.472  1.0041 -0.0821  1.3874
12595SOL    HW238567   7.057   5.959   6.372  2.9121  0.9360 -0.3921
12596SOL     OW38568   3.216   3.934   4.306  0.1134  0.0420 -0.2712
12596SOL    HW138569   3.239   3.852   4.263 -0.3578  0.1878 -0.8124
12596SOL    HW238570   3.267   4.000   4.260  1.2141 -0.0423  0.7718
12597SOL     OW38571   7.792   2.074   5.216 -0.7366  0.0164 -0.1178
12597SOL    HW138572   7.850   2.102   5.146 -1.5840  1.0234 -0.4533
12597SOL    HW238573   7.708   2.057   5.173 -0.8572 -0.8735  0.4327
12598SOL     OW38574   0.482   5.063   4.479  0.5595 -0.2495 -0.4925
12598SOL    HW138575   0.476   4.978   4.522  1.9024  0.3744  1.0147
12598SOL    HW238576   0.537   5.048   4.402  2.5158 -0.3870  0.8771
12599SOL     OW38577   3.462   8.087   6.950 -0.0936 -0.1352  0.0734
12599SOL    HW138578   3.410   8.066   6.873  0.0094 -1.1859  0.2819
12599SOL    HW238579   3.399   8.126   7.011 -0.8174 -1.9600  0.5650
12600SOL     OW38580   6.160   1.848   3.649 -0.3575  0.0931 -0.2904
12600SOL    HW138581   6.182   1.769   3.601  2.2013  0.9104 -0.6310
12600SOL    HW238582   6.215   1.845   3.728  0.5445  1.9020 -0.7717
12601SOL     OW38583   7.025   4.171   2.931  0.5485  0.3853  0.2628
12601SOL    HW138584   7.046   4.224   3.007  0.4223  0.3725  0.3075
12601SOL    HW238585   7.054   4.223   2.856 -0.0350  0.7438  0.2816
12602SOL     OW38586   0.680   4.016   3.433  0.3340 -0.6752  0.6625
12602SOL    HW138587   0.651   4.083   3.495  1.3956  0.3161  0.1159
12602SOL    HW238588   0.723   3.950   3.488  0.8440 -0.0441  1.0363
12603SOL     OW38589   0.323   2.336   8.293 -0.0027 -0.1492 -0.5076
12603SOL    HW138590   0.237   2.355   8.331 -0.6138 -1.2610 -1.2596
12603SOL    HW238591   0.305   2.319   8.201  0.4558 -3.6948 -0.0984
12604SOL     OW38592   6.036   2.199   2.168 -0.3943 -0.3006  0.2594
12604SOL    HW138593   6.077   2.133   2.224 -0.3976 -0.4649  0.0686
12604SOL    HW238594   6.109   2.234   2.116 -0.4388 -0.3569  0.1578
12605SOL     OW38595   1.628   6.815   1.195  0.1605 -0.1901 -0.1733
12605SOL    HW138596   1.700   6.872   1.222  0.3503 -0.3926 -0.2492
12605SOL    HW238597   1.654   6.728   1.224 -0.0663 -0.2609 -0.1785
12606SOL     OW38598   4.866   3.307   2.255 -0.4186 -0.7491  0.0522
12606SOL    HW138599   4.870   3.269   2.167 -0.1323  2.1744 -1.3096
12606SOL    HW238600   4.957   3.304   2.286 -0.2145 -0.2506 -0.4816
12607SOL     OW38601   4.590   6.820   4.106  0.1044  0.0703  0.0287
12607SOL    HW138602   4.680   6.852   4.104  0.4611 -0.9387 -1.7822
12607SOL    HW238603   4.587   6.764   4.184  1.0019  0.2273  0.1898
12608SOL     OW38604   5.868   1.821   5.575  0.1221  0.5246 -0.2894
12608SOL    HW138605   5.944   1.789   5.623  1.5247  3.0221 -0.7292
12608SOL    HW238606   5.796   1.766   5.607  1.3625  0.6053  3.0194
12609SOL     OW38607   1.497   1.324   5.759  0.0665  0.2235  0.3305
12609SOL    HW138608   1.422   1.271   5.732  1.2734 -0.9069 -0.9454
12609SOL    HW238609   1.501   1.314   5.854 -1.4326  0.3781  0.4304
12610SOL     OW38610   0.496   1.719   4.787 -0.4224 -0.0839  0.0899
12610SOL    HW138611   0.585   1.713   4.821 -0.8860  0.6585  1.4939
12610SOL    HW238612   0.476   1.630   4.757  1.1937  0.0033 -1.3708
12611SOL     OW38613   3.537   5.924   0.860 -0.1932 -0.1022  0.0653
12611SOL    HW138614   3.450   5.888   0.841  1.1184 -2.3504 -2.2024
12611SOL    HW238615   3.572   5.866   0.928  0.7980 -1.4596 -1.5223
12612SOL     OW38616   0.934   4.555   6.525 -0.3637 -0.4918 -0.1217
12612SOL    HW138617   0.964   4.464   6.528 -0.5432 -0.5942 -1.1862
12612SOL    HW238618   1.000   4.601   6.472 -1.2036 -0.3803 -1.0926
12613SOL     OW38619   6.425   7.315   2.383 -0.1225  0.3299  0.1904
12613SOL    HW138620   6.409   7.223   2.405 -0.6175  0.4550  0.3603
12613SOL    HW238621   6.430   7.359   2.468  0.1861  0.4509  0.1118
12614SOL     OW38622   3.494   6.094   7.502 -0.8816  0.3473  0.0868
12614SOL    HW138623   3.581   6.075   7.467  0.1268  3.6504  0.5471
12614SOL    HW238624   3.491   6.048   7.586  0.5380  0.4305  0.1956
12615SOL     OW38625   7.426   2.676   6.392 -0.3381  0.1493 -0.2537
12615SOL    HW138626   7.449   2.768   6.407 -2.1201  0.3708  1.6147
12615SOL    HW238627   7.508   2.629   6.407  0.2511  1.3202  0.4290
12616SOL     OW38628   4.889   2.866   2.842 -0.1830 -0.2992  0.1568
12616SOL    HW138629   4.953   2.888   2.911 -2.2314  0.7950  1.8245
12616SOL    HW238630   4.839   2.947   2.830 -1.2621 -1.1245 -1.0997
12617SOL     OW38631   1.660   0.912   5.484 -0.2900  0.0239 -0.0523
12617SOL    HW138632   1.620   0.914   5.572 -0.5468 -0.4443 -0.1513
12617SOL    HW238633   1.585   0.905   5.425 -0.0331 -2.2942 -0.1756
12618SOL     OW38634   5.744   0.912   6.339  0.6224 -0.1840  0.0953
12618SOL    HW138635   5.726   0.902   6.433 -1.2382  0.6146 -0.1352
12618SOL    HW238636   5.814   0.977   6.335  0.2927  0.2370  0.9280
12619SOL     OW38637   3.093   7.247   4.471 -0.3548 -0.5813 -0.5465
12619SOL    HW138638   3.025   7.215   4.411  0.3944 -1.6955 -0.8436
12619SOL    HW238639   3.047   7.307   4.530 -0.9753  1.2411 -2.7336
12620SOL     OW38640   5.710   5.694   8.044 -0.4678 -0.2556  0.4048
12620SOL    HW138641   5.752   5.623   8.092 -1.6888 -1.7610 -0.6399
12620SOL    HW238642   5.782   5.746   8.009  0.5355 -2.3802 -0.8178
12621SOL     OW38643   7.461   6.380   6.427 -0.0242  0.6646 -0.3811
12621SOL    HW138644   7.393   6.445   6.409 -0.7796  0.7019  2.2655
12621SOL    HW238645   7.543   6.425   6.408 -0.6223  1.3745 -1.4164
12622SOL     OW38646   5.461   5.719   6.853  0.2916 -0.8027  0.0223
12622SOL    HW138647   5.405   5.711   6.931 -0.9488 -0.5234 -0.8025
12622SOL    HW238648   5.523   5.646   6.860 -0.4146 -1.3460  0.7963
12623SOL     OW38649   3.207   0.250   4.441 -0.2262  0.5137 -1.0738
12623SOL    HW138650   3.166   0.163   4.450  1.9229 -0.3538  2.2766
12623SOL    HW238651   3.145   0.310   4.483 -0.6903  0.1960 -1.3000
12624SOL     OW38652   3.335   3.240   7.877 -0.5587  0.5583 -0.0347
12624SOL    HW138653   3.307   3.262   7.966  1.4041 -0.0082  0.7788
12624SOL    HW238654   3.357   3.147   7.881 -1.3229  0.2882 -1.3831
12625SOL     OW38655   2.096   2.927   1.432 -0.4716 -0.5547  0.5889
12625SOL    HW138656   2.109   2.848   1.484 -0.5069 -0.5021  0.6770
12625SOL    HW238657   2.097   2.998   1.496  0.0548 -0.4384  0.4557
12626SOL     OW38658   5.920   0.364   0.364 -0.0526 -0.0500  0.0265
12626SOL    HW138659   5.872   0.361   0.281 -0.0443 -1.2913  0.0474
12626SOL    HW238660   5.952   0.454   0.370  0.1519  0.0037 -1.4404
12627SOL     OW38661   3.468   8.290   1.281 -0.1967  0.4030  0.0675
12627SOL    HW138662   3.415   8.212   1.260 -0.5015  0.0044  2.0737
12627SOL    HW238663   3.438   8.357   1.220 -0.0861 -0.9799 -1.5570
12628SOL     OW38664   3.291   8.079   3.102 -0.7315 -0.0266 -0.7739
12628SOL    HW138665   3.280   8.017   3.030 -0.3475 -0.8813 -0.1022
12628SOL    HW238666   3.374   8.123   3.083  0.2807 -1.5209  0.0780
12629SOL     OW38667   2.299   0.025   4.524  0.2218  0.0377 -0.1514
12629SOL    HW138668   2.307   0.095   4.589 -2.1992 -0.5583  0.9122
12629SOL    HW238669   2.270   0.070   4.444 -1.4967  0.3192  0.5726
12630SOL     OW38670   5.731   4.106   7.590  0.0054 -0.0835 -0.3063
12630SOL    HW138671   5.771   4.043   7.530  2.2014 -1.0730  2.0193
12630SOL    HW238672   5.718   4.057   7.672 -2.4287  1.3277  0.2585
12631SOL     OW38673   3.148   3.703   6.995  0.1878  0.7973  0.4225
12631SOL    HW138674   3.180   3.734   6.911 -1.5330 -0.0718 -0.5930
12631SOL    HW238675   3.196   3.622   7.011 -1.7892 -0.8460 -1.4040
12632SOL     OW38676   2.848   5.949   7.876  0.3224  0.2166 -0.0820
12632SOL    HW138677   2.815   5.976   7.791  0.8606  0.9648 -0.0596
12632SOL    HW238678   2.772   5.910   7.920  0.2820 -1.1054 -1.2710
12633SOL     OW38679   5.910   6.003   8.194 -0.8874 -0.0816 -0.6033
12633SOL    HW138680   5.915   5.945   8.270  0.1697  0.0597 -0.5591
12633SOL    HW238681   5.816   6.019   8.183 -1.3117 -2.4791 -1.1319
12634SOL     OW38682   5.925   7.061   3.349  0.3330  0.2039 -0.4955
12634SOL    HW138683   5.838   7.091   3.375  0.0123 -0.1543 -1.1331
12634SOL    HW238684   5.922   7.056   3.253  1.8078  2.4725 -0.7372
12635SOL     OW38685   6.126   1.259   0.342  0.6908  0.1069 -0.0053
12635SOL    HW138686   6.082   1.173   0.346 -1.8244  1.2766 -0.5864
12635SOL    HW238687   6.179   1.262   0.422  1.0662 -2.0756 -0.1010
12636SOL     OW38688   5.932   1.881   3.513 -0.0117  0.1748  0.7206
12636SOL    HW138689   5.923   1.959   3.568  1.9820  1.5260 -0.7159
12636SOL    HW238690   6.018   1.846   3.536 -1.0429 -1.8925  1.6237
12637SOL     OW38691   1.908   5.963   7.096 -0.0313  0.6577  0.2053
12637SOL    HW138692   1.983   5.920   7.055 -0.4962 -0.2820  0.3368
12637SOL    HW238693   1.933   6.056   7.098  1.4970  0.2683  1.0004
12638SOL     OW38694   1.582   6.260   6.928 -0.0266  0.3073  0.0713
12638SOL    HW138695   1.644   6.315   6.977  0.7455  0.8249 -1.4214
12638SOL    HW238696   1.638   6.204   6.874 -0.8540 -0.2592 -0.2127
12639SOL     OW38697   7.539   4.920   6.955 -0.1377  0.2969 -0.2055
12639SOL    HW138698   7.603   4.920   7.027  1.3344 -1.3898 -1.4319
12639SOL    HW238699   7.454   4.924   6.999  0.7244 -0.4975  1.6400
12640SOL     OW38700   3.694   5.501   0.906  0.4223  0.0968  0.2622
12640SOL    HW138701   3.786   5.523   0.917  0.6004  0.0145 -0.9471
12640SOL    HW238702   3.666   5.552   0.831 -1.0102  1.4933  1.6541
12641SOL     OW38703   4.437   3.517   3.071  0.7207  0.3753  0.4835
12641SOL    HW138704   4.390   3.443   3.109  0.2609  0.6208  0.4076
12641SOL    HW238705   4.424   3.507   2.976 -2.6362  2.6064  0.5437
12642SOL     OW38706   0.521   3.934   5.054 -0.2132  0.4890 -0.0807
12642SOL    HW138707   0.506   4.028   5.045  1.0586  0.5595 -1.8354
12642SOL    HW238708   0.613   3.922   5.032 -0.5659 -1.2781 -0.7767
12643SOL     OW38709   8.170   5.868   7.572  0.0172  0.0671 -0.1030
12643SOL    HW138710   8.077   5.853   7.586  0.0247 -0.3799 -0.5185
12643SOL    HW238711   8.213   5.828   7.647 -0.1320  0.3802  0.1500
12644SOL     OW38712   1.977   4.260   7.359  0.2870  0.5089  0.6652
12644SOL    HW138713   2.013   4.171   7.353  1.3400  1.0215 -1.4844
12644SOL    HW238714   1.884   4.247   7.377 -0.0205 -1.1389 -1.6901
12645SOL     OW38715   4.238   5.738   6.009  0.1691  0.1241  0.0970
12645SOL    HW138716   4.273   5.698   5.929 -1.2816  2.8605 -2.0746
12645SOL    HW238717   4.316   5.758   6.062  1.1052 -2.5275 -0.0984
12646SOL     OW38718   3.576   4.740   1.723  0.1064 -0.0191 -0.4805
12646SOL    HW138719   3.622   4.772   1.801  0.2274  0.5617 -0.7812
12646SOL    HW238720   3.595   4.647   1.721  0.3710  0.0171  0.0094
12647SOL     OW38721   6.863   6.085   4.931 -0.1467  0.4362  0.2428
12647SOL    HW138722   6.917   6.116   5.004 -0.3872  0.1044  0.5694
12647SOL    HW238723   6.926   6.057   4.864  0.1520 -1.2948  1.1749
12648SOL     OW38724   7.426   6.243   5.843 -0.3189  0.3335 -0.4644
12648SOL    HW138725   7.491   6.228   5.775 -1.0658 -3.1742 -0.5776
12648SOL    HW238726   7.346   6.266   5.795 -1.0889 -3.0033 -1.0548
12649SOL     OW38727   2.317   7.498   0.694  0.2496  0.2506 -0.5134
12649SOL    HW138728   2.362   7.583   0.689  1.6697 -0.3441  1.2738
12649SOL    HW238729   2.254   7.508   0.765  0.1445 -0.0647 -0.5606
12650SOL     OW38730   5.176   4.074   6.660  0.3276 -0.7065  0.9327
12650SOL    HW138731   5.172   4.090   6.754  1.8503 -3.0621  1.5052
12650SOL    HW238732   5.120   3.997   6.646  0.5634 -0.7239  0.0216
12651SOL     OW38733   5.193   1.895   7.132  0.0994 -0.3737  0.1888
12651SOL    HW138734   5.141   1.845   7.195 -0.7070 -1.9535 -1.6570
12651SOL    HW238735   5.129   1.934   7.073  0.8255  1.4122  0.5025
12652SOL     OW38736   3.345   5.277   4.034  0.1290 -0.5074  0.1455
12652SOL    HW138737   3.394   5.279   4.115 -0.3320 -1.3500  0.4634
12652SOL    HW238738   3.290   5.198   4.041  1.0576 -1.3768 -1.5450
12653SOL     OW38739   6.518   5.102   4.915  0.0605 -0.3714  0.2208
12653SOL    HW138740   6.584   5.096   4.847  0.3905  0.7874  0.4208
12653SOL    HW238741   6.510   5.196   4.933  0.1195 -0.6627  1.9136
12654SOL     OW38742   0.971   5.018   2.552 -0.0468  0.4059 -0.5989
12654SOL    HW138743   1.002   4.929   2.572  0.4746  0.7832  0.3623
12654SOL    HW238744   1.019   5.043   2.474 -0.7721 -0.4340 -1.3492
12655SOL     OW38745   8.206   7.672   8.009 -0.2259  0.6019 -0.1365
12655SOL    HW138746   8.178   7.714   7.928 -0.1196  0.9352 -0.0048
12655SOL    HW238747   8.238   7.586   7.983 -0.4463  0.6034 -0.4118
12656SOL     OW38748   5.005   7.357   8.063 -0.0070  0.4932 -0.1553
12656SOL    HW138749   4.982   7.277   8.111 -3.1108  1.0796 -0.4897
12656SOL    HW238750   5.007   7.425   8.131 -2.8819  1.0394 -0.4838
12657SOL     OW38751   4.001   0.053   5.886 -0.5471  0.1844 -0.3208
12657SOL    HW138752   4.021  -0.038   5.865 -1.4856 -0.0828 -0.1308
12657SOL    HW238753   4.082   0.101   5.868  0.2899 -0.8441  0.5775
12658SOL     OW38754   6.501   5.314   6.858  0.3454 -0.0693 -0.5789
12658SOL    HW138755   6.563   5.316   6.786 -1.6332  0.9225 -2.3376
12658SOL    HW238756   6.435   5.250   6.832  0.0032 -0.2959  0.7314
12659SOL     OW38757   1.813   2.356   1.674 -0.0585 -0.5060 -0.5555
12659SOL    HW138758   1.782   2.277   1.718  0.2653 -0.6029 -0.4984
12659SOL    HW238759   1.851   2.409   1.744 -1.9997  0.5784 -0.2573
12660SOL     OW38760   4.332   1.014   4.105 -0.0977 -0.0496  0.3905
12660SOL    HW138761   4.275   1.031   4.180  0.4777 -0.4986  0.9415
12660SOL    HW238762   4.331   1.095   4.055 -0.2875  0.3423  1.0199
12661SOL     OW38763   8.143   7.072   6.186 -0.0567 -0.4369  0.0433
12661SOL    HW138764   8.167   7.071   6.278 -0.4508 -1.2268  0.1446
12661SOL    HW238765   8.073   7.137   6.180  0.1507 -0.1908  0.2468
12662SOL     OW38766   3.582   8.260   7.690  0.4461  0.1594 -0.6421
12662SOL    HW138767   3.642   8.293   7.758 -0.1722 -1.1075  0.5761
12662SOL    HW238768   3.520   8.331   7.676  0.2834  0.2603  0.5069
12663SOL     OW38769   2.546   4.853   7.848 -0.0712  0.3747 -0.2101
12663SOL    HW138770   2.460   4.891   7.862  0.1004  0.3421  1.0667
12663SOL    HW238771   2.607   4.921   7.879  0.2573 -0.5859  1.3718
12664SOL     OW38772   2.277   8.029   7.979 -0.5303 -0.1944 -0.3806
12664SOL    HW138773   2.364   8.008   8.012 -0.3400 -0.8815 -1.2583
12664SOL    HW238774   2.229   7.946   7.985 -0.9070  0.0096 -0.5485
12665SOL     OW38775   8.309   0.050   2.617 -0.6706  0.0925 -0.3761
12665SOL    HW138776   8.317  -0.014   2.688 -3.8130  1.4786  1.4158
12665SOL    HW238777   8.267   0.001   2.546 -0.1286 -0.5973 -0.2359
12666SOL     OW38778   7.283   7.996   1.549  0.1774  0.3130 -0.3314
12666SOL    HW138779   7.217   8.044   1.500  0.7934  1.6092  0.0695
12666SOL    HW238780   7.311   8.057   1.617  1.4395 -0.3886 -0.1959
12667SOL     OW38781   3.437   7.312   3.033  0.5600 -0.0043 -0.0410
12667SOL    HW138782   3.502   7.250   3.065  1.0833  0.7234  0.3217
12667SOL    HW238783   3.485   7.367   2.970 -0.1483 -0.6177 -1.1503
12668SOL     OW38784   3.989   2.148   6.343  0.5517  0.3180 -0.0079
12668SOL    HW138785   3.925   2.218   6.340 -1.3378 -1.2442  1.3989
12668SOL    HW238786   4.069   2.190   6.376 -1.2156  1.4101  3.3247
12669SOL     OW38787   6.704   0.253   0.869 -0.0924 -0.5751  0.0340
12669SOL    HW138788   6.618   0.212   0.868 -0.2538 -0.2287 -0.7266
12669SOL    HW238789   6.696   0.329   0.812 -0.0134  1.0159  2.0136
12670SOL     OW38790   2.399   1.210   0.433  0.1894  0.6092  0.2467
12670SOL    HW138791   2.397   1.135   0.492  1.4887  0.0895 -0.3393
12670SOL    HW238792   2.459   1.184   0.363  0.9493  2.3350  0.2133
12671SOL     OW38793   6.494   3.123   7.915  0.7573 -0.3855 -0.1365
12671SOL    HW138794   6.551   3.087   7.847 -0.2320 -1.2132 -0.5673
12671SOL    HW238795   6.447   3.046   7.949  1.6733 -0.1031  1.9471
12672SOL     OW38796   3.166   6.195   4.478  0.1366  0.3436 -0.3314
12672SOL    HW138797   3.176   6.160   4.390  0.8801 -1.2702  0.3444
12672SOL    HW238798   3.163   6.117   4.534 -0.7772  1.3196  1.0254
12673SOL     OW38799   1.634   0.696   0.021 -0.0107 -0.6653  0.3088
12673SOL    HW138800   1.597   0.613   0.052 -0.1088  0.0248  2.1361
12673SOL    HW238801   1.684   0.730   0.095 -1.0760  1.5650  0.0903
12674SOL     OW38802   6.536   6.203   1.800 -0.2396  0.0567 -0.4190
12674SOL    HW138803   6.625   6.221   1.771 -0.3833  0.1660 -0.7939
12674SOL    HW238804   6.510   6.283   1.847 -0.4974  0.4196 -1.1711
12675SOL     OW38805   1.818   4.470   2.791 -0.7846  0.1265  0.2542
12675SOL    HW138806   1.783   4.438   2.874 -0.9063 -1.0397 -0.2304
12675SOL    HW238807   1.882   4.404   2.765 -0.6554  0.5457 -0.5293
12676SOL     OW38808   3.824   6.901   3.882 -0.4201  0.4670 -0.1093
12676SOL    HW138809   3.811   6.806   3.875  1.5359  0.2120 -0.8255
12676SOL    HW238810   3.784   6.937   3.804  0.1840  0.0519 -0.6191
12677SOL     OW38811   4.853   4.741   7.141  0.1306 -0.1420  0.2837
12677SOL    HW138812   4.834   4.739   7.235 -0.2682  0.5506  0.2255
12677SOL    HW238813   4.807   4.664   7.106  1.0135 -0.9115  0.7715
12678SOL     OW38814   3.097   0.863   1.813  0.2055  0.2406  0.5345
12678SOL    HW138815   3.152   0.940   1.799  1.4534 -0.2313  2.4294
12678SOL    HW238816   3.008   0.892   1.794  0.7990  1.7668 -0.0523
12679SOL     OW38817   1.829   6.701   6.090  0.1238 -0.3022 -0.4134
12679SOL    HW138818   1.818   6.767   6.021  1.2193  0.4010  0.0716
12679SOL    HW238819   1.741   6.666   6.103 -0.5119  1.1542 -0.5865
12680SOL     OW38820   4.836   2.982   3.334  0.2483  0.2330  0.4018
12680SOL    HW138821   4.842   3.041   3.409 -0.8587 -0.3158  0.9495
12680SOL    HW238822   4.804   2.899   3.372 -0.9046  0.1281 -0.7547
12681SOL     OW38823   4.351   5.052   2.967  0.0347  0.1684 -0.8925
12681SOL    HW138824   4.416   4.997   2.924  1.9338  2.5431 -1.3360
12681SOL    HW238825   4.269   5.033   2.922  0.3255 -3.0301 -0.2448
12682SOL     OW38826   6.059   0.828   5.977 -0.1709 -0.5322 -0.6332
12682SOL    HW138827   6.140   0.792   5.943  0.3090  0.8445 -1.0417
12682SOL    HW238828   6.050   0.790   6.065  0.3194 -1.5481 -1.0148
12683SOL     OW38829   1.950   1.707   1.603 -0.2753 -0.1716  0.0053
12683SOL    HW138830   1.938   1.613   1.609  2.1953 -0.6511 -1.3307
12683SOL    HW238831   1.976   1.723   1.513  1.5609  1.4466  0.7365
12684SOL     OW38832   4.530   5.189   5.133 -0.0686 -0.3885  0.5263
12684SOL    HW138833   4.492   5.275   5.147 -1.7189 -1.0046 -0.0036
12684SOL    HW238834   4.604   5.204   5.074 -1.2122  0.4935 -0.7149
12685SOL     OW38835   3.906   4.955   8.102  0.3720 -0.6218  0.5445
12685SOL    HW138836   3.892   4.995   8.188 -0.1227  0.9511 -0.2275
12685SOL    HW238837   3.983   5.000   8.067 -0.8253  0.4833 -0.7838
12686SOL     OW38838   2.992   5.814   5.809 -0.6151 -0.3187 -0.3122
12686SOL    HW138839   3.067   5.775   5.763 -0.6863 -1.9598  0.8910
12686SOL    HW238840   3.019   5.905   5.823  0.8194 -0.6602 -0.6107
12687SOL     OW38841   2.512   1.510   3.950 -0.0820  0.7258 -0.4186
12687SOL    HW138842   2.442   1.525   3.886 -2.7113  1.9726  2.4524
12687SOL    HW238843   2.498   1.579   4.016  2.9428  0.0349  1.0960
12688SOL     OW38844   7.403   4.915   6.177 -0.2417 -0.0459 -0.4513
12688SOL    HW138845   7.372   4.824   6.183  1.1326 -0.6487 -1.9816
12688SOL    HW238846   7.336   4.959   6.126 -0.5980 -0.3400 -0.2501
12689SOL     OW38847   2.646   7.110   5.775 -0.4478  0.1876 -0.5947
12689SOL    HW138848   2.721   7.051   5.764 -0.2626  0.2450  0.2526
12689SOL    HW238849   2.685   7.195   5.796 -0.7342  0.3900 -0.8810
12690SOL     OW38850   3.062   1.723   6.904 -0.2437  0.7744 -0.2564
12690SOL    HW138851   2.968   1.708   6.899 -0.2541  1.1082 -1.1157
12690SOL    HW238852   3.101   1.636   6.895 -0.4954  0.4380  1.5654
12691SOL     OW38853   5.034   4.228   4.458 -0.2857 -0.1283  0.5654
12691SOL    HW138854   5.031   4.319   4.486  0.6486 -0.4446  1.7649
12691SOL    HW238855   5.071   4.231   4.369  2.0497  0.5331  1.4866
12692SOL     OW38856   6.090   8.009   6.146  0.3830  0.1820  0.0847
12692SOL    HW138857   6.068   8.066   6.219 -1.6364 -0.6483  0.1947
12692SOL    HW238858   6.013   8.011   6.090  1.3761 -0.2430 -1.3740
12693SOL     OW38859   2.115   1.907   4.443  0.4360  0.6045  0.9423
12693SOL    HW138860   2.186   1.952   4.488  0.0150  2.4052 -0.0981
12693SOL    HW238861   2.046   1.899   4.508  0.7347  0.9579  1.3016
12694SOL     OW38862   8.212   7.157   1.013 -0.3472  0.0719 -0.6575
12694SOL    HW138863   8.294   7.111   1.031 -0.6643 -1.7435 -3.1986
12694SOL    HW238864   8.226   7.198   0.927 -2.1025 -0.4330 -1.2339
12695SOL     OW38865   5.723   8.291   2.406 -0.2027 -0.0502  0.0007
12695SOL    HW138866   5.797   8.231   2.416 -1.0044 -1.5706 -2.2830
12695SOL    HW238867   5.717   8.306   2.311 -0.9613  2.5432  0.3726
12696SOL     OW38868   2.376   7.706   4.177  0.1448 -0.4696 -0.1215
12696SOL    HW138869   2.381   7.716   4.082  0.4090 -2.1936 -0.3157
12696SOL    HW238870   2.467   7.701   4.205  0.0532 -0.6024  0.1536
12697SOL     OW38871   2.059   4.307   3.763  0.2266  0.2443 -0.7502
12697SOL    HW138872   2.083   4.395   3.791 -0.0406  0.5860 -1.5573
12697SOL    HW238873   1.963   4.307   3.764  0.2242 -0.4876  0.5827
12698SOL     OW38874   1.947   0.577   0.067 -0.0810  0.0606 -0.3040
12698SOL    HW138875   1.927   0.627  -0.012 -0.6416 -2.2747 -1.7630
12698SOL    HW238876   1.873   0.593   0.125  0.3790  1.8785 -0.1514
12699SOL     OW38877   4.359   2.742   4.905  0.1526  0.0561 -0.6256
12699SOL    HW138878   4.288   2.741   4.968  0.6661  0.8319 -0.0088
12699SOL    HW238879   4.322   2.702   4.826 -0.3307 -1.4504  0.3187
12700SOL     OW38880   6.073   0.128   0.331  0.4462 -0.6814 -0.0551
12700SOL    HW138881   6.015   0.080   0.271  0.9670 -3.0478  1.1894
12700SOL    HW238882   6.032   0.213   0.341  0.0581 -0.3367 -3.3163
12701SOL     OW38883   1.294   3.281   0.309 -0.2213 -0.3563 -0.1628
12701SOL    HW138884   1.374   3.330   0.328  0.7592 -1.9645  0.0338
12701SOL    HW238885   1.298   3.266   0.214  1.1595 -2.7486  0.2024
12702SOL     OW38886   2.649   1.739   3.778  0.2271  0.2923 -0.6095
12702SOL    HW138887   2.648   1.834   3.792  0.6518  0.0053  1.8130
12702SOL    HW238888   2.665   1.702   3.865 -3.4399 -2.1686 -0.7368
12703SOL     OW38889   1.781   5.115   3.849 -0.3881  0.2295  0.0662
12703SOL    HW138890   1.733   5.101   3.768 -2.4886 -2.0316  1.5452
12703SOL    HW238891   1.720   5.163   3.905  0.9364  1.5706  0.4217
12704SOL     OW38892   2.691   0.980   1.395 -0.3060  0.0376 -0.0474
12704SOL    HW138893   2.681   1.009   1.305  0.1698  3.3472  0.8261
12704SOL    HW238894   2.657   1.053   1.447  2.9494 -0.0312  2.4958
12705SOL     OW38895   3.918   5.931   5.379 -0.1327 -0.4950  0.2061
12705SOL    HW138896   3.872   5.856   5.416 -1.2846  0.0627 -0.0108
12705SOL    HW238897   3.887   5.936   5.289 -1.8456  1.4917  0.7959
12706SOL     OW38898   1.056   2.338   2.157  0.4332 -0.4931 -0.6052
12706SOL    HW138899   0.970   2.333   2.198  0.4139  0.5615 -0.4856
12706SOL    HW238900   1.065   2.256   2.109 -0.7603 -0.4972 -0.8557
12707SOL     OW38901   3.959   5.550   3.061  0.0146 -0.1660 -0.2298
12707SOL    HW138902   4.000   5.481   3.114 -1.3432  0.0005  1.0814
12707SOL    HW238903   3.891   5.505   3.012  1.5733 -0.4167 -2.3216
12708SOL     OW38904   5.426   0.282   2.209  0.0617  0.1133  0.1114
12708SOL    HW138905   5.394   0.310   2.294 -2.2837 -0.1571 -0.5892
12708SOL    HW238906   5.436   0.187   2.217 -1.8334 -0.1620 -0.3455
12709SOL     OW38907   5.114   4.029   6.319  0.3182  0.1172  0.1048
12709SOL    HW138908   5.204   4.051   6.294  0.6104 -0.6943  0.4143
12709SOL    HW238909   5.123   3.974   6.397 -0.2683 -2.2390 -1.3733
12710SOL     OW38910   5.266   1.081   1.625  0.2754  0.0571  0.3667
12710SOL    HW138911   5.262   1.005   1.566 -0.4527 -0.0443  0.5454
12710SOL    HW238912   5.181   1.123   1.616  0.7297  0.9516  0.1501
12711SOL     OW38913   0.471   2.434   1.284 -0.8878 -0.2825 -0.4002
12711SOL    HW138914   0.531   2.458   1.354  1.0217 -1.8414 -1.4078
12711SOL    HW238915   0.476   2.507   1.222  0.3011 -0.5715 -0.6631
12712SOL     OW38916   2.193   1.855   1.727 -0.4125  0.1871 -0.1051
12712SOL    HW138917   2.171   1.941   1.691 -1.0134  0.3191  0.5773
12712SOL    HW238918   2.113   1.804   1.717 -0.3389 -0.0140  0.3280
12713SOL     OW38919   2.795   2.788   5.275 -0.0150  0.1595 -0.1342
12713SOL    HW138920   2.743   2.867   5.260  0.1108 -0.0584 -1.8804
12713SOL    HW238921   2.731   2.716   5.273  0.0700  0.0812 -0.0596
12714SOL     OW38922   1.626   1.711   0.814  0.5516 -0.0789 -0.2447
12714SOL    HW138923   1.677   1.694   0.893 -0.7619 -0.0332  0.6523
12714SOL    HW238924   1.671   1.662   0.745  0.3104 -2.2650  1.0408
12715SOL     OW38925   7.714   7.286   8.297 -0.3569  0.4270  0.1567
12715SOL    HW138926   7.789   7.329   8.256 -1.1057 -0.2913 -2.1452
12715SOL    HW238927   7.643   7.298   8.234 -1.3019 -1.7798  0.7055
12716SOL     OW38928   3.655   1.188   6.256  0.0931 -0.3495  0.4548
12716SOL    HW138929   3.623   1.243   6.185  0.4859 -0.9068 -0.1628
12716SOL    HW238930   3.749   1.206   6.260  0.0191 -0.0481  1.0866
12717SOL     OW38931   0.823   4.568   5.958  0.4026  0.0551  0.1075
12717SOL    HW138932   0.899   4.530   6.001  0.0281 -1.1396 -0.2572
12717SOL    HW238933   0.750   4.513   5.986 -0.1741  0.5699 -0.3554
12718SOL     OW38934   4.264   0.159   7.049 -0.2914  0.3583 -0.7457
12718SOL    HW138935   4.314   0.237   7.071 -0.1457  0.2095 -0.5451
12718SOL    HW238936   4.328   0.097   7.015 -0.1840 -0.1694  0.3861
12719SOL     OW38937   1.987   1.325   3.462 -0.2477 -0.2764  0.3744
12719SOL    HW138938   2.031   1.321   3.377  1.6492  1.0020  1.2294
12719SOL    HW238939   1.946   1.239   3.471 -0.0938 -0.6152 -1.5977
12720SOL     OW38940   8.252   7.123   2.311  0.0616 -0.4879 -0.1349
12720SOL    HW138941   8.317   7.175   2.264 -0.6337 -0.9114 -1.6173
12720SOL    HW238942   8.197   7.188   2.355  0.2961 -0.0462 -0.4880
12721SOL     OW38943   2.922   2.356   2.591  0.2548  0.4701 -0.6878
12721SOL    HW138944   2.840   2.341   2.638 -0.8155  2.3848 -1.7978
12721SOL    HW238945   2.990   2.347   2.657 -1.0988  2.0158  1.0092
12722SOL     OW38946   5.172   1.703   3.848 -0.0056  0.2469 -0.7384
12722SOL    HW138947   5.153   1.648   3.925 -0.6995  1.3371 -0.1008
12722SOL    HW238948   5.148   1.648   3.773 -0.1465 -0.5226 -0.1483
12723SOL     OW38949   0.815   4.265   5.301 -0.1968 -0.7237  0.2894
12723SOL    HW138950   0.781   4.301   5.219 -0.2383 -3.0234 -0.7745
12723SOL    HW238951   0.773   4.317   5.369 -0.9518  0.5838 -1.1229
12724SOL     OW38952   7.622   8.124   2.513 -0.1103 -0.0689 -0.0944
12724SOL    HW138953   7.714   8.149   2.503  0.4950 -2.4201 -1.0573
12724SOL    HW238954   7.605   8.064   2.440 -2.8013  1.2479 -0.6921
12725SOL     OW38955   4.411   3.290   0.311  0.0033  0.3239  0.4445
12725SOL    HW138956   4.402   3.357   0.243  2.2868  2.0264  1.7110
12725SOL    HW238957   4.504   3.287   0.330  0.0541 -3.3904  0.3724
12726SOL     OW38958   1.018   1.864   3.679  0.2360 -0.0097 -0.3233
12726SOL    HW138959   0.969   1.943   3.705  0.8898  0.0353  0.8433
12726SOL    HW238960   0.993   1.799   3.744 -0.1769 -0.7389 -1.1922
12727SOL     OW38961   4.039   2.425   5.459 -0.2145  0.5426  0.6104
12727SOL    HW138962   4.030   2.442   5.553  0.7430 -1.0188  1.0327
12727SOL    HW238963   4.014   2.506   5.417 -0.8896  1.2029  2.2186
12728SOL     OW38964   4.856   8.159   1.664 -0.5526 -0.1759  0.0478
12728SOL    HW138965   4.882   8.229   1.605 -0.1256 -0.4899 -0.1439
12728SOL    HW238966   4.779   8.193   1.711 -0.3560  0.4053 -0.0545
12729SOL     OW38967   5.807   6.852   1.038  0.3761  0.3268 -0.9012
12729SOL    HW138968   5.795   6.891   0.951  1.5011  1.0664 -0.7458
12729SOL    HW238969   5.720   6.824   1.064 -0.2202  1.4412 -1.6449
12730SOL     OW38970   3.658   7.233   1.299 -0.1258  0.3929  0.0054
12730SOL    HW138971   3.612   7.245   1.381  2.4029 -0.7486  1.7350
12730SOL    HW238972   3.707   7.314   1.286  0.2199  0.2075  0.1445
12731SOL     OW38973   2.216   8.073   2.565  0.4928  0.3454  0.0334
12731SOL    HW138974   2.168   7.998   2.600  0.5477  0.4889  0.4232
12731SOL    HW238975   2.271   8.102   2.637  1.2897  0.0849 -0.4636
12732SOL     OW38976   3.866   1.183   3.389  0.4687 -0.2486  0.1325
12732SOL    HW138977   3.927   1.153   3.322  1.3836 -0.7709  1.1619
12732SOL    HW238978   3.780   1.175   3.348  0.8062 -2.6697 -0.2638
12733SOL     OW38979   2.646   1.433   5.327  0.3485 -0.7542 -0.0191
12733SOL    HW138980   2.600   1.368   5.379  0.4408  0.3234  1.4903
12733SOL    HW238981   2.579   1.471   5.270 -0.0389 -1.0383  0.2454
12734SOL     OW38982   6.413   0.275   2.806 -0.0099  0.5724 -0.1479
12734SOL    HW138983   6.347   0.344   2.809 -0.2939  0.2764  0.7451
12734SOL    HW238984   6.407   0.232   2.891  1.2244  0.4312 -0.1084
12735SOL     OW38985   6.208   8.139   1.783  0.3902 -0.2343 -0.6024
12735SOL    HW138986   6.246   8.170   1.866 -1.6430 -0.6047  0.5455
12735SOL    HW238987   6.266   8.174   1.716  2.3368 -0.2175  0.9666
12736SOL     OW38988   6.305   0.616   6.334 -0.0296  0.3621  0.2066
12736SOL    HW138989   6.295   0.585   6.424 -0.0592  0.7859  0.3525
12736SOL    HW238990   6.294   0.537   6.280  1.0947 -0.0845  0.6194
12737SOL     OW38991   6.501   8.024   5.471 -0.0881 -0.2570 -0.0690
12737SOL    HW138992   6.514   8.096   5.410  0.2416 -1.1600 -1.0983
12737SOL    HW238993   6.573   7.964   5.454 -0.9174 -1.3211  0.0327
12738SOL     OW38994   2.537   2.331   0.360 -0.0504 -0.0190  0.4326
12738SOL    HW138995   2.517   2.423   0.376  1.3218  0.2765  0.5260
12738SOL    HW238996   2.619   2.315   0.406 -0.8183 -1.5947  1.3290
12739SOL     OW38997   2.748   4.718   0.421  0.3828  0.4992  0.0053
12739SOL    HW138998   2.692   4.654   0.377  0.1602 -0.2046  1.2742
12739SOL    HW238999   2.807   4.749   0.352  0.0526 -0.5705 -0.7917
12740SOL     OW39000   2.256   8.311   7.949  0.4794 -0.2303  0.3184
12740SOL    HW139001   2.190   8.317   7.880  1.3555 -0.0950 -0.5288
12740SOL    HW239002   2.259   8.218   7.972 -0.6770 -0.1052  1.0599
12741SOL     OW39003   2.792   3.352   5.602  0.0320  0.1138  0.0244
12741SOL    HW139004   2.773   3.398   5.684  0.1135 -0.3580  0.3094
12741SOL    HW239005   2.732   3.278   5.601 -0.8823  0.8352 -0.9705
12742SOL     OW39006   6.465   7.612   1.816 -0.4324  0.3295 -0.3691
12742SOL    HW139007   6.401   7.587   1.882  0.4387  0.8883  0.7041
12742SOL    HW239008   6.425   7.585   1.733 -0.4580 -2.7982  0.5140
12743SOL     OW39009   6.284   5.808   8.227 -0.0089  0.0708  0.0378
12743SOL    HW139010   6.233   5.747   8.173 -0.6514  1.9313 -1.5806
12743SOL    HW239011   6.355   5.836   8.169  2.0337 -1.2623  1.7341
12744SOL     OW39012   3.603   4.185   6.534 -0.2858 -0.0957  0.3124
12744SOL    HW139013   3.621   4.182   6.440  1.7233  0.1790  0.6513
12744SOL    HW239014   3.569   4.098   6.555 -1.6164  0.1102 -0.7884
12745SOL     OW39015   5.994   6.139   1.456  0.2546 -0.2996 -0.9929
12745SOL    HW139016   5.982   6.160   1.548 -0.1997  0.9769 -1.3266
12745SOL    HW239017   5.983   6.044   1.451  1.1704 -0.4972  0.3933
12746SOL     OW39018   7.353   7.445   7.417 -0.2360  0.2956  0.1894
12746SOL    HW139019   7.427   7.394   7.451 -0.3905 -1.4008 -1.8042
12746SOL    HW239020   7.393   7.515   7.365 -0.0429  1.0293  1.2967
12747SOL     OW39021   4.788   6.632   3.310 -0.2457  0.2722  0.0326
12747SOL    HW139022   4.726   6.654   3.240 -1.5101 -2.1370  0.2660
12747SOL    HW239023   4.830   6.552   3.279 -0.8686 -0.8784  2.0047
12748SOL     OW39024   4.408   5.712   5.558 -0.1350  0.2332  0.1088
12748SOL    HW139025   4.438   5.666   5.480  1.1322 -0.8305  1.1802
12748SOL    HW239026   4.341   5.772   5.526  0.3570 -0.1654 -1.7892
12749SOL     OW39027   3.860   5.780   3.138 -0.1549  0.1931  0.7248
12749SOL    HW139028   3.862   5.772   3.234 -1.4865 -2.1073  0.6549
12749SOL    HW239029   3.924   5.715   3.108  0.6607  1.2987  0.0403
12750SOL     OW39030   6.157   6.211   1.099 -0.0232 -0.5127 -0.0542
12750SOL    HW139031   6.232   6.257   1.062  0.1438 -0.1401  0.7213
12750SOL    HW239032   6.194   6.160   1.171 -0.2596 -1.6106 -0.6959
12751SOL     OW39033   1.641   2.984   5.150  0.6041  0.0491  0.5356
12751SOL    HW139034   1.588   3.063   5.150 -0.6457 -0.7438 -0.0775
12751SOL    HW239035   1.686   2.984   5.234  0.4251  1.2761  0.6410
12752SOL     OW39036   0.081   0.709   0.225 -0.2430  0.2070  0.0335
12752SOL    HW139037  -0.002   0.728   0.270 -0.6761  0.8808 -1.0088
12752SOL    HW239038   0.084   0.614   0.219  0.0728  0.0621  1.9122
12753SOL     OW39039   7.126   3.141   1.668  0.0743 -0.4604  0.2238
12753SOL    HW139040   7.033   3.165   1.672 -0.2587 -1.6820  0.2618
12753SOL    HW239041   7.160   3.166   1.754 -0.3157 -0.3528  0.3511
12754SOL     OW39042   8.027   1.064   5.490  0.4908 -0.2092  0.2705
12754SOL    HW139043   8.026   1.019   5.406 -0.8203  0.4311 -0.0956
12754SOL    HW239044   8.098   1.128   5.483 -0.9157  1.3057 -1.2166
12755SOL     OW39045   7.591   1.613   2.824 -0.6061 -1.1360 -0.6909
12755SOL    HW139046   7.575   1.519   2.834 -0.0818 -1.4611 -2.5684
12755SOL    HW239047   7.522   1.643   2.766 -1.7269  0.0091  1.1426
12756SOL     OW39048   6.101   0.022   4.076 -0.4627  0.0079 -0.4405
12756SOL    HW139049   6.103  -0.027   4.159 -2.2505  0.1117 -0.2951
12756SOL    HW239050   6.192   0.048   4.062 -0.1819  0.5515  1.8421
12757SOL     OW39051   4.262   1.607   4.382 -0.2902 -0.9638  0.4065
12757SOL    HW139052   4.194   1.572   4.325 -2.1044  0.9802  1.2358
12757SOL    HW239053   4.310   1.530   4.412 -1.4936 -2.3186 -0.9990
12758SOL     OW39054   4.173   6.535   4.724  0.4483  0.6666 -0.6079
12758SOL    HW139055   4.123   6.455   4.739  0.9419  0.6937  1.3756
12758SOL    HW239056   4.138   6.570   4.642 -1.1745 -0.5212 -0.4619
12759SOL     OW39057   7.534   3.315   2.560 -0.0586  0.0277  0.2096
12759SOL    HW139058   7.438   3.318   2.562 -0.0360  2.8609  0.8860
12759SOL    HW239059   7.561   3.345   2.646  1.4623 -0.5054 -0.0577
12760SOL     OW39060   0.919   5.950   2.473 -0.7591 -0.1145 -0.3748
12760SOL    HW139061   0.988   5.886   2.490 -0.1523  0.7413  0.4829
12760SOL    HW239062   0.840   5.911   2.510 -0.5553 -0.6842 -0.5235
12761SOL     OW39063   0.326   1.968   8.030  0.5546 -0.1984 -0.0236
12761SOL    HW139064   0.372   1.886   8.015 -0.1733 -0.4305 -1.0400
12761SOL    HW239065   0.343   2.021   7.952  1.2639  0.7544  0.7415
12762SOL     OW39066   2.484   0.164   6.854  0.2836  0.4581  0.7161
12762SOL    HW139067   2.509   0.244   6.900  2.4684 -0.6326  1.5589
12762SOL    HW239068   2.424   0.120   6.914 -1.2309  1.5734  0.0894
12763SOL     OW39069   4.612   1.458   4.719  0.4393  0.1599  0.3023
12763SOL    HW139070   4.533   1.502   4.750  0.3181 -0.0881  0.3410
12763SOL    HW239071   4.581   1.376   4.682  0.0470  1.9759 -3.9799
12764SOL     OW39072   1.574   5.961   7.859  0.0750 -0.0584 -0.0493
12764SOL    HW139073   1.598   5.886   7.803 -2.1548 -2.5506  2.0463
12764SOL    HW239074   1.481   5.975   7.840  0.1979  1.4987  0.4217
12765SOL     OW39075   5.105   8.257   5.347 -0.5777 -0.1310 -0.4392
12765SOL    HW139076   5.030   8.199   5.361  0.4798 -1.5989 -0.6838
12765SOL    HW239077   5.175   8.199   5.317  1.0272  1.0276  0.9287
12766SOL     OW39078   5.083   0.899   6.131 -0.4726  0.0061  0.4749
12766SOL    HW139079   5.040   0.940   6.055 -0.1130 -0.6305 -0.0895
12766SOL    HW239080   5.092   0.807   6.106  0.1196 -0.1087  1.0807
12767SOL     OW39081   4.042   2.950   3.899  0.6208  0.0391  0.4669
12767SOL    HW139082   3.964   2.971   3.950 -0.9573 -4.9404  0.7058
12767SOL    HW239083   4.106   2.920   3.964  1.1708  0.1339 -0.0176
12768SOL     OW39084   4.344   4.802   1.828 -0.0790  0.1761 -0.1708
12768SOL    HW139085   4.354   4.721   1.778 -2.4054  0.0970 -0.6228
12768SOL    HW239086   4.318   4.867   1.763 -0.3581  0.7532  0.5077
12769SOL     OW39087   4.713   2.334   8.080  0.2670 -0.1917  0.4755
12769SOL    HW139088   4.678   2.245   8.089  0.0558  0.0036  1.6607
12769SOL    HW239089   4.778   2.342   8.149  1.4832  0.0363 -0.6524
12770SOL     OW39090   4.958   7.029   0.146 -0.0624  0.3484 -0.0634
12770SOL    HW139091   4.966   7.020   0.051  0.3601 -0.1800  0.0202
12770SOL    HW239092   4.993   6.948   0.181  0.7413  0.9585  0.5874
12771SOL     OW39093   1.768   3.476   3.494  0.0840  0.2100  0.2948
12771SOL    HW139094   1.719   3.484   3.576 -1.3076 -0.2400 -0.4652
12771SOL    HW239095   1.784   3.566   3.467 -1.4148  0.3853 -0.0589
12772SOL     OW39096   4.527   6.027   8.280 -0.1683 -0.1804  0.6560
12772SOL    HW139097   4.456   6.031   8.344  0.6929  0.1357  1.6175
12772SOL    HW239098   4.510   5.948   8.229 -1.0457 -0.2562  1.0579
12773SOL     OW39099   0.780   6.267   7.894  0.1857  0.2637 -0.3615
12773SOL    HW139100   0.826   6.322   7.957  0.8791  1.0164 -1.4694
12773SOL    HW239101   0.806   6.303   7.809 -0.6883 -0.7366 -1.0705
12774SOL     OW39102   1.422   8.265   6.560 -0.1783 -0.2113  0.1304
12774SOL    HW139103   1.512   8.295   6.547 -0.6550  1.2172 -0.0835
12774SOL    HW239104   1.416   8.182   6.513  0.7774  0.1346 -0.6112
12775SOL     OW39105   8.069   6.398   3.838 -0.5357 -0.0156 -0.0971
12775SOL    HW139106   8.102   6.418   3.925  1.2384 -0.0161 -0.7234
12775SOL    HW239107   8.147   6.398   3.782 -1.3677 -1.8090 -1.3733
12776SOL     OW39108   1.564   4.538   4.653  0.3150  0.4142 -1.3212
12776SOL    HW139109   1.648   4.541   4.700 -1.0347 -0.6053  1.3742
12776SOL    HW239110   1.584   4.490   4.573  1.8773 -2.1183  0.4193
12777SOL     OW39111   1.828   4.625   6.890  0.3045  0.6361 -0.4513
12777SOL    HW139112   1.745   4.598   6.851  0.4696 -0.4088 -0.1243
12777SOL    HW239113   1.810   4.630   6.984  0.9826 -1.2340 -0.1716
12778SOL     OW39114   3.666   1.638   4.772  0.1745  0.2835 -0.1017
12778SOL    HW139115   3.691   1.728   4.752  0.5471 -0.0057 -0.9972
12778SOL    HW239116   3.585   1.624   4.724 -1.0751  0.7986  1.7508
12779SOL     OW39117   7.491   2.336   6.240  0.1282  0.0362 -0.1628
12779SOL    HW139118   7.535   2.257   6.208  0.7281  0.0537  0.6024
12779SOL    HW239119   7.399   2.321   6.220  0.3913 -0.3034 -1.1623
12780SOL     OW39120   1.607   7.073   5.354 -0.6002 -0.4812  0.3117
12780SOL    HW139121   1.579   7.153   5.310  2.2830  1.1327  1.1009
12780SOL    HW239122   1.671   7.034   5.294 -1.3134 -1.7196  0.3376
12781SOL     OW39123   1.557   5.357   3.280 -0.4637 -0.1147 -0.3485
12781SOL    HW139124   1.589   5.423   3.218 -0.6088  0.7856  0.5124
12781SOL    HW239125   1.503   5.406   3.341 -1.6066 -1.2327 -0.4033
12782SOL     OW39126   4.670   6.083   1.327  0.1911  0.1053 -0.5100
12782SOL    HW139127   4.701   6.044   1.245  1.7387 -0.1389  0.1437
12782SOL    HW239128   4.737   6.059   1.391  0.7419  3.0652  0.1425
12783SOL     OW39129   2.759   3.406   1.324 -0.0912 -0.3101  0.2730
12783SOL    HW139130   2.704   3.330   1.342 -1.0295 -0.1427 -1.6966
12783SOL    HW239131   2.698   3.480   1.322  0.3482  0.0391 -0.8314
12784SOL     OW39132   7.940   0.056   6.342  0.0563 -0.5274 -0.2803
12784SOL    HW139133   7.901   0.140   6.319  0.3025 -0.5659 -0.8552
12784SOL    HW239134   7.897  -0.007   6.284 -1.3462 -1.0751  1.2735
12785SOL     OW39135   3.700   4.899   6.649  0.6027  0.2340 -0.6241
12785SOL    HW139136   3.742   4.952   6.581 -1.2959  0.3729 -1.7622
12785SOL    HW239137   3.606   4.919   6.640  0.2912  0.4869  2.2408
12786SOL     OW39138   3.696   3.289   7.685 -0.1077 -0.4842  0.5957
12786SOL    HW139139   3.617   3.320   7.728  1.4674  2.3503  1.7609
12786SOL    HW239140   3.710   3.350   7.612  2.1018  0.5525  1.7755
12787SOL     OW39141   2.171   7.162   0.991  0.2906 -0.1610 -0.3231
12787SOL    HW139142   2.160   7.184   0.899 -0.2288 -1.2969 -0.5614
12787SOL    HW239143   2.137   7.237   1.039  0.9713  0.6256 -1.0418
12788SOL     OW39144   0.867   1.110   7.791  0.3463 -0.5583  0.2887
12788SOL    HW139145   0.841   1.024   7.822 -2.0410 -0.1159 -0.3337
12788SOL    HW239146   0.817   1.171   7.846  1.2895  0.4150  0.0963
12789SOL     OW39147   4.507   0.395   2.703 -0.1499 -0.1901 -0.6148
12789SOL    HW139148   4.508   0.485   2.672 -2.3711  0.3553  0.7123
12789SOL    HW239149   4.423   0.386   2.749  0.2643 -2.7629 -0.2151
12790SOL     OW39150   4.993   7.529   2.494  0.1658  0.5345  0.0159
12790SOL    HW139151   4.905   7.535   2.532  0.0915  1.8808 -0.2977
12790SOL    HW239152   5.011   7.436   2.489 -1.5780  0.2002 -0.6840
12791SOL     OW39153   6.447   5.801   4.796 -0.7508 -0.2323 -0.0657
12791SOL    HW139154   6.530   5.842   4.771 -1.1748  0.5869 -0.1555
12791SOL    HW239155   6.405   5.779   4.712 -1.5764  1.3200 -0.1118
12792SOL     OW39156   7.580   3.532   4.542 -0.3608 -0.1247 -0.1222
12792SOL    HW139157   7.525   3.465   4.585 -0.9891  0.4221 -0.0562
12792SOL    HW239158   7.646   3.554   4.608 -1.4048  0.8082  0.6406
12793SOL     OW39159   6.284   3.267   0.191  0.3589 -0.3258  1.0773
12793SOL    HW139160   6.341   3.267   0.268  1.1205 -1.0410  0.5301
12793SOL    HW239161   6.279   3.175   0.164  0.0458 -0.0946  0.3112
12794SOL     OW39162   8.069   2.892   5.365  0.8088 -0.0475 -0.7833
12794SOL    HW139163   8.084   2.955   5.294  1.0200  1.0978  0.2466
12794SOL    HW239164   8.063   2.946   5.444  1.1148 -1.3378  0.1492
12795SOL     OW39165   0.296   6.455   2.694  0.7778  0.1461  0.1025
12795SOL    HW139166   0.379   6.410   2.707  1.9725  1.7818 -1.4300
12795SOL    HW239167   0.316   6.526   2.634 -2.0734 -0.4090 -1.7097
12796SOL     OW39168   6.755   4.563   4.939 -0.2117  0.0650 -0.7051
12796SOL    HW139169   6.744   4.470   4.959  2.2997 -0.2276 -0.2429
12796SOL    HW239170   6.849   4.578   4.950 -0.3107  2.3302 -2.2512
12797SOL     OW39171   0.159   6.834   1.732  0.0043 -1.4115 -0.1303
12797SOL    HW139172   0.185   6.836   1.640  1.4741 -1.6379  0.2531
12797SOL    HW239173   0.120   6.748   1.745 -0.3022 -1.3395 -0.5572
12798SOL     OW39174   5.070   1.857   0.013 -0.7210  0.3994 -0.1313
12798SOL    HW139175   5.004   1.857  -0.057  0.5280 -0.0462 -1.3688
12798SOL    HW239176   5.021   1.837   0.092 -2.1410  0.5367 -0.9292
12799SOL     OW39177   0.726   3.695   5.251  0.4165  0.0440 -0.3347
12799SOL    HW139178   0.717   3.760   5.321  0.4223 -0.2773 -0.0276
12799SOL    HW239179   0.723   3.611   5.297  1.2844 -0.1569 -0.6236
12800SOL     OW39180   6.994   7.654   5.759 -0.4208  0.1668 -0.6903
12800SOL    HW139181   7.011   7.586   5.825  0.7842  0.2887 -0.8448
12800SOL    HW239182   6.915   7.697   5.790  0.3156  0.4789  0.9163
12801SOL     OW39183   0.390   4.552   5.421 -0.3993 -0.0373 -0.0830
12801SOL    HW139184   0.301   4.517   5.422 -0.2717 -0.4199  1.5671
12801SOL    HW239185   0.410   4.567   5.514  1.3997 -0.3488 -0.3953
12802SOL     OW39186   1.299   1.184   5.435 -0.3731  0.0649  0.4223
12802SOL    HW139187   1.354   1.116   5.474 -0.9258  0.2998  1.6782
12802SOL    HW239188   1.278   1.242   5.509 -2.0933  0.1176 -0.0787
12803SOL     OW39189   7.348   5.777   2.396  0.1722 -0.5000 -0.5117
12803SOL    HW139190   7.278   5.838   2.374  0.1287 -0.2662  0.2580
12803SOL    HW239191   7.403   5.774   2.318 -0.5062 -0.4269 -0.9964
12804SOL     OW39192   5.310   2.493   1.870  0.1249 -0.3387 -0.1517
12804SOL    HW139193   5.275   2.406   1.890 -1.0930  0.1294 -0.1567
12804SOL    HW239194   5.360   2.516   1.948  1.9970 -1.7589 -0.8504
12805SOL     OW39195   6.931   7.765   6.351 -0.5512  0.1289  0.0223
12805SOL    HW139196   6.952   7.698   6.416  2.9496  1.6275  0.6765
12805SOL    HW239197   6.961   7.728   6.267  1.5659  0.8173  0.4109
12806SOL     OW39198   1.122   0.123   5.123  0.3555 -0.7894 -0.3680
12806SOL    HW139199   1.150   0.080   5.042  1.3775 -1.1498  0.1538
12806SOL    HW239200   1.028   0.138   5.111  0.3438 -1.4938 -1.3130
12807SOL     OW39201   0.682   0.685   0.587 -0.3802  0.1776  0.0382
12807SOL    HW139202   0.717   0.596   0.597 -0.3707  0.3286  1.6197
12807SOL    HW239203   0.738   0.725   0.521  0.3006 -0.6559  0.0844
12808SOL     OW39204   7.897   1.006   1.346 -0.2465  0.1022 -0.0290
12808SOL    HW139205   7.854   0.970   1.269 -1.2839 -0.0711  0.6078
12808SOL    HW239206   7.832   1.066   1.383  0.3487  0.3998  0.5532
12809SOL     OW39207   4.631   3.719   1.319  0.1147 -0.3865  0.7067
12809SOL    HW139208   4.692   3.793   1.321  0.3044 -0.5583  1.4427
12809SOL    HW239209   4.567   3.739   1.387 -0.4975 -0.3512  0.1364
12810SOL     OW39210   6.800   7.793   5.060  0.3576  0.3534 -0.1066
12810SOL    HW139211   6.841   7.878   5.075 -1.0764  0.9651  0.5951
12810SOL    HW239212   6.740   7.782   5.134 -0.9502 -0.3294 -1.2100
12811SOL     OW39213   4.716   4.283   2.922 -0.1017  0.1524 -0.3877
12811SOL    HW139214   4.746   4.227   2.851  1.1444  0.1325  0.1348
12811SOL    HW239215   4.620   4.279   2.917 -0.0456 -1.7020 -0.6118
12812SOL     OW39216   4.245   3.052   2.315  0.1520 -0.2231  0.0495
12812SOL    HW139217   4.317   2.995   2.342  1.4217  0.5333 -1.5389
12812SOL    HW239218   4.264   3.072   2.223 -0.9664  1.6679  0.1806
12813SOL     OW39219   5.725   2.499   4.303 -0.6940 -0.0540 -0.3759
12813SOL    HW139220   5.683   2.573   4.261 -2.0849 -0.7266 -0.2227
12813SOL    HW239221   5.701   2.423   4.250 -2.3360 -0.8945  1.4276
12814SOL     OW39222   0.883   7.833   5.283 -0.3522 -0.6681  0.1356
12814SOL    HW139223   0.898   7.927   5.269 -0.2126 -0.2018  2.9137
12814SOL    HW239224   0.970   7.796   5.295 -0.4791 -0.9236  0.2778
12815SOL     OW39225   4.525   7.290   3.065 -0.4222  0.1366  0.4182
12815SOL    HW139226   4.525   7.352   3.137  0.4623 -1.3883  1.8020
12815SOL    HW239227   4.616   7.260   3.058 -0.4091  0.4599 -1.5607
12816SOL     OW39228   0.565   4.509   7.433  0.1204 -0.7765 -0.7399
12816SOL    HW139229   0.603   4.589   7.395 -0.0363  0.8600  2.2574
12816SOL    HW239230   0.639   4.449   7.440  1.8318  1.4456  2.6564
12817SOL     OW39231   1.776   4.938   2.629  0.0899  0.5481 -0.1338
12817SOL    HW139232   1.724   4.880   2.574  0.3991 -0.8461  0.9880
12817SOL    HW239233   1.867   4.917   2.607  0.2115  1.4463 -0.5415
12818SOL     OW39234   5.710   2.708   8.216  0.4821  0.5508 -0.6457
12818SOL    HW139235   5.662   2.778   8.261  0.9703  0.1723  0.5194
12818SOL    HW239236   5.769   2.673   8.283  1.0118 -0.2686 -1.5104
12819SOL     OW39237   2.530   2.560   4.306  0.2527 -0.0927  0.3672
12819SOL    HW139238   2.469   2.548   4.233  1.7262  0.6120 -1.0226
12819SOL    HW239239   2.546   2.654   4.309  0.7797 -0.2008  1.1236
12820SOL     OW39240   0.386   5.665   4.440  0.0980  0.0639  0.3559
12820SOL    HW139241   0.465   5.683   4.389 -0.6414  2.2601 -0.0869
12820SOL    HW239242   0.419   5.627   4.522  1.3952 -1.7610 -0.9158
12821SOL     OW39243   7.021   5.191   3.423 -0.1029 -0.0027  0.2425
12821SOL    HW139244   7.069   5.142   3.356  0.9956  0.2348  0.8388
12821SOL    HW239245   7.060   5.162   3.506 -1.3090 -0.1410  0.7807
12822SOL     OW39246   1.592   7.794   3.306  0.5331  0.1057  0.3740
12822SOL    HW139247   1.511   7.745   3.316  0.5226 -0.0481 -0.3703
12822SOL    HW239248   1.632   7.794   3.393 -0.0719 -0.1484  0.6560
12823SOL     OW39249   1.193   7.239   3.852  0.2654  0.0180  0.0033
12823SOL    HW139250   1.236   7.305   3.796  0.6487 -1.0989 -1.0778
12823SOL    HW239251   1.118   7.210   3.801  0.8243 -1.2830 -0.1281
12824SOL     OW39252   6.724   0.221   0.545  0.5091  0.0429  0.1115
12824SOL    HW139253   6.711   0.314   0.562  0.4705  0.1830 -0.6313
12824SOL    HW239254   6.652   0.177   0.589  1.0310  0.2765  1.2402
12825SOL     OW39255   1.203   1.510   6.446 -0.2177 -0.7318 -0.3435
12825SOL    HW139256   1.159   1.572   6.503 -0.4240 -0.7889 -0.4404
12825SOL    HW239257   1.133   1.456   6.410  0.0810 -2.0490  0.9515
12826SOL     OW39258   7.086   1.589   4.017  0.1238 -0.1931  1.3183
12826SOL    HW139259   7.044   1.675   4.011 -0.8745 -0.7270  0.2136
12826SOL    HW239260   7.095   1.561   3.926 -0.9887 -1.9058  1.6848
12827SOL     OW39261   4.803   8.112   4.362  0.1720 -0.1632 -0.0584
12827SOL    HW139262   4.830   8.066   4.441 -1.9121  0.4581  1.0761
12827SOL    HW239263   4.724   8.159   4.387  1.5573  3.2000 -1.4563
12828SOL     OW39264   2.811   2.911   5.526  0.0616 -0.0626  0.6603
12828SOL    HW139265   2.814   2.841   5.461  0.8357 -0.9867  1.6343
12828SOL    HW239266   2.866   2.981   5.489 -0.9889  0.2015 -0.4716
12829SOL     OW39267   2.528   4.826   2.350  0.0179 -0.1904 -0.0003
12829SOL    HW139268   2.534   4.921   2.342 -2.0680 -0.0099  0.2679
12829SOL    HW239269   2.561   4.807   2.438  1.4024  0.1441 -0.4185
12830SOL     OW39270   4.543   1.174   6.375  0.1878 -0.1121 -0.1864
12830SOL    HW139271   4.607   1.117   6.333  0.2354  0.3160 -0.6992
12830SOL    HW239272   4.470   1.178   6.313 -0.5643 -0.9982  0.6074
12831SOL     OW39273   3.293   2.701   3.637 -0.4281 -0.0609  0.1025
12831SOL    HW139274   3.360   2.756   3.598 -0.6144 -0.7456 -1.2412
12831SOL    HW239275   3.337   2.655   3.708  0.1151  0.6243  0.2199
12832SOL     OW39276   6.921   1.702   6.839 -0.3507  0.4400 -0.4929
12832SOL    HW139277   6.989   1.753   6.884 -0.6695  0.0063  0.5114
12832SOL    HW239278   6.842   1.720   6.889 -0.5176 -0.8521 -0.2684
12833SOL     OW39279   3.291   3.602   7.545 -0.1416 -0.5852  0.0924
12833SOL    HW139280   3.234   3.672   7.575  1.1249  1.0854 -1.1535
12833SOL    HW239281   3.254   3.575   7.461 -0.0585 -0.6772  0.0849
12834SOL     OW39282   2.767   7.683   0.512 -0.4920 -0.6935 -0.1384
12834SOL    HW139283   2.783   7.762   0.564 -2.3834 -0.5241  0.2607
12834SOL    HW239284   2.789   7.611   0.571 -2.1530 -0.4915  0.7871
12835SOL     OW39285   7.452   6.864   7.502  0.2328 -0.1357 -0.1429
12835SOL    HW139286   7.376   6.893   7.553  0.2647 -1.2573  0.5754
12835SOL    HW239287   7.427   6.880   7.411 -0.0931  1.2751  0.1761
12836SOL     OW39288   7.203   7.497   3.370  0.5872  0.2843 -0.3265
12836SOL    HW139289   7.279   7.505   3.312  0.2298 -0.5495 -0.9431
12836SOL    HW239290   7.214   7.412   3.413  0.9008  0.9461  0.9266
12837SOL     OW39291   1.669   6.486   7.414 -0.0198  0.1499  0.1639
12837SOL    HW139292   1.712   6.506   7.331  2.0856 -2.6620  0.4403
12837SOL    HW239293   1.585   6.447   7.390 -0.5800  1.6690 -0.4956
12838SOL     OW39294   1.020   7.726   7.729  0.2195 -0.0079  0.1031
12838SOL    HW139295   1.068   7.765   7.656 -0.1418  1.5265  0.6531
12838SOL    HW239296   1.058   7.765   7.807 -1.6733  1.0443  0.5641
12839SOL     OW39297   4.735   0.475   3.363 -0.1349 -0.1084 -0.6614
12839SOL    HW139298   4.694   0.405   3.414  0.7477 -1.2391 -1.4433
12839SOL    HW239299   4.667   0.504   3.302 -0.7011  0.1544  0.0895
12840SOL     OW39300   0.448   2.663   2.774 -0.4163 -0.7281  0.0012
12840SOL    HW139301   0.359   2.630   2.763 -0.6380  0.2341 -1.3463
12840SOL    HW239302   0.478   2.682   2.685  1.1029 -0.9093  0.4370
12841SOL     OW39303   0.857   6.019   7.520 -0.2590  0.0727 -0.2784
12841SOL    HW139304   0.898   5.975   7.446 -0.0738  1.9784 -1.3509
12841SOL    HW239305   0.766   6.031   7.493  0.0786  1.8066 -0.7019
12842SOL     OW39306   6.300   6.740   4.394  0.0083 -0.0041 -0.1792
12842SOL    HW139307   6.218   6.697   4.371 -0.1512 -0.1331  0.5873
12842SOL    HW239308   6.308   6.813   4.333  0.3823 -1.2221 -1.6454
12843SOL     OW39309   1.716   7.698   2.849  0.0910 -0.1002  0.2275
12843SOL    HW139310   1.738   7.789   2.872 -0.2670 -0.5106  2.4339
12843SOL    HW239311   1.657   7.706   2.775 -0.0561  1.4981  0.4705
12844SOL     OW39312   3.695   1.887   6.480 -0.7478 -0.4470  0.0091
12844SOL    HW139313   3.686   1.820   6.547  1.7588 -1.1670 -0.2587
12844SOL    HW239314   3.685   1.970   6.526  0.1471 -0.9520  1.1505
12845SOL     OW39315   7.791   5.423   2.713  0.2024  0.1219 -0.1341
12845SOL    HW139316   7.783   5.512   2.746 -0.3402  0.3116 -0.7580
12845SOL    HW239317   7.711   5.408   2.663  0.9897 -0.1547 -1.3509
12846SOL     OW39318   2.832   7.631   5.316  0.8723 -0.6494  0.2578
12846SOL    HW139319   2.867   7.602   5.400  0.2408 -0.9121  0.4358
12846SOL    HW239320   2.909   7.660   5.267  1.0129  2.3163  1.9789
12847SOL     OW39321   0.566   0.249   3.770  0.0413  0.2421 -0.8864
12847SOL    HW139322   0.585   0.248   3.676  2.8446  1.9731 -0.4487
12847SOL    HW239323   0.580   0.340   3.796 -2.2456  0.1482  0.9906
12848SOL     OW39324   2.687   7.453   2.454 -0.3755  0.5323 -0.4905
12848SOL    HW139325   2.729   7.430   2.537 -1.1235  1.9833  0.3384
12848SOL    HW239326   2.756   7.445   2.388 -0.3415 -3.0057 -0.1754
12849SOL     OW39327   0.020   0.320   6.036 -0.3403 -0.4224  0.0028
12849SOL    HW139328   0.051   0.239   5.996  0.9563  0.3968 -0.7211
12849SOL    HW239329  -0.027   0.292   6.114  1.5034 -1.8080  0.6788
12850SOL     OW39330   7.561   5.325   1.247  0.4825 -0.8636  0.0233
12850SOL    HW139331   7.625   5.259   1.222  1.4770  0.0412  0.1140
12850SOL    HW239332   7.476   5.285   1.229  0.9875 -2.7890  1.5943
12851SOL     OW39333   5.475   0.060   3.101 -0.0082  0.6590 -0.1097
12851SOL    HW139334   5.436   0.071   3.188  3.2126  1.4044  1.3622
12851SOL    HW239335   5.486   0.149   3.069 -2.1740  0.3779 -1.8805
12852SOL     OW39336   4.823   2.591   1.938  0.0934 -0.1835 -0.0263
12852SOL    HW139337   4.814   2.635   2.023  0.1494  1.2424 -0.7163
12852SOL    HW239338   4.907   2.622   1.905  0.2011 -0.9518 -0.4917
12853SOL     OW39339   3.346   5.763   0.022 -0.0881  0.6521 -0.1642
12853SOL    HW139340   3.348   5.858   0.032 -2.0688  0.8187 -0.9794
12853SOL    HW239341   3.322   5.730   0.108  1.2702  0.8107  0.3012
12854SOL     OW39342   4.174   3.967   0.331  0.5271  0.2179  0.2511
12854SOL    HW139343   4.098   3.982   0.387  0.1845  0.1155 -0.1802
12854SOL    HW239344   4.148   3.894   0.274  0.2198  1.3941 -1.1842
12855SOL     OW39345   0.056   4.263   1.188  0.3672 -0.3263  0.3242
12855SOL    HW139346   0.126   4.324   1.166  0.9551 -0.4683  1.7079
12855SOL    HW239347   0.047   4.270   1.283 -2.3537  0.6121  0.0916
12856SOL     OW39348   0.379   2.503   6.112 -0.1433  0.3701  0.1236
12856SOL    HW139349   0.448   2.441   6.088 -0.5343  0.1710 -0.4935
12856SOL    HW239350   0.299   2.450   6.116 -0.4128  0.7617 -0.0200
12857SOL     OW39351   1.332   3.601   6.494 -0.2247  0.0691  0.2491
12857SOL    HW139352   1.323   3.656   6.572  0.5775 -1.7909  1.7270
12857SOL    HW239353   1.404   3.641   6.445  0.2750  0.4055  1.2342
12858SOL     OW39354   7.816   3.918   0.266 -0.1465 -0.1120  0.4333
12858SOL    HW139355   7.791   3.872   0.346  0.3073 -1.7041 -0.3138
12858SOL    HW239356   7.902   3.884   0.244 -0.4906 -0.1128 -1.0316
12859SOL     OW39357   6.069   0.209   6.332 -0.1221 -0.4774  0.4755
12859SOL    HW139358   6.085   0.158   6.412  1.4517 -0.7863  0.0088
12859SOL    HW239359   6.127   0.285   6.341 -1.8353  0.8386  0.7819
12860SOL     OW39360   7.019   6.647   1.168  0.3139  0.5253 -0.8926
12860SOL    HW139361   7.093   6.695   1.207 -1.1762  4.2223 -2.1743
12860SOL    HW239362   7.060   6.575   1.121  2.7889  0.5014  1.0603
12861SOL     OW39363   8.273   4.173   1.923 -0.4152 -0.0223  0.0173
12861SOL    HW139364   8.238   4.230   1.991  0.8753  1.9256 -0.8526
12861SOL    HW239365   8.204   4.109   1.906 -1.0245 -0.1531  2.6424
12862SOL     OW39366   5.345   4.902   1.051 -0.4228 -0.5242  0.4091
12862SOL    HW139367   5.439   4.899   1.033 -0.4281  0.4042  0.1895
12862SOL    HW239368   5.317   4.988   1.021 -1.1667 -0.4162  1.3579
12863SOL     OW39369   2.177   2.293   2.478  0.3833  0.4728  0.0608
12863SOL    HW139370   2.231   2.230   2.525 -0.7389  1.0274  2.2155
12863SOL    HW239371   2.194   2.377   2.520 -1.1069  0.8971 -0.1062
12864SOL     OW39372   6.791   6.652   5.677  0.2474  0.1336  0.2440
12864SOL    HW139373   6.745   6.593   5.737  0.0306 -0.4454 -0.4773
12864SOL    HW239374   6.851   6.702   5.733  0.2082 -0.5530  0.9079
12865SOL     OW39375   7.264   1.930   4.815 -0.0495 -0.7759 -0.0117
12865SOL    HW139376   7.231   1.903   4.729 -0.2884 -0.2784 -0.0811
12865SOL    HW239377   7.280   2.024   4.806  1.4215 -1.0028  0.0185
12866SOL     OW39378   0.199   5.745   5.498  0.1475 -0.2289 -0.2447
12866SOL    HW139379   0.134   5.812   5.520  1.4652  1.2340 -0.5289
12866SOL    HW239380   0.279   5.775   5.543  1.0999 -0.9077 -1.4377
12867SOL     OW39381   3.231   7.162   1.191 -0.2103 -0.1034 -0.0479
12867SOL    HW139382   3.322   7.182   1.166 -0.1354 -0.3464  0.0306
12867SOL    HW239383   3.192   7.128   1.110 -0.3255  0.3141 -0.1700
12868SOL     OW39384   0.787   3.199   5.527 -0.2356 -0.0275 -0.5763
12868SOL    HW139385   0.853   3.182   5.461 -1.5653  0.2205 -2.0366
12868SOL    HW239386   0.722   3.130   5.514 -2.0125  1.7408 -1.6007
12869SOL     OW39387   4.796   1.591   4.188 -0.1445  0.4676 -0.8317
12869SOL    HW139388   4.816   1.556   4.275  0.3473  1.0093 -0.7225
12869SOL    HW239389   4.870   1.649   4.168 -0.8875  1.3606 -1.0524
12870SOL     OW39390   0.967   2.559   1.232  0.2978  0.1269 -0.1857
12870SOL    HW139391   0.989   2.648   1.260 -0.3725 -0.1286  1.2530
12870SOL    HW239392   0.903   2.571   1.162 -0.0778  0.7809  0.2591
12871SOL     OW39393   2.021   0.217   4.785 -0.2759  0.1739  0.3027
12871SOL    HW139394   1.971   0.293   4.815 -0.6807  0.6204 -1.3969
12871SOL    HW239395   1.962   0.172   4.724 -0.1133 -1.6431  1.4228
12872SOL     OW39396   0.728   0.893   2.799 -0.5054 -0.5131 -0.4091
12872SOL    HW139397   0.699   0.813   2.843 -0.0062 -0.6518 -0.3158
12872SOL    HW239398   0.801   0.863   2.743 -0.5823 -0.1932 -0.6803
12873SOL     OW39399   5.880   0.970   7.635 -0.3343 -0.5150  0.2567
12873SOL    HW139400   5.960   0.919   7.643  0.6961  1.3186  4.5315
12873SOL    HW239401   5.818   0.929   7.695 -0.0556  1.9713  2.4579
12874SOL     OW39402   6.114   6.759   3.330  0.0090  0.8496  0.4954
12874SOL    HW139403   6.034   6.760   3.382 -0.2397 -0.0355  0.1510
12874SOL    HW239404   6.185   6.768   3.394 -0.2863 -0.3261  1.0162
12875SOL     OW39405   6.739   0.776   2.752  0.2609 -0.6882 -0.3951
12875SOL    HW139406   6.647   0.798   2.764  0.0786 -2.0567  0.9762
12875SOL    HW239407   6.738   0.692   2.706  0.8343 -0.5403 -0.6892
12876SOL     OW39408   7.727   3.972   7.484 -0.7404 -0.2882  0.3677
12876SOL    HW139409   7.633   3.987   7.494 -0.5152  0.5414  1.4195
12876SOL    HW239410   7.755   4.038   7.420 -1.2938 -2.3006 -2.1487
12877SOL     OW39411   7.827   1.660   7.032 -0.6278  0.5875  0.0830
12877SOL    HW139412   7.803   1.648   7.123 -2.1591  1.9222 -0.1100
12877SOL    HW239413   7.765   1.605   6.984 -0.7364  0.9725 -0.2219
12878SOL     OW39414   6.248   7.504   3.594  0.4214  0.1817 -0.3353
12878SOL    HW139415   6.238   7.409   3.588  0.1292  0.1188  0.9260
12878SOL    HW239416   6.334   7.517   3.635  0.2503  0.4428 -0.0557
12879SOL     OW39417   3.116   0.160   3.412 -0.0609  0.1054 -0.3189
12879SOL    HW139418   3.022   0.155   3.424 -0.4850  2.5756 -1.9810
12879SOL    HW239419   3.135   0.093   3.346 -0.7182 -0.1211 -0.2839
12880SOL     OW39420   7.754   5.098   7.350 -0.6123 -0.0912 -0.1998
12880SOL    HW139421   7.675   5.070   7.304 -0.1113  0.3846 -1.4045
12880SOL    HW239422   7.744   5.192   7.359 -0.7279 -0.1885  0.7449
12881SOL     OW39423   1.352   5.208   2.574 -0.0416  0.1427 -0.2668
12881SOL    HW139424   1.381   5.280   2.629 -0.9923  0.3243  0.0209
12881SOL    HW239425   1.262   5.231   2.551 -0.1763 -0.6959 -0.6088
12882SOL     OW39426   2.146   1.651   8.297  0.4238 -0.3337  0.1944
12882SOL    HW139427   2.164   1.576   8.354  1.3863 -0.3009 -0.0564
12882SOL    HW239428   2.219   1.653   8.236  0.5898  1.0227  0.4086
12883SOL     OW39429   3.814   6.551   0.935 -0.1127 -0.6341 -0.1658
12883SOL    HW139430   3.816   6.641   0.902  1.4971 -0.8066 -0.6192
12883SOL    HW239431   3.723   6.524   0.922 -0.2058  0.2743 -1.8485
12884SOL     OW39432   4.907   0.229   1.838 -0.0184 -0.1023  0.0383
12884SOL    HW139433   4.932   0.315   1.804 -0.5237  0.2276  0.4869
12884SOL    HW239434   4.851   0.192   1.770  0.0245  0.0169 -0.0620
12885SOL     OW39435   5.500   7.426   1.384  0.2007  0.2679 -0.1203
12885SOL    HW139436   5.455   7.398   1.304  0.4039  0.3118 -0.2495
12885SOL    HW239437   5.431   7.466   1.437 -0.0668 -0.3492  0.0078
12886SOL     OW39438   1.904   2.858   3.971 -0.0993  0.0629  0.2009
12886SOL    HW139439   1.903   2.854   4.067 -0.8772 -1.7171  0.1418
12886SOL    HW239440   1.966   2.929   3.952  0.9581 -0.3049  1.9904
12887SOL     OW39441   6.306   6.123   0.602 -0.3047  0.2344  0.1299
12887SOL    HW139442   6.260   6.041   0.588  2.2320 -1.4381  0.9452
12887SOL    HW239443   6.311   6.132   0.697 -0.0776  1.0462  0.0500
12888SOL     OW39444   6.314   6.282   6.558 -0.1826 -0.4126  0.3036
12888SOL    HW139445   6.350   6.326   6.481 -0.1898  1.8942  1.5150
12888SOL    HW239446   6.219   6.288   6.547 -0.1973 -1.3736 -0.1677
12889SOL     OW39447   7.810   1.251   3.847  0.2097  0.0141  0.0001
12889SOL    HW139448   7.720   1.266   3.817  0.4486  1.1363 -0.2315
12889SOL    HW239449   7.839   1.175   3.797 -1.0765 -1.2770  1.1484
12890SOL     OW39450   3.658   1.047   7.891 -0.1465 -1.0646 -0.2474
12890SOL    HW139451   3.577   1.004   7.918 -0.5954 -0.4283 -0.5539
12890SOL    HW239452   3.680   1.105   7.964 -1.5544  0.9240 -1.3231
12891SOL     OW39453   1.628   2.429   7.581 -0.3695 -0.2577 -0.3232
12891SOL    HW139454   1.718   2.397   7.581 -0.8077 -1.8313  2.8335
12891SOL    HW239455   1.636   2.522   7.602  0.5462 -0.2028 -0.8609
12892SOL     OW39456   6.370   8.156   2.526  0.0958  0.1050  0.5467
12892SOL    HW139457   6.398   8.233   2.576  0.6574 -0.2978  0.8610
12892SOL    HW239458   6.313   8.191   2.458 -1.0673  0.6166  1.7416
12893SOL     OW39459   0.551   3.660   4.616  0.2309 -0.1888  0.6436
12893SOL    HW139460   0.508   3.646   4.700  1.6088  0.6071  1.5111
12893SOL    HW239461   0.628   3.714   4.636  0.4887  0.1873 -1.1482
12894SOL     OW39462   6.832   1.932   3.577  0.0462 -0.4993  0.1051
12894SOL    HW139463   6.752   1.960   3.621  0.8948 -0.6114  1.8058
12894SOL    HW239464   6.801   1.879   3.503 -1.4947  1.7986 -1.0271
12895SOL     OW39465   3.679   7.753   5.512  0.0509  0.5649 -0.3728
12895SOL    HW139466   3.690   7.765   5.418  3.6984  0.4541 -0.1206
12895SOL    HW239467   3.703   7.661   5.527  0.0586  0.7278  0.7055
12896SOL     OW39468   7.960   3.582   4.372  0.2940  0.7468  0.1003
12896SOL    HW139469   7.957   3.668   4.413 -1.7512 -0.2345  2.2010
12896SOL    HW239470   7.977   3.601   4.280  0.9186  3.3061  0.6472
12897SOL     OW39471   7.541   1.508   2.248 -0.1859 -0.4062  0.0132
12897SOL    HW139472   7.629   1.496   2.212 -0.2288  0.2981 -0.3466
12897SOL    HW239473   7.554   1.507   2.343  0.0959 -1.1032 -0.0304
12898SOL     OW39474   1.122   7.080   0.266  0.0533 -0.4587  0.1248
12898SOL    HW139475   1.175   7.013   0.224 -0.1942 -1.3160  1.1159
12898SOL    HW239476   1.185   7.133   0.315  0.1490 -0.6026  0.1590
12899SOL     OW39477   4.388   5.449   7.291 -0.1225 -0.3413  0.1816
12899SOL    HW139478   4.430   5.524   7.249  0.3226 -0.2184  0.8289
12899SOL    HW239479   4.391   5.380   7.225 -0.6917  0.2449 -0.4883
12900SOL     OW39480   2.105   1.988   6.085 -1.0256 -0.4005 -0.3015
12900SOL    HW139481   2.197   1.966   6.074 -0.4524  1.4586  0.4141
12900SOL    HW239482   2.058   1.924   6.031  0.5223 -2.5227  0.7572
12901SOL     OW39483   6.932   2.716   6.361  0.0125 -0.5572 -0.0888
12901SOL    HW139484   6.924   2.785   6.296 -2.4339 -1.0648 -0.3955
12901SOL    HW239485   6.938   2.635   6.310 -0.9263 -0.8741  0.2883
12902SOL     OW39486   7.465   3.062   7.827 -0.1623 -0.7789 -0.4687
12902SOL    HW139487   7.495   2.972   7.837  0.1299 -0.5121  1.3382
12902SOL    HW239488   7.376   3.061   7.862 -0.0286 -0.3018 -0.1045
12903SOL     OW39489   5.254   5.020   4.451  0.2526  0.1973 -0.3844
12903SOL    HW139490   5.180   5.021   4.389 -1.3448  0.2679  1.4180
12903SOL    HW239491   5.281   4.929   4.455 -0.0505  0.0914 -0.7210
12904SOL     OW39492   7.659   3.475   3.600  0.0054  0.9199  0.6196
12904SOL    HW139493   7.661   3.566   3.569  1.2620  0.3654 -1.1119
12904SOL    HW239494   7.568   3.448   3.590 -0.3122  1.8717  0.8177
12905SOL     OW39495   6.750   8.261   4.533 -0.0613 -0.6091 -0.1009
12905SOL    HW139496   6.709   8.175   4.521 -0.3126 -0.6999  1.2671
12905SOL    HW239497   6.841   8.241   4.556  0.0035 -0.4916 -0.2523
12906SOL     OW39498   2.508   6.634   7.811  1.0450 -0.4627  0.3061
12906SOL    HW139499   2.423   6.601   7.783  0.6821  1.8708 -1.6265
12906SOL    HW239500   2.537   6.571   7.877 -1.5094 -2.1045  0.0104
12907SOL     OW39501   4.405   4.497   3.957 -0.0023 -0.1257 -0.0310
12907SOL    HW139502   4.357   4.454   3.886 -0.8836  0.0283  0.4494
12907SOL    HW239503   4.422   4.585   3.924  2.0239 -0.8716 -1.1133
12908SOL     OW39504   1.937   7.455   8.028  0.2347 -0.0999 -0.2986
12908SOL    HW139505   1.926   7.479   7.936 -0.8600  0.3318 -0.0756
12908SOL    HW239506   2.031   7.445   8.039  0.5066  1.3274 -1.1040
12909SOL     OW39507   7.435   7.597   4.096 -0.2045  0.0284  0.1451
12909SOL    HW139508   7.459   7.579   4.187 -0.0740  0.1391  0.1327
12909SOL    HW239509   7.425   7.511   4.057 -4.6831 -0.2825  1.3878
12910SOL     OW39510   8.048   4.280   5.541  0.0778 -0.3130 -0.0696
12910SOL    HW139511   7.978   4.313   5.484 -0.0106 -0.0860  0.1656
12910SOL    HW239512   8.081   4.202   5.497  1.2138  0.8481 -1.3454
12911SOL     OW39513   0.114   1.720   2.319  0.4820 -0.2117  0.1560
12911SOL    HW139514   0.086   1.810   2.329  1.7121  0.4655 -1.9275
12911SOL    HW239515   0.075   1.690   2.237  0.4417 -1.4320  0.5907
12912SOL     OW39516   3.104   1.948   3.801 -0.1196 -0.3470  0.0083
12912SOL    HW139517   3.050   1.957   3.722 -1.0989  0.5322  0.7454
12912SOL    HW239518   3.121   2.038   3.829  1.1615 -0.6210  0.1972
12913SOL     OW39519   6.466   2.433   1.335 -0.5594  0.4538 -0.0461
12913SOL    HW139520   6.552   2.440   1.292 -0.5465  4.0439  0.3212
12913SOL    HW239521   6.466   2.344   1.372  2.5365 -0.0640 -0.9634
12914SOL     OW39522   0.391   8.046   2.197  0.3992  0.4565 -0.2835
12914SOL    HW139523   0.454   8.057   2.267 -2.1378  0.5274  2.1706
12914SOL    HW239524   0.318   8.104   2.220 -0.9478 -0.1861 -2.5092
12915SOL     OW39525   6.876   8.281   7.409 -0.4852 -0.3441  0.3491
12915SOL    HW139526   6.916   8.337   7.342 -1.8850 -1.2375 -1.3163
12915SOL    HW239527   6.869   8.195   7.368 -1.1123 -1.0069  1.7638
12916SOL     OW39528   6.280   7.690   6.421  0.2607 -0.0733  0.2017
12916SOL    HW139529   6.360   7.649   6.388  1.1079  1.3148  0.4462
12916SOL    HW239530   6.310   7.750   6.489 -0.8873  1.1648 -0.3396
12917SOL     OW39531   6.649   7.077   6.860 -0.8002  0.0889  0.3335
12917SOL    HW139532   6.683   7.148   6.914  1.0389 -0.1077 -0.4733
12917SOL    HW239533   6.611   7.121   6.784  0.2451  0.2600 -0.1147
12918SOL     OW39534   0.848   0.405   1.451  0.0260 -0.0836  0.5014
12918SOL    HW139535   0.912   0.464   1.412 -0.2610  0.5108  0.9092
12918SOL    HW239536   0.842   0.434   1.542 -0.6743 -0.2543  0.5126
12919SOL     OW39537   2.622   3.504   5.255 -0.4082  0.7290 -0.3829
12919SOL    HW139538   2.563   3.542   5.190 -0.0085  0.4987 -0.8963
12919SOL    HW239539   2.582   3.524   5.340 -0.6969  1.4490 -0.6810
12920SOL     OW39540   1.215   4.592   6.451 -0.5301  0.4828 -0.2806
12920SOL    HW139541   1.165   4.643   6.387 -0.9530 -1.1549 -1.3328
12920SOL    HW239542   1.290   4.559   6.402 -1.0394 -1.0774 -0.0675
12921SOL     OW39543   6.473   6.601   3.621  0.0945 -1.0758  0.1044
12921SOL    HW139544   6.565   6.624   3.629 -0.2659  1.4367 -1.6470
12921SOL    HW239545   6.425   6.677   3.656 -1.2225 -0.6478 -2.3371
12922SOL     OW39546   1.390   6.858   6.370 -0.2348 -0.5411  0.6007
12922SOL    HW139547   1.378   6.801   6.294 -0.4275  0.3614 -0.0574
12922SOL    HW239548   1.437   6.934   6.337 -0.6554  0.0427  1.2947
12923SOL     OW39549   5.388   3.141   3.049  0.1108  0.1191 -0.1157
12923SOL    HW139550   5.421   3.128   2.961  1.9692 -0.2412  0.5840
12923SOL    HW239551   5.451   3.201   3.090 -0.7329  0.3172  0.9572
12924SOL     OW39552   5.175   7.948   4.821 -0.0877  0.4276  0.3936
12924SOL    HW139553   5.092   7.983   4.853 -1.7712 -1.7193 -1.2473
12924SOL    HW239554   5.239   7.970   4.889 -2.3082  0.8256  2.4785
12925SOL     OW39555   4.986   6.409   2.843  0.9307 -0.4231 -0.2276
12925SOL    HW139556   4.931   6.335   2.819 -0.0499  0.6851 -1.5928
12925SOL    HW239557   5.073   6.386   2.811  0.1115  0.0543 -3.0127
12926SOL     OW39558   2.428   3.256   2.114 -0.0200  0.0248 -0.0706
12926SOL    HW139559   2.433   3.198   2.038  0.2661  1.0039 -0.8088
12926SOL    HW239560   2.345   3.232   2.157  0.2882 -1.2002 -0.1270
12927SOL     OW39561   4.093   1.650   1.448 -0.2198  0.0008 -0.7928
12927SOL    HW139562   4.053   1.577   1.400 -0.1919 -1.0150  0.6890
12927SOL    HW239563   4.165   1.679   1.391 -0.6926 -0.6233 -1.7386
12928SOL     OW39564   4.161   6.165   6.979  0.2151 -0.2552  0.4677
12928SOL    HW139565   4.151   6.192   7.070  0.6285  0.6499  0.2629
12928SOL    HW239566   4.247   6.122   6.976  1.6694  2.3958 -0.0270
12929SOL     OW39567   5.589   6.529   6.169 -0.2157 -0.0644  0.0497
12929SOL    HW139568   5.579   6.492   6.257  1.3138  0.5970  0.5389
12929SOL    HW239569   5.603   6.622   6.183  0.7530 -0.0588 -0.8390
12930SOL     OW39570   7.719   2.004   1.160 -0.0685  0.4452 -0.1018
12930SOL    HW139571   7.646   2.065   1.159  1.2651  2.1373  0.1237
12930SOL    HW239572   7.713   1.962   1.246 -0.9640  0.2873 -0.2307
12931SOL     OW39573   0.923   3.682   8.100  0.7256 -0.4309  0.0098
12931SOL    HW139574   0.930   3.587   8.111 -0.4349 -0.4602  0.5789
12931SOL    HW239575   0.854   3.693   8.034  1.5256  0.0045 -0.7780
12932SOL     OW39576   4.249   1.028   1.729  0.8004  0.4183 -0.1494
12932SOL    HW139577   4.242   1.020   1.824  0.5109  0.4348 -0.1673
12932SOL    HW239578   4.225   1.119   1.712 -3.4968 -0.6011 -0.6097
12933SOL     OW39579   6.764   2.026   5.775  0.1670 -0.4288  0.5219
12933SOL    HW139580   6.715   1.960   5.823 -0.6119  1.0324  1.8432
12933SOL    HW239581   6.850   2.027   5.818  0.3233 -0.8583  0.2253
12934SOL     OW39582   3.011   0.151   3.075 -0.2390  0.2067 -0.0098
12934SOL    HW139583   3.022   0.057   3.086 -1.8605 -0.0993 -0.6837
12934SOL    HW239584   3.097   0.183   3.048 -0.0249 -1.3027 -1.2196
12935SOL     OW39585   6.636   7.309   8.208  0.5250  0.1353 -0.9575
12935SOL    HW139586   6.688   7.279   8.134  2.8416 -0.9356  0.9713
12935SOL    HW239587   6.651   7.403   8.212  1.6712 -0.0354 -0.9439
12936SOL     OW39588   4.043   6.233   0.516  0.1901  0.0941  0.0009
12936SOL    HW139589   4.129   6.203   0.487  0.1425 -0.0270 -0.0128
12936SOL    HW239590   4.011   6.287   0.444  0.6015  0.8071  0.3360
12937SOL     OW39591   6.694   0.809   8.227 -0.4154 -0.2186 -0.3552
12937SOL    HW139592   6.744   0.770   8.298 -0.7140 -0.1824 -0.1207
12937SOL    HW239593   6.750   0.880   8.194 -0.7055  0.4488  0.5371
12938SOL     OW39594   3.087   7.619   0.230 -0.0953  0.5674  0.2233
12938SOL    HW139595   3.067   7.557   0.299  2.5442 -0.1190  0.4698
12938SOL    HW239596   3.098   7.565   0.152  2.3586  0.6108  0.4682
12939SOL     OW39597   5.313   5.772   1.517 -0.0881 -0.0249  0.2054
12939SOL    HW139598   5.360   5.761   1.600  0.7818 -1.4566 -0.4503
12939SOL    HW239599   5.242   5.708   1.522  1.2067 -1.6280 -0.9891
12940SOL     OW39600   1.014   0.292   3.213  0.2251  0.7802 -0.2578
12940SOL    HW139601   1.032   0.364   3.152  0.4254  0.3380 -0.7230
12940SOL    HW239602   0.966   0.334   3.285 -1.0114  1.1143 -1.2286
12941SOL     OW39603   4.041   0.836   0.022 -0.2164 -0.2739  0.2655
12941SOL    HW139604   4.015   0.883  -0.058  3.0244  2.7681  0.7458
12941SOL    HW239605   4.005   0.888   0.093  0.6846 -0.3625  0.8024
12942SOL     OW39606   5.831   7.316   7.876 -0.3186 -0.3797  0.0054
12942SOL    HW139607   5.777   7.258   7.822 -1.6680  0.7243  0.1079
12942SOL    HW239608   5.915   7.271   7.883 -1.0946 -1.9816 -0.4818
12943SOL     OW39609   7.338   4.880   8.021 -0.6229  0.1166 -0.2794
12943SOL    HW139610   7.391   4.842   7.951  0.3825 -0.3270  0.6931
12943SOL    HW239611   7.401   4.923   8.078 -1.6303  2.4676 -0.8166
12944SOL     OW39612   4.143   8.029   3.477  0.4252 -0.4412  0.6060
12944SOL    HW139613   4.054   8.061   3.465 -0.8907 -2.6622  3.4478
12944SOL    HW239614   4.190   8.103   3.516 -0.8610 -0.0071  1.3877
12945SOL     OW39615   7.084   2.758   4.874  0.1839  0.3069 -0.3042
12945SOL    HW139616   7.011   2.719   4.826 -1.3533  1.2748  1.1207
12945SOL    HW239617   7.151   2.773   4.808 -0.8104 -0.8207 -1.6370
12946SOL     OW39618   3.685   4.977   1.601 -0.3764  0.3236 -0.5475
12946SOL    HW139619   3.652   5.010   1.684 -1.5536  1.4314 -1.4108
12946SOL    HW239620   3.705   4.884   1.617 -1.6554  0.2376  0.6554
12947SOL     OW39621   5.122   3.502   6.104 -0.1152 -0.4753  0.4125
12947SOL    HW139622   5.199   3.445   6.106 -1.0141 -1.7121  0.6082
12947SOL    HW239623   5.156   3.586   6.074  0.7275 -1.9413 -3.2592
12948SOL     OW39624   7.641   6.846   4.993 -0.8077  0.3845 -0.2132
12948SOL    HW139625   7.600   6.898   5.061  0.9614 -0.3223  1.4916
12948SOL    HW239626   7.722   6.894   4.972  0.2471 -1.0043  0.5300
12949SOL     OW39627   1.019   2.231   0.879  0.3056  0.2449 -0.0567
12949SOL    HW139628   0.962   2.293   0.834  0.6383  0.9400  0.4745
12949SOL    HW239629   1.036   2.270   0.964  1.3079 -0.1129 -0.0725
12950SOL     OW39630   5.397   4.228   5.102 -0.3396  0.7167 -0.3684
12950SOL    HW139631   5.329   4.192   5.160  0.5184  1.9461  1.5224
12950SOL    HW239632   5.349   4.265   5.029 -1.5375 -0.3341 -0.1474
12951SOL     OW39633   0.007   3.524   6.089  0.1825  0.3730  0.2938
12951SOL    HW139634  -0.059   3.490   6.149  0.7857  0.6945  1.1635
12951SOL    HW239635   0.090   3.511   6.135  0.5205  2.0017  0.1994
12952SOL     OW39636   8.069   1.937   6.734 -0.6211  0.1385 -0.0696
12952SOL    HW139637   8.012   1.877   6.687 -1.2742  1.3887 -0.9236
12952SOL    HW239638   8.147   1.944   6.679 -0.0857 -0.7150  0.5533
12953SOL     OW39639   4.019   7.948   8.036 -0.5624 -0.3817  0.5103
12953SOL    HW139640   3.989   8.034   8.063 -1.6126 -0.6941  0.3926
12953SOL    HW239641   4.014   7.895   8.116  0.1500 -0.3290  0.5998
12954SOL     OW39642   0.186   3.224   7.307  0.5445  0.0482 -0.1014
12954SOL    HW139643   0.122   3.180   7.363 -0.6584  0.4060 -1.1501
12954SOL    HW239644   0.223   3.293   7.362 -1.0136  0.7470  0.0904
12955SOL     OW39645   7.894   0.891   5.963  0.0522 -0.4052 -0.1685
12955SOL    HW139646   7.804   0.875   5.935 -1.4838  1.6505  3.0508
12955SOL    HW239647   7.903   0.842   6.044  0.5444  2.0561  1.3883
12956SOL     OW39648   7.421   7.031   8.000  0.0849 -0.5776  0.1390
12956SOL    HW139649   7.405   6.950   7.951 -0.0991 -0.9154  0.7483
12956SOL    HW239650   7.463   7.002   8.081  2.3738  0.1454 -0.7077
12957SOL     OW39651   0.773   8.217   1.173 -0.2619  0.6499  0.1501
12957SOL    HW139652   0.844   8.154   1.157  1.1712  1.3639  2.9935
12957SOL    HW239653   0.806   8.300   1.140  0.2538  0.9650  1.3954
12958SOL     OW39654   4.726   2.902   2.124 -0.2896 -0.6501 -0.4917
12958SOL    HW139655   4.728   2.955   2.204 -2.8770 -0.9650 -0.1459
12958SOL    HW239656   4.761   2.817   2.151  2.3914  0.3059 -0.6728
12959SOL     OW39657   5.730   2.415   2.932 -0.1957  0.1644  0.7046
12959SOL    HW139658   5.704   2.458   3.013  1.4072  1.9944  0.3402
12959SOL    HW239659   5.809   2.366   2.955 -0.1562  0.0932  0.4218
12960SOL     OW39660   3.290   0.028   4.019  0.2570  0.2043  0.3138
12960SOL    HW139661   3.199   0.049   4.000  0.1721 -1.1257 -0.8928
12960SOL    HW239662   3.329   0.111   4.045 -1.1631  0.8966  0.2912
12961SOL     OW39663   5.855   0.007   5.981 -0.0081 -0.5169 -0.3131
12961SOL    HW139664   5.845   0.040   6.070 -3.8927  2.3971 -1.5151
12961SOL    HW239665   5.939   0.041   5.952  1.0237 -0.9816  1.9792
12962SOL     OW39666   3.902   1.594   4.912  0.0449 -0.2436 -0.0988
12962SOL    HW139667   3.881   1.522   4.972 -0.3458  1.6581  2.1925
12962SOL    HW239668   3.817   1.633   4.890  0.3497  0.5228  0.0400
12963SOL     OW39669   2.325   3.754   3.199  0.2583  0.2648 -0.4360
12963SOL    HW139670   2.333   3.820   3.268  2.9252 -1.0644  0.6595
12963SOL    HW239671   2.343   3.803   3.118 -0.1822  1.3133  0.0749
12964SOL     OW39672   2.638   0.065   0.114  0.2843  0.4011  0.2675
12964SOL    HW139673   2.674  -0.015   0.075 -1.7032 -0.7528  0.6260
12964SOL    HW239674   2.576   0.033   0.180  0.7917  2.2841  1.7240
12965SOL     OW39675   6.888   0.066   6.925 -0.2483 -0.1044  0.0337
12965SOL    HW139676   6.903   0.096   6.835 -3.3564  0.6178 -0.3548
12965SOL    HW239677   6.832  -0.012   6.914  0.5444 -0.8835  1.3273
12966SOL     OW39678   5.600   1.859   7.917  0.5978 -0.1347 -0.3438
12966SOL    HW139679   5.660   1.922   7.958  0.9282 -0.3119 -0.5426
12966SOL    HW239680   5.635   1.774   7.943  0.4027 -0.2393 -0.4260
12967SOL     OW39681   6.028   1.487   8.198 -0.4884 -0.1751 -0.0374
12967SOL    HW139682   6.019   1.478   8.103 -0.9584  1.1270 -0.1391
12967SOL    HW239683   6.110   1.441   8.218 -0.8130 -1.1926 -0.9406
12968SOL     OW39684   5.969   5.127   6.679  0.3971  0.1936 -0.5145
12968SOL    HW139685   5.967   5.154   6.771  0.2449  0.5313 -0.6144
12968SOL    HW239686   5.953   5.208   6.631  0.7528  0.0656 -0.8474
12969SOL     OW39687   2.494   6.905   7.640  0.1140  0.2961 -0.1833
12969SOL    HW139688   2.584   6.871   7.634 -0.0560 -0.1106 -0.5192
12969SOL    HW239689   2.500   6.979   7.701  0.4304 -0.5876  0.9016
12970SOL     OW39690   0.685   4.147   1.073  0.4149  0.2077  0.6430
12970SOL    HW139691   0.682   4.210   1.145  0.2369 -0.9224  1.6515
12970SOL    HW239692   0.776   4.149   1.043  0.2318  1.5345  0.0933
12971SOL     OW39693   4.020   3.399   4.067 -0.0370 -0.1234 -0.6349
12971SOL    HW139694   3.978   3.403   4.153  1.7621  1.9664  0.2311
12971SOL    HW239695   4.067   3.315   4.068 -3.4417 -2.2260 -1.3979
12972SOL     OW39696   3.176   7.763   1.127  0.2401  0.2512  0.1562
12972SOL    HW139697   3.141   7.696   1.068  0.9498  0.4454 -0.5011
12972SOL    HW239698   3.192   7.716   1.209  1.4648 -0.5881 -0.5352
12973SOL     OW39699   7.070   3.266   7.662  0.2183  0.4634  0.1375
12973SOL    HW139700   7.034   3.260   7.573 -0.0033  1.5200  0.1382
12973SOL    HW239701   7.152   3.314   7.651  0.3694  0.2803  0.4644
12974SOL     OW39702   0.748   5.613   1.567 -0.5842  0.6455 -0.0420
12974SOL    HW139703   0.701   5.532   1.552 -0.2242  0.3711  0.2850
12974SOL    HW239704   0.688   5.667   1.619 -0.8605  0.6329 -0.3432
12975SOL     OW39705   2.984   6.608   6.894 -0.2927  0.0439 -0.5726
12975SOL    HW139706   2.908   6.560   6.929 -1.1133  1.5908 -0.1577
12975SOL    HW239707   2.959   6.700   6.899  1.7171  0.6202 -0.2100
12976SOL     OW39708   4.502   4.446   1.034 -0.1615 -0.0616 -0.1976
12976SOL    HW139709   4.588   4.405   1.034 -0.1972 -0.1412 -0.6129
12976SOL    HW239710   4.486   4.469   1.125  1.1052  1.6954 -0.3734
12977SOL     OW39711   5.456   3.089   2.780 -0.1205 -0.3618 -0.5123
12977SOL    HW139712   5.414   3.123   2.700 -0.5135  1.1574  0.3011
12977SOL    HW239713   5.535   3.045   2.748  0.0734  0.7635 -1.7117
12978SOL     OW39714   5.131   7.667   3.906  0.1115  0.5841 -0.6603
12978SOL    HW139715   5.154   7.583   3.867 -1.9986  1.4179 -4.2338
12978SOL    HW239716   5.043   7.655   3.941  1.1411  0.4783  2.1666
12979SOL     OW39717   7.273   5.921   4.361  0.0082 -0.3143 -0.2253
12979SOL    HW139718   7.344   5.904   4.423  0.4068 -0.0377 -0.6007
12979SOL    HW239719   7.201   5.866   4.392  0.1001  0.0390  0.6494
12980SOL     OW39720   1.633   0.380   0.738 -0.1766  0.2262  0.5366
12980SOL    HW139721   1.703   0.395   0.675 -1.1161  0.4569 -0.4939
12980SOL    HW239722   1.632   0.286   0.753 -1.2699 -0.1256 -1.4365
12981SOL     OW39723   3.868   4.505   4.212  0.5077  0.2073  0.6789
12981SOL    HW139724   3.922   4.426   4.208 -0.3209 -0.3313 -0.1354
12981SOL    HW239725   3.809   4.498   4.137 -0.1067  1.2141  1.0468
12982SOL     OW39726   2.906   5.616   7.032  0.8052  0.2391  0.4082
12982SOL    HW139727   2.866   5.676   6.968 -0.2714 -0.2533  0.5860
12982SOL    HW239728   2.916   5.669   7.111 -1.0902 -0.0329  0.8874
12983SOL     OW39729   6.780   2.545   7.512 -0.3449  0.2943  0.4446
12983SOL    HW139730   6.827   2.523   7.431  0.2954  1.6390  0.4189
12983SOL    HW239731   6.790   2.639   7.521 -2.1915  0.4736  1.0163
12984SOL     OW39732   3.537   0.335   2.003  0.5932 -0.3301  0.4978
12984SOL    HW139733   3.515   0.428   1.995  2.4600  0.0497 -0.9157
12984SOL    HW239734   3.498   0.308   2.086 -0.4312  1.5766  0.6903
12985SOL     OW39735   1.011   6.367   6.550  0.0685  0.2208 -0.5841
12985SOL    HW139736   1.048   6.279   6.552  2.0370  1.0073 -0.3021
12985SOL    HW239737   1.085   6.425   6.566 -1.3954  1.8909  0.5635
12986SOL     OW39738   7.753   0.521   5.216  0.6479 -0.1930 -0.4435
12986SOL    HW139739   7.711   0.509   5.301  1.2803 -0.1932 -0.1267
12986SOL    HW239740   7.840   0.553   5.236  0.5519  0.5478 -1.1199
12987SOL     OW39741   4.153   7.533   2.736 -0.2269  0.2972 -0.4053
12987SOL    HW139742   4.193   7.563   2.654  0.3752 -0.2195 -0.3133
12987SOL    HW239743   4.225   7.535   2.799 -0.2540 -0.9617 -0.3072
12988SOL     OW39744   0.324   6.766   2.252 -0.0394 -0.6969 -0.2523
12988SOL    HW139745   0.296   6.791   2.164 -0.1194 -0.4718 -0.1643
12988SOL    HW239746   0.336   6.849   2.298  0.4343 -0.7984 -0.1812
12989SOL     OW39747   2.348   7.102   6.193  0.6063  0.4491 -0.1072
12989SOL    HW139748   2.383   7.152   6.268  1.4196  1.9892 -1.4509
12989SOL    HW239749   2.425   7.077   6.143  0.0810 -0.7867 -0.3200
12990SOL     OW39750   0.825   4.040   4.377  0.2496 -0.0768 -0.4671
12990SOL    HW139751   0.734   4.019   4.356 -0.9543  4.5383 -0.8273
12990SOL    HW239752   0.876   3.991   4.312 -1.8979 -2.6198 -0.3834
12991SOL     OW39753   0.041   4.667   3.613 -0.2639 -0.2645  0.0762
12991SOL    HW139754  -0.050   4.667   3.641  0.0471  0.2704  1.1435
12991SOL    HW239755   0.063   4.575   3.602 -0.1386 -0.5802  2.5786
12992SOL     OW39756   1.899   5.375   7.867  0.3397 -1.2024 -0.1153
12992SOL    HW139757   1.868   5.449   7.815  0.9973 -0.8016  0.0434
12992SOL    HW239758   1.921   5.307   7.802  0.5579 -0.9373 -0.3202
12993SOL     OW39759   0.834   2.788   5.537 -0.1322 -0.7139 -0.5301
12993SOL    HW139760   0.807   2.822   5.622  1.6246  2.7902 -1.1914
12993SOL    HW239761   0.880   2.706   5.557 -0.3275 -0.3099  1.8199
12994SOL     OW39762   7.821   2.249   3.087 -0.1114  0.2212  0.4861
12994SOL    HW139763   7.784   2.186   3.149  0.4954 -0.4462  0.1794
12994SOL    HW239764   7.880   2.197   3.033 -1.2185  0.6140 -1.1762
12995SOL     OW39765   0.774   0.155   1.774 -0.2185 -0.0589  0.2227
12995SOL    HW139766   0.711   0.205   1.722 -0.3496  0.7071  1.0887
12995SOL    HW239767   0.848   0.139   1.716  0.2753  2.0465  0.2131
12996SOL     OW39768   6.900   4.972   4.081 -0.8335  0.2038 -0.4399
12996SOL    HW139769   6.897   5.042   4.015 -2.1965  0.5693 -0.0196
12996SOL    HW239770   6.965   5.001   4.144 -0.1231  0.2470 -1.1681
12997SOL     OW39771   2.738   6.007   0.979  0.3804  0.1209 -0.6006
12997SOL    HW139772   2.690   6.067   1.037  1.9800  2.1148 -1.2179
12997SOL    HW239773   2.791   5.954   1.038 -2.4700 -2.2089  0.1083
12998SOL     OW39774   3.724   0.003   7.367 -0.0811 -0.0573  0.0588
12998SOL    HW139775   3.643   0.049   7.388 -0.9545 -1.5516  0.1183
12998SOL    HW239776   3.710  -0.030   7.278  0.9035  0.5772 -0.3403
12999SOL     OW39777   1.957   6.744   6.793 -0.5546 -0.0569 -0.0714
12999SOL    HW139778   1.963   6.814   6.857  3.2937 -0.2971  0.0887
12999SOL    HW239779   1.869   6.709   6.803 -1.3973  2.4206  2.3223
13000SOL     OW39780   1.863   6.364   6.796  0.0835 -0.0928 -0.1840
13000SOL    HW139781   1.799   6.434   6.790 -0.3247 -0.2913  1.4388
13000SOL    HW239782   1.886   6.344   6.705 -0.5256  1.4479 -0.7027
13001SOL     OW39783   7.277   0.019   7.036  0.1794 -0.4477  0.3516
13001SOL    HW139784   7.347   0.000   7.099 -1.1248 -1.1856  1.6631
13001SOL    HW239785   7.242  -0.067   7.013  0.2829 -0.1451 -0.9910
13002SOL     OW39786   1.713   2.287   2.072  0.0357 -0.0289 -0.3133
13002SOL    HW139787   1.803   2.293   2.103  0.1373  0.0118 -0.6170
13002SOL    HW239788   1.683   2.200   2.100  0.1461 -0.0138 -0.1513
13003SOL     OW39789   7.225   4.315   5.927 -0.2344  0.8112 -0.0518
13003SOL    HW139790   7.303   4.261   5.911 -1.5246 -0.7584 -1.3618
13003SOL    HW239791   7.227   4.380   5.856 -0.6479  0.1212 -0.7075
13004SOL     OW39792   7.452   6.995   7.074  0.0279 -0.1962  0.3824
13004SOL    HW139793   7.402   6.964   7.149 -0.4844 -1.4109 -0.4271
13004SOL    HW239794   7.408   7.077   7.050 -0.7654 -0.5718  0.4935
13005SOL     OW39795   0.908   2.788   7.226 -0.3663  0.3550 -0.5775
13005SOL    HW139796   0.836   2.762   7.284  0.4615 -0.3371  0.1719
13005SOL    HW239797   0.943   2.868   7.264  1.7088 -1.3350  1.3605
13006SOL     OW39798   8.314   3.869   2.917 -0.6620 -0.0801 -0.0955
13006SOL    HW139799   8.376   3.935   2.948 -2.1411  0.6593  1.3968
13006SOL    HW239800   8.257   3.852   2.991 -2.5920 -0.3428 -1.5605
13007SOL     OW39801   0.504   2.221   4.589 -0.0577  0.5269 -0.1721
13007SOL    HW139802   0.417   2.236   4.626  0.1084  1.5464 -0.1621
13007SOL    HW239803   0.518   2.127   4.597 -1.4416  0.2395 -0.8047
13008SOL     OW39804   7.809   0.995   8.246 -0.0392  0.3513  0.3263
13008SOL    HW139805   7.755   1.066   8.212 -0.5426 -0.1483  0.0597
13008SOL    HW239806   7.888   1.038   8.279  1.1662  0.7156 -2.7822
13009SOL     OW39807   5.116   2.472   2.572  0.0067  0.0989 -0.1009
13009SOL    HW139808   5.050   2.540   2.589 -0.9288 -0.2839 -1.8508
13009SOL    HW239809   5.153   2.497   2.487 -0.0830 -1.3425 -0.5885
13010SOL     OW39810   3.659   4.998   4.295 -0.1435  0.1590 -0.4640
13010SOL    HW139811   3.579   5.031   4.335 -0.4921 -1.0853 -0.1062
13010SOL    HW239812   3.630   4.950   4.217  0.1771 -0.8581  0.0249
13011SOL     OW39813   2.725   3.661   3.901 -0.0726 -0.1671 -0.5583
13011SOL    HW139814   2.762   3.702   3.979 -1.9680 -1.8503  1.3468
13011SOL    HW239815   2.689   3.734   3.850 -0.6234  0.8128  1.1728
13012SOL     OW39816   6.558   4.021   8.090 -0.2564  0.4468 -0.5612
13012SOL    HW139817   6.595   3.978   8.168 -3.1994 -0.2155  0.6244
13012SOL    HW239818   6.611   3.988   8.017  1.3701 -0.4606  0.9491
13013SOL     OW39819   2.472   8.080   8.175  0.6991  0.1767 -0.3178
13013SOL    HW139820   2.488   8.174   8.165  0.2897  0.5438  1.8932
13013SOL    HW239821   2.555   8.044   8.206  0.7658 -0.1474 -0.8596
13014SOL     OW39822   2.183   0.102   3.565  0.4427 -0.2567  0.5734
13014SOL    HW139823   2.217   0.175   3.618  0.5917 -0.3584  0.6179
13014SOL    HW239824   2.253   0.083   3.503 -0.3795  0.9856 -0.8077
13015SOL     OW39825   1.328   6.075   5.560  0.2663 -0.2753  0.2349
13015SOL    HW139826   1.336   6.158   5.514  1.2612 -0.3606  0.2302
13015SOL    HW239827   1.293   6.099   5.646 -0.2442  0.0428 -0.0561
13016SOL     OW39828   1.099   8.215   7.806  0.1628  0.5901  0.0666
13016SOL    HW139829   1.037   8.187   7.739  1.5007 -0.0988 -0.9227
13016SOL    HW239830   1.178   8.164   7.789  0.5052  0.3020  2.2674
13017SOL     OW39831   8.052   2.451   1.381 -0.1230 -0.0357  0.1885
13017SOL    HW139832   7.977   2.501   1.348 -0.3490 -0.1067  0.5888
13017SOL    HW239833   8.030   2.434   1.473  1.0742  1.3036  0.7654
13018SOL     OW39834   3.125   0.009   5.189 -0.3642  0.0988  0.0041
13018SOL    HW139835   3.116   0.029   5.282 -0.1443 -0.3971  0.1345
13018SOL    HW239836   3.113   0.093   5.145 -0.8969  0.2633  0.4549
13019SOL     OW39837   2.634   6.304   6.133 -0.6515  0.5508  0.2089
13019SOL    HW139838   2.616   6.363   6.205  0.0274  2.8657 -1.4169
13019SOL    HW239839   2.551   6.297   6.086 -0.8951 -0.3457  0.7454
13020SOL     OW39840   2.058   0.423   2.119 -0.0593 -0.5167 -0.2640
13020SOL    HW139841   2.116   0.365   2.169 -1.2476 -0.3092  1.4197
13020SOL    HW239842   2.006   0.363   2.065 -0.1418 -0.9184  0.2458
13021SOL     OW39843   5.492   5.567   1.402 -0.1607 -0.2241 -0.3183
13021SOL    HW139844   5.405   5.542   1.432 -0.2204 -0.1098 -0.3978
13021SOL    HW239845   5.552   5.523   1.463 -0.2877  0.2281  0.1443
13022SOL     OW39846   8.172   6.336   6.625 -0.1226 -0.0674  0.6627
13022SOL    HW139847   8.096   6.301   6.672 -1.2340  0.0535 -0.9668
13022SOL    HW239848   8.238   6.267   6.631 -0.7765 -0.6702  1.1029
13023SOL     OW39849   6.736   8.077   2.934  0.6144 -0.1969  0.6260
13023SOL    HW139850   6.660   8.084   2.877  1.0725 -0.6005 -0.0444
13023SOL    HW239851   6.711   8.125   3.013 -0.1104  0.1785  0.1798
13024SOL     OW39852   2.485   5.099   8.222 -0.2172 -0.3283  0.4836
13024SOL    HW139853   2.433   5.179   8.209  0.3044  0.0987  0.9838
13024SOL    HW239854   2.420   5.035   8.251 -0.7157 -0.2167 -0.3405
13025SOL     OW39855   2.855   3.396   4.884  0.2596 -0.1014  0.1105
13025SOL    HW139856   2.828   3.316   4.930  2.6667 -0.8025  0.4483
13025SOL    HW239857   2.903   3.365   4.808 -0.5243  1.0791 -0.9115
13026SOL     OW39858   1.899   3.281   4.022  0.1054  0.2097  0.1567
13026SOL    HW139859   1.934   3.197   3.992  1.1069 -1.0034  4.1775
13026SOL    HW239860   1.808   3.263   4.044  0.2084  0.2553  0.6375
13027SOL     OW39861   8.077   7.959   4.562  0.4007  0.1337  0.0152
13027SOL    HW139862   8.156   7.906   4.556  0.5430  0.0823  1.7599
13027SOL    HW239863   8.076   8.010   4.481 -0.6820 -3.7030 -2.6085
13028SOL     OW39864   0.294   6.102   6.215  0.5803  0.3337  0.0120
13028SOL    HW139865   0.252   6.177   6.173 -0.8941  0.0611  0.9435
13028SOL    HW239866   0.222   6.047   6.244  1.5230  0.4592  2.8381
13029SOL     OW39867   5.485   5.797   7.646 -0.3338 -0.4092  0.3503
13029SOL    HW139868   5.580   5.796   7.638 -0.2586 -1.6738  1.0833
13029SOL    HW239869   5.465   5.724   7.704 -1.7673 -0.2264  0.1342
13030SOL     OW39870   4.798   3.652   3.722 -0.5163 -0.5543 -0.1850
13030SOL    HW139871   4.806   3.592   3.648 -0.1787 -0.9605  0.1799
13030SOL    HW239872   4.874   3.710   3.714  0.3193 -1.4995  0.6470
13031SOL     OW39873   1.616   0.966   2.842  0.1561  0.2187  0.4590
13031SOL    HW139874   1.691   1.016   2.873  1.1289 -0.2128 -1.0604
13031SOL    HW239875   1.593   1.007   2.758 -0.5719 -0.3636  0.3680
13032SOL     OW39876   1.809   3.146   3.673  0.6262 -0.3397  0.2147
13032SOL    HW139877   1.755   3.223   3.655 -0.8508 -1.8629 -2.6595
13032SOL    HW239878   1.758   3.095   3.736  0.3624 -0.1470  0.1564
13033SOL     OW39879   0.655   0.617   3.072  0.0442 -0.8010  0.1219
13033SOL    HW139880   0.744   0.650   3.085 -0.2796 -0.3021  1.2212
13033SOL    HW239881   0.643   0.618   2.977  1.9720 -3.0063 -0.2338
13034SOL     OW39882   6.590   3.259   5.469  0.2742  0.6774  0.6179
13034SOL    HW139883   6.603   3.192   5.536 -0.3184  0.8430  0.8973
13034SOL    HW239884   6.612   3.341   5.512  1.6751  0.6162  0.0809
13035SOL     OW39885   4.476   5.819   6.157 -0.4296 -0.0548  0.1029
13035SOL    HW139886   4.537   5.840   6.228 -0.0130 -0.4424 -0.1304
13035SOL    HW239887   4.532   5.780   6.089 -1.2536 -2.7192  0.8336
13036SOL     OW39888   7.658   1.212   0.850 -0.0760 -0.2272  0.2930
13036SOL    HW139889   7.747   1.217   0.885 -0.2234  0.7200  0.5569
13036SOL    HW239890   7.666   1.158   0.771  0.7224 -0.1759  0.3309
13037SOL     OW39891   5.213   7.180   6.614  0.2878 -0.6642 -0.4185
13037SOL    HW139892   5.228   7.242   6.686 -0.4737 -2.5775  1.4986
13037SOL    HW239893   5.299   7.142   6.597  0.4137 -0.4378 -0.2969
13038SOL     OW39894   8.109   2.562   5.090  0.2086 -0.4522  0.1759
13038SOL    HW139895   8.189   2.609   5.113  0.8285 -0.4511 -1.7790
13038SOL    HW239896   8.059   2.625   5.037 -0.3029 -1.0115 -0.0173
13039SOL     OW39897   0.266   8.164   1.030 -0.1899 -1.0768 -0.5334
13039SOL    HW139898   0.344   8.218   1.014 -1.0550  0.5660  0.6339
13039SOL    HW239899   0.214   8.173   0.950  0.6172 -1.9161 -1.1833
13040SOL     OW39900   3.108   3.736   0.130  0.0346 -0.2526  0.7275
13040SOL    HW139901   3.039   3.715   0.067  0.5239  0.6865 -0.1696
13040SOL    HW239902   3.177   3.672   0.112  0.8273  0.9608 -0.8337
13041SOL     OW39903   6.622   2.345   3.305 -0.0751  0.0679  0.3107
13041SOL    HW139904   6.713   2.349   3.333  0.1271  0.3131 -0.3572
13041SOL    HW239905   6.580   2.284   3.366  0.9612 -1.5691 -0.5445
13042SOL     OW39906   7.101   2.066   3.677  0.4001 -0.3924  0.1706
13042SOL    HW139907   7.032   2.128   3.702  1.4608  0.0800  2.1369
13042SOL    HW239908   7.055   1.985   3.659 -0.9041  0.6072 -1.2661
13043SOL     OW39909   3.823   3.811   7.319  0.6158  0.1254  0.1292
13043SOL    HW139910   3.872   3.878   7.270  0.4393  0.1808  0.0287
13043SOL    HW239911   3.806   3.852   7.404  1.9882 -0.4225  0.6887
13044SOL     OW39912   5.210   0.650   3.993  0.1743 -0.0035  0.1261
13044SOL    HW139913   5.246   0.577   4.043  1.7922  1.2049  0.8485
13044SOL    HW239914   5.165   0.610   3.920  0.2497 -1.7460  0.9858
13045SOL     OW39915   5.360   7.972   3.105 -0.0772 -0.0026  0.1162
13045SOL    HW139916   5.281   7.921   3.125  0.4281 -1.3653 -1.2417
13045SOL    HW239917   5.416   7.961   3.182  0.6880 -2.8846 -0.7588
13046SOL     OW39918   7.520   0.143   7.709  0.3153 -0.5194 -0.4173
13046SOL    HW139919   7.578   0.090   7.764  0.0283 -1.5917 -1.1124
13046SOL    HW239920   7.442   0.088   7.698  0.3760 -0.3265 -1.9065
13047SOL     OW39921   6.316   3.982   4.716 -0.1159 -0.1348  0.7378
13047SOL    HW139922   6.242   4.020   4.668 -0.5560 -1.9140 -0.0672
13047SOL    HW239923   6.394   4.022   4.676 -0.5602  0.0327  0.0273
13048SOL     OW39924   7.401   0.907   6.033 -0.3858  0.3262  0.2655
13048SOL    HW139925   7.310   0.894   6.006 -0.6797  1.3193  0.7383
13048SOL    HW239926   7.399   0.895   6.128 -0.3643  2.0966  0.5081
13049SOL     OW39927   0.633   1.571   1.616  0.0092  0.1271  0.1403
13049SOL    HW139928   0.588   1.490   1.592 -0.4631  0.7722 -1.2971
13049SOL    HW239929   0.669   1.554   1.703 -1.4828 -1.0501  0.5721
13050SOL     OW39930   3.007   4.703   6.122  0.1420 -0.1960  0.4816
13050SOL    HW139931   2.920   4.704   6.162 -0.2070  1.4063 -0.2294
13050SOL    HW239932   3.018   4.792   6.087  3.0149  0.3923  2.5369
13051SOL     OW39933   1.329   1.096   6.218  0.5247 -0.1735 -0.3377
13051SOL    HW139934   1.395   1.117   6.152  1.2573 -0.0137  0.4265
13051SOL    HW239935   1.247   1.088   6.169  1.0448 -0.0032 -1.2510
13052SOL     OW39936   7.874   4.878   0.279  0.5683  0.0770  0.2693
13052SOL    HW139937   7.857   4.788   0.309  0.5387 -0.2739 -0.7817
13052SOL    HW239938   7.787   4.913   0.259  0.7556 -0.6084 -1.9545
13053SOL     OW39939   6.949   5.310   7.370 -0.0375  0.2726 -0.2038
13053SOL    HW139940   6.997   5.342   7.294  0.2582 -0.4958 -0.3508
13053SOL    HW239941   6.906   5.388   7.406 -2.2802  0.2866 -2.6251
13054SOL     OW39942   2.116   4.644   4.908  0.6005  0.1673  0.0205
13054SOL    HW139943   2.075   4.708   4.966 -2.2056 -1.3815 -0.1029
13054SOL    HW239944   2.137   4.570   4.965  1.6958  0.2591 -0.2436
13055SOL     OW39945   0.669   1.212   5.523 -0.0754 -0.2224 -0.6819
13055SOL    HW139946   0.763   1.229   5.522 -0.1258  0.2456  0.5801
13055SOL    HW239947   0.652   1.182   5.613 -0.8932 -1.7325 -1.3056
13056SOL     OW39948   8.255   8.110   8.273  0.1035  0.6365 -0.1553
13056SOL    HW139949   8.232   8.144   8.360 -0.9925 -1.2773  0.3780
13056SOL    HW239950   8.350   8.099   8.276  0.0945  0.6937  0.7840
13057SOL     OW39951   6.591   3.825   5.758 -0.9731 -0.2962 -0.3530
13057SOL    HW139952   6.632   3.908   5.735  2.3829 -1.1713  1.6680
13057SOL    HW239953   6.606   3.769   5.682  0.9470 -0.3106 -0.0220
13058SOL     OW39954   0.705   5.767   6.647 -0.0725  0.3653  0.5804
13058SOL    HW139955   0.695   5.768   6.742 -1.0368 -0.4626  0.5063
13058SOL    HW239956   0.616   5.755   6.613  0.4567 -1.2977 -0.3557
13059SOL     OW39957   1.147   4.132   0.009  0.2281 -0.0035  0.0126
13059SOL    HW139958   1.063   4.102   0.042  0.0552  0.2554 -0.1838
13059SOL    HW239959   1.211   4.102   0.074  0.2318 -1.9271 -0.8362
13060SOL     OW39960   4.093   5.492   7.601  0.0736 -0.4480  0.2884
13060SOL    HW139961   4.185   5.464   7.603  0.3787  0.3773 -1.0051
13060SOL    HW239962   4.076   5.510   7.508 -1.2785 -0.2001  0.5718
13061SOL     OW39963   1.498   7.413   2.425 -0.2517 -0.2244 -0.0280
13061SOL    HW139964   1.409   7.394   2.453 -0.4590 -0.6817 -0.9691
13061SOL    HW239965   1.489   7.480   2.357  0.3011  1.4428  1.4676
13062SOL     OW39966   3.806   0.116   3.768  0.3659 -0.1373 -0.3216
13062SOL    HW139967   3.718   0.077   3.769 -0.0964  0.8183 -1.3924
13062SOL    HW239968   3.839   0.104   3.857 -0.7367 -0.7744  0.0145
13063SOL     OW39969   4.084   7.433   5.414 -0.1071  0.2613  0.2452
13063SOL    HW139970   4.163   7.383   5.434  0.8422  2.3605  2.2362
13063SOL    HW239971   4.073   7.424   5.319  2.7768  0.2193 -0.1785
13064SOL     OW39972   4.150   0.565   2.731  0.6631 -0.6600  0.0245
13064SOL    HW139973   4.226   0.620   2.749  0.0969  0.1258  0.0557
13064SOL    HW239974   4.095   0.617   2.673  0.3107 -1.3658 -0.2935
13065SOL     OW39975   2.072   7.781   7.734 -0.4611  0.3743  0.0695
13065SOL    HW139976   2.054   7.873   7.754  0.0687  0.4775  0.0613
13065SOL    HW239977   2.082   7.779   7.638 -0.9482  0.2219  0.0143
13066SOL     OW39978   6.442   6.761   1.307  0.1484 -0.0303 -0.0676
13066SOL    HW139979   6.387   6.752   1.384 -0.1329  0.2244 -0.2395
13066SOL    HW239980   6.489   6.678   1.301  0.5086  0.1206  0.6361
13067SOL     OW39981   1.865   1.617   0.995 -0.2017 -0.7779 -0.2356
13067SOL    HW139982   1.922   1.551   0.955  0.7573  0.2161 -0.5722
13067SOL    HW239983   1.815   1.569   1.060 -0.4710 -2.0948 -1.3586
13068SOL     OW39984   0.143   1.396   4.973  0.3967 -0.4720  1.0575
13068SOL    HW139985   0.117   1.382   4.882 -2.5877 -3.4892  2.1693
13068SOL    HW239986   0.082   1.463   5.005  1.2738  0.3983  0.9373
13069SOL     OW39987   6.050   4.424   6.700  0.5214  0.5152 -0.1228
13069SOL    HW139988   6.112   4.485   6.742 -0.3441  2.1277 -1.0682
13069SOL    HW239989   6.104   4.374   6.638  1.1184  0.9645  0.0201
13070SOL     OW39990   8.027   4.079   0.691  0.0052  0.3464 -0.5370
13070SOL    HW139991   8.117   4.048   0.691  0.1823  0.8423 -1.2146
13070SOL    HW239992   8.032   4.169   0.657 -0.6708  0.5957 -0.0080
13071SOL     OW39993   7.458   5.810   1.201  0.7254 -0.4005  0.1883
13071SOL    HW139994   7.379   5.772   1.161 -0.2377  0.1621  1.4989
13071SOL    HW239995   7.505   5.848   1.127  0.7605 -2.4042 -0.9016
13072SOL     OW39996   5.857   5.943   3.830 -0.1202  0.7971 -0.0519
13072SOL    HW139997   5.853   5.958   3.924  0.1561  0.9134 -0.0566
13072SOL    HW239998   5.787   5.998   3.794 -1.5479 -0.7500  0.2478
13073SOL     OW39999   6.384   5.079   3.305 -0.4410 -0.2116 -0.0883
13073SOL    HW140000   6.329   5.132   3.364 -0.8467 -1.4735  0.7120
13073SOL    HW240001   6.349   5.095   3.218  0.1164  1.6365 -0.0193
13074SOL     OW40002   5.534   8.325   5.176 -0.5730  0.0988 -0.2165
13074SOL    HW140003   5.627   8.308   5.193 -0.5873 -0.4403 -0.6569
13074SOL    HW240004   5.530   8.346   5.083 -1.1213 -1.7595 -0.6668
13075SOL     OW40005   2.337   1.879   7.070  0.2258 -0.1809 -0.5445
13075SOL    HW140006   2.362   1.921   7.153  0.7230 -1.4832 -0.0049
13075SOL    HW240007   2.346   1.948   7.005  1.4708  0.4413  0.2436
13076SOL     OW40008   4.802   0.800   7.820  0.0740 -0.2974 -0.3142
13076SOL    HW140009   4.895   0.784   7.809  0.0631 -2.3140  1.8630
13076SOL    HW240010   4.797   0.870   7.885  0.0638 -0.3641 -0.2433
13077SOL     OW40011   2.270   1.547   3.828  0.5641 -0.1309 -0.3932
13077SOL    HW140012   2.256   1.583   3.740 -0.5338 -0.4006 -0.3462
13077SOL    HW240013   2.199   1.584   3.880  1.0721 -0.1625  0.3326
13078SOL     OW40014   6.808   5.673   3.581 -0.1880  0.5544  0.4053
13078SOL    HW140015   6.835   5.723   3.504 -0.2244  1.8551  1.2129
13078SOL    HW240016   6.865   5.596   3.580 -1.1353 -0.2037 -1.6864
13079SOL     OW40017   7.915   7.114   7.920 -0.0816 -0.2337  0.1322
13079SOL    HW140018   7.886   7.056   7.850  0.8127 -1.0702  0.4420
13079SOL    HW240019   7.896   7.067   8.001  1.7376 -0.6508  0.3582
13080SOL     OW40020   0.274   0.724   2.790  0.1202  0.6070  0.2924
13080SOL    HW140021   0.276   0.635   2.825  0.3396  1.7111  3.4425
13080SOL    HW240022   0.181   0.747   2.785 -0.0197 -0.2367 -1.9945
13081SOL     OW40023   3.388   6.226   7.103  0.0829  0.3216  0.2758
13081SOL    HW140024   3.377   6.196   7.013 -0.5934 -0.1774  0.5168
13081SOL    HW240025   3.388   6.146   7.156  1.0785  0.5619  0.6774
13082SOL     OW40026   7.317   3.830   6.036  0.0651 -0.0554 -0.1714
13082SOL    HW140027   7.272   3.830   5.952 -0.1047  3.5742 -0.2293
13082SOL    HW240028   7.379   3.757   6.030  0.7831  0.6681 -3.8517
13083SOL     OW40029   7.841   2.089   2.590  0.0551  0.4750  0.0611
13083SOL    HW140030   7.754   2.066   2.621 -0.0186  0.8357  0.1329
13083SOL    HW240031   7.832   2.097   2.495  0.0773  0.2276  0.0387
13084SOL     OW40032   7.981   6.259   0.174 -0.6314 -0.5837 -0.1546
13084SOL    HW140033   7.956   6.303   0.256  2.9641  1.2280  0.1638
13084SOL    HW240034   8.040   6.189   0.202 -1.4932 -1.7310 -1.1034
13085SOL     OW40035   8.211   1.498   0.388  0.2568 -0.3951  0.6075
13085SOL    HW140036   8.119   1.481   0.366  0.1501 -0.3512  1.0034
13085SOL    HW240037   8.207   1.550   0.468  0.6254 -0.2265  0.5171
13086SOL     OW40038   5.621   4.331   4.089 -0.1346  0.0114  0.0718
13086SOL    HW140039   5.669   4.401   4.046 -0.8592 -0.5904 -1.8214
13086SOL    HW240040   5.548   4.312   4.029 -2.4113  0.4782  2.4936
13087SOL     OW40041   5.991   5.423   7.192 -0.0278  0.5226 -0.4748
13087SOL    HW140042   6.075   5.422   7.146  0.5092  3.2551  0.3099
13087SOL    HW240043   5.953   5.508   7.172 -1.0282  0.7128  1.8825
13088SOL     OW40044   4.251   3.227   5.353 -0.3130 -0.4063  0.1513
13088SOL    HW140045   4.300   3.224   5.435  0.7256  0.7613 -0.4002
13088SOL    HW240046   4.313   3.197   5.287 -0.6295  0.1616 -0.4164
13089SOL     OW40047   1.234   1.197   3.586 -0.0728  0.0067 -0.4789
13089SOL    HW140048   1.148   1.155   3.575  0.2927 -0.9322  0.0946
13089SOL    HW240049   1.225   1.251   3.664 -0.3598  0.5307 -0.8640
13090SOL     OW40050   7.850   6.180   2.976 -0.6506  0.5893 -0.2176
13090SOL    HW140051   7.839   6.099   2.927 -0.4850  0.0942  0.5626
13090SOL    HW240052   7.933   6.171   3.021  0.4201  2.0627 -1.7425
13091SOL     OW40053   3.509   7.126   8.295 -0.9802  0.0059 -0.7802
13091SOL    HW140054   3.575   7.060   8.274 -1.5061 -0.2001 -1.8390
13091SOL    HW240055   3.472   7.150   8.210 -1.9380  0.4679 -0.2401
13092SOL     OW40056   7.368   3.023   0.706  0.1154  0.6243 -0.6924
13092SOL    HW140057   7.358   3.050   0.798 -0.2470  0.2242 -0.6078
13092SOL    HW240058   7.278   3.025   0.671  0.4706  2.9191 -1.6764
13093SOL     OW40059   6.573   0.890   5.563  0.2054 -0.2934  0.0576
13093SOL    HW140060   6.515   0.816   5.581 -0.1822 -0.2312 -0.8652
13093SOL    HW240061   6.584   0.889   5.468  2.1494 -0.6116  0.2481
13094SOL     OW40062   1.793   1.171   1.038  0.8752 -0.0610 -0.1754
13094SOL    HW140063   1.817   1.110   1.108 -0.1073  0.4099  0.6015
13094SOL    HW240064   1.752   1.116   0.971 -0.9114 -0.1802  0.9522
13095SOL     OW40065   7.971   2.735   6.251  0.0879  0.0702  0.6355
13095SOL    HW140066   7.975   2.641   6.265  0.6353 -0.1325 -0.7657
13095SOL    HW240067   8.057   2.759   6.217 -0.6939  0.7183 -0.9756
13096SOL     OW40068   4.147   7.743   8.227 -0.0714  0.3954  0.0622
13096SOL    HW140069   4.231   7.731   8.183 -0.0048  2.7756 -0.5531
13096SOL    HW240070   4.088   7.683   8.181  1.3495 -1.8926  0.9954
13097SOL     OW40071   6.262   1.054   5.260 -0.0948  0.3926  0.1313
13097SOL    HW140072   6.298   0.966   5.271 -0.6297  0.1114 -0.2861
13097SOL    HW240073   6.182   1.053   5.313 -1.1349 -0.0230 -1.3767
13098SOL     OW40074   5.463   2.581   7.046  0.6249 -0.2172 -0.1118
13098SOL    HW140075   5.453   2.538   7.131  1.1818  1.2241  0.7257
13098SOL    HW240076   5.383   2.634   7.037  0.2373 -0.9022 -0.8362
13099SOL     OW40077   8.095   0.699   5.077 -0.2139 -0.3956 -0.3701
13099SOL    HW140078   8.101   0.609   5.046 -0.4651 -0.3345 -0.6032
13099SOL    HW240079   8.067   0.692   5.168 -0.9579 -0.5347 -0.6030
13100SOL     OW40080   1.680   7.102   7.900 -0.4692  0.1641  0.4843
13100SOL    HW140081   1.624   7.051   7.959  0.7309 -3.4537 -1.2075
13100SOL    HW240082   1.762   7.112   7.949 -1.1445  1.7930  1.3485
13101SOL     OW40083   1.625   2.897   1.166 -0.2415 -0.1344 -0.1363
13101SOL    HW140084   1.585   2.984   1.175  0.0123  0.0588 -0.8044
13101SOL    HW240085   1.670   2.884   1.250  0.2114  0.6406 -0.2410
13102SOL     OW40086   2.089   6.487   0.196  0.0913  0.0040  0.3243
13102SOL    HW140087   2.072   6.428   0.123 -0.2251 -0.4396  0.7508
13102SOL    HW240088   2.016   6.472   0.256 -1.0896  2.2709 -0.4473
13103SOL     OW40089   0.492   2.635   1.111  0.3236  0.1503 -0.1937
13103SOL    HW140090   0.427   2.704   1.098 -1.9307 -1.6214  0.8887
13103SOL    HW240091   0.551   2.642   1.037 -0.9272  2.0665 -1.0719
13104SOL     OW40092   5.510   2.219   8.182 -0.2157  0.1130 -0.2428
13104SOL    HW140093   5.463   2.173   8.112 -0.0932 -0.2992 -0.0565
13104SOL    HW240094   5.552   2.149   8.232  0.2452  0.4507 -0.1543
13105SOL     OW40095   5.523   3.274   2.260  0.6238  0.0836 -0.0804
13105SOL    HW140096   5.447   3.262   2.202 -0.6767  1.5352  1.2286
13105SOL    HW240097   5.488   3.321   2.335  2.5621 -0.5075  1.2566
13106SOL     OW40098   4.979   5.308   5.872 -0.3012 -0.3938 -0.3254
13106SOL    HW140099   5.022   5.364   5.937  1.2906 -1.4489 -0.4329
13106SOL    HW240100   4.885   5.322   5.888  0.0358  1.6583  0.1767
13107SOL     OW40101   7.070   0.524   0.269 -0.2921 -0.4255  0.8167
13107SOL    HW140102   7.065   0.443   0.320  1.2845 -0.2190  1.3416
13107SOL    HW240103   6.989   0.525   0.219 -0.9255 -1.6917  1.7488
13108SOL     OW40104   1.235   3.439   7.383  0.3634  0.0210 -0.1780
13108SOL    HW140105   1.147   3.433   7.421  0.3173  0.2457 -0.2449
13108SOL    HW240106   1.287   3.377   7.433  0.5491  1.0656  0.9743
13109SOL     OW40107   0.723   5.267   0.331  0.2593 -0.3023 -0.3733
13109SOL    HW140108   0.742   5.302   0.244 -0.1888 -0.9218 -0.7222
13109SOL    HW240109   0.634   5.298   0.350  0.8372  0.9679  0.4461
13110SOL     OW40110   5.267   7.136   5.228 -0.8424 -0.4079 -0.1670
13110SOL    HW140111   5.243   7.220   5.267 -2.3234 -1.1774  0.6848
13110SOL    HW240112   5.311   7.159   5.146 -3.1042  1.2090 -1.0378
13111SOL     OW40113   1.284   0.540   2.017 -0.1633 -0.4747  0.8047
13111SOL    HW140114   1.293   0.454   2.059  1.2984 -0.9444 -0.3843
13111SOL    HW240115   1.230   0.590   2.077  0.1328 -1.7818  2.2289
13112SOL     OW40116   1.345   3.973   6.278 -0.3301  0.2142  0.2292
13112SOL    HW140117   1.407   3.903   6.296  1.0544  1.5422  0.8934
13112SOL    HW240118   1.276   3.932   6.226 -0.8232 -2.1717  2.5610
13113SOL     OW40119   2.011   0.314   3.545  0.0149  0.2071 -0.6863
13113SOL    HW140120   1.931   0.300   3.595  0.2774 -0.8777 -0.5640
13113SOL    HW240121   2.055   0.230   3.545  1.5733  0.9921 -0.0579
13114SOL     OW40122   0.002   0.969   1.597  0.4878 -0.2240  0.0580
13114SOL    HW140123  -0.074   0.943   1.544 -0.8177  1.1762  1.1707
13114SOL    HW240124   0.032   1.051   1.557  0.9858 -0.4126  0.0422
13115SOL     OW40125   4.323   7.131   1.095 -0.2438 -0.0701  0.0082
13115SOL    HW140126   4.388   7.086   1.041 -0.8323 -0.6504 -0.2288
13115SOL    HW240127   4.355   7.121   1.185  0.6274  0.7111 -0.1919
13116SOL     OW40128   8.295   0.408   6.339  0.0583  0.2249 -0.3505
13116SOL    HW140129   8.360   0.397   6.409  1.7647 -0.0668 -1.8902
13116SOL    HW240130   8.233   0.471   6.374 -0.0328 -1.0439  1.9982
13117SOL     OW40131   8.010   3.378   0.954 -0.1826  0.0602  0.3883
13117SOL    HW140132   7.927   3.390   0.908 -0.6057  0.7924  1.3045
13117SOL    HW240133   8.003   3.292   0.994 -1.2459  0.7978  1.8882
13118SOL     OW40134   7.079   6.441   6.970 -0.4321  0.1910 -0.4805
13118SOL    HW140135   7.155   6.403   6.925  1.4194  3.7267 -0.7111
13118SOL    HW240136   7.008   6.433   6.907 -0.1821 -2.5866 -0.5445
13119SOL     OW40137   6.418   8.186   4.797 -0.5995 -0.1490  1.1039
13119SOL    HW140138   6.418   8.247   4.723 -0.3844 -0.5782  0.7428
13119SOL    HW240139   6.328   8.187   4.829 -1.1949 -1.4359 -0.4026
13120SOL     OW40140   1.027   3.882   3.348  0.2970  0.0185  0.2387
13120SOL    HW140141   1.002   3.824   3.421  1.3820 -1.3133 -0.4063
13120SOL    HW240142   1.030   3.824   3.272 -0.4083  1.3057 -0.8121
13121SOL     OW40143   6.028   6.213   7.644  0.3444  0.1788 -0.0942
13121SOL    HW140144   5.959   6.147   7.643  0.6999 -0.1953 -0.5146
13121SOL    HW240145   5.983   6.296   7.661 -0.2063 -0.0556 -0.3910
13122SOL     OW40146   5.788   6.210   3.402  0.2150 -0.2320  0.4570
13122SOL    HW140147   5.825   6.193   3.489 -1.3181 -0.2476  1.1433
13122SOL    HW240148   5.854   6.263   3.358  0.8213  0.1790  1.8020
13123SOL     OW40149   1.634   2.799   0.561 -0.0509  0.1075  0.3986
13123SOL    HW140150   1.578   2.728   0.531 -0.6411  0.1548  1.3329
13123SOL    HW240151   1.583   2.843   0.629  0.3867  1.3076 -0.0205
13124SOL     OW40152   7.553   5.388   3.688  0.0404  0.3361 -0.2240
13124SOL    HW140153   7.508   5.463   3.728  0.5596  0.2606  0.5219
13124SOL    HW240154   7.491   5.316   3.697 -0.0378  0.4306  0.0183
13125SOL     OW40155   5.094   4.591   7.163  0.3668  0.2474 -0.5571
13125SOL    HW140156   5.009   4.630   7.183  0.8754  0.3824  1.5699
13125SOL    HW240157   5.157   4.647   7.207  1.3266 -1.5146  0.4119
13126SOL     OW40158   2.442   0.854   7.916 -0.1285  0.2746 -0.4633
13126SOL    HW140159   2.392   0.934   7.933  0.5926  0.2737  2.2325
13126SOL    HW240160   2.409   0.791   7.980 -0.6422 -1.6153 -2.4983
13127SOL     OW40161   4.770   0.418   1.503  0.0492  0.2845  0.2888
13127SOL    HW140162   4.789   0.414   1.410 -0.8425 -0.0156  0.1149
13127SOL    HW240163   4.738   0.507   1.518 -0.2821  0.1748  0.2208
13128SOL     OW40164   0.268   5.810   1.664  0.7042 -0.0227 -0.0699
13128SOL    HW140165   0.279   5.819   1.759  1.2720 -0.3108 -0.1054
13128SOL    HW240166   0.187   5.857   1.645 -0.0413 -0.9378  0.7291
13129SOL     OW40167   8.315   2.706   3.182 -0.3948 -0.2334  0.3265
13129SOL    HW140168   8.220   2.720   3.181 -0.6218 -1.5300 -2.1530
13129SOL    HW240169   8.351   2.778   3.129 -0.0090 -0.0650  0.7990
13130SOL     OW40170   5.543   6.607   7.259  0.0888  0.0193  0.2791
13130SOL    HW140171   5.451   6.629   7.245  0.2080 -0.2617 -1.1142
13130SOL    HW240172   5.556   6.526   7.210  0.7665 -0.6773  1.5490
13131SOL     OW40173   5.920   8.115   2.051  0.0012 -0.1767 -0.1870
13131SOL    HW140174   5.846   8.070   2.093  1.4223 -1.3349  1.1761
13131SOL    HW240175   5.960   8.166   2.121 -0.3613  1.6445 -1.2606
13132SOL     OW40176   7.712   4.405   0.804  0.2113  0.2677  0.4780
13132SOL    HW140177   7.703   4.500   0.796 -1.7060  0.1896  1.3225
13132SOL    HW240178   7.689   4.386   0.895 -1.7762 -1.2122 -0.2566
13133SOL     OW40179   3.964   5.459   6.512  0.4822  0.7681 -0.5927
13133SOL    HW140180   4.028   5.528   6.526  1.1922 -0.3618  2.5175
13133SOL    HW240181   3.880   5.500   6.530  0.8023  1.0907  0.2047
13134SOL     OW40182   4.900   1.060   0.270  0.7685  0.2017 -0.3907
13134SOL    HW140183   4.844   1.138   0.267  1.7189  1.0890  1.9306
13134SOL    HW240184   4.982   1.088   0.228  0.5346 -0.1196 -1.0747
13135SOL     OW40185   6.079   2.470   2.002  0.3866  0.4760 -0.0604
13135SOL    HW140186   6.145   2.404   2.023  0.3412  0.2559 -0.5843
13135SOL    HW240187   6.012   2.459   2.070  0.1938 -0.2868 -0.3579
13136SOL     OW40188   5.004   7.688   4.520  0.2454 -0.2212  0.0001
13136SOL    HW140189   4.957   7.612   4.554  0.5688  0.1799  1.4033
13136SOL    HW240190   5.004   7.676   4.425 -0.3150 -1.6087  0.1564
13137SOL     OW40191   0.736   8.104   7.396  0.2857 -0.4521 -0.0358
13137SOL    HW140192   0.756   8.015   7.428  0.3333 -0.2129  0.6253
13137SOL    HW240193   0.659   8.093   7.341 -0.1903 -0.7969  0.6816
13138SOL     OW40194   4.452   1.547   7.517  0.0150 -0.9585 -0.3208
13138SOL    HW140195   4.529   1.568   7.570 -0.1326  0.4956 -0.6464
13138SOL    HW240196   4.411   1.473   7.563 -0.0153  0.1521  1.5269
13139SOL     OW40197   5.475   7.516   8.161 -0.1027 -0.3649 -0.8606
13139SOL    HW140198   5.568   7.499   8.146  0.7185  2.5844  0.0223
13139SOL    HW240199   5.464   7.506   8.256 -0.0563  1.4447 -0.6141
13140SOL     OW40200   6.323   5.993   3.196  0.1093 -0.3780 -0.4020
13140SOL    HW140201   6.263   6.061   3.165  1.4705  0.0152 -2.3485
13140SOL    HW240202   6.267   5.933   3.246 -1.2295  1.8512  0.9586
13141SOL     OW40203   2.287   2.507   1.320  0.7157  0.2808  0.3775
13141SOL    HW140204   2.236   2.490   1.240  1.4655 -1.7525  0.2871
13141SOL    HW240205   2.366   2.551   1.289 -0.5303  2.7272  0.4361
13142SOL     OW40206   2.800   6.441   5.907 -0.6065 -0.4471  0.2026
13142SOL    HW140207   2.859   6.438   5.983 -0.4988 -1.5070  0.0979
13142SOL    HW240208   2.748   6.361   5.914 -1.0840 -0.2037 -0.4617
13143SOL     OW40209   7.773   3.931   6.773 -0.3440 -0.1868 -0.0596
13143SOL    HW140210   7.752   3.877   6.849 -0.5362  1.4449  1.1012
13143SOL    HW240211   7.689   3.946   6.730 -0.6247  0.9255  0.8411
13144SOL     OW40212   6.492   0.423   3.149  0.6520 -0.0976 -0.4007
13144SOL    HW140213   6.486   0.331   3.120  1.3577  0.6142 -3.1713
13144SOL    HW240214   6.404   0.458   3.135  0.5808 -0.1476 -0.0874
13145SOL     OW40215   5.677   6.354   0.022  1.0295 -0.1288  0.0312
13145SOL    HW140216   5.657   6.401   0.103  0.7041  0.0584 -0.1539
13145SOL    HW240217   5.771   6.336   0.027  1.2824  1.0469 -0.1543
13146SOL     OW40218   2.954   2.943   0.645 -0.5904  0.1444 -0.0328
13146SOL    HW140219   3.036   2.984   0.671  0.1913 -0.7640 -0.9828
13146SOL    HW240220   2.898   2.951   0.723  0.0574  1.5766  0.3234
13147SOL     OW40221   3.904   1.896   6.287 -0.5627 -0.0308  0.1894
13147SOL    HW140222   3.933   1.988   6.283 -0.9053  0.0780  0.1708
13147SOL    HW240223   3.823   1.899   6.338  0.4243 -0.5834  1.8466
13148SOL     OW40224   8.022   8.168   7.666  0.6654  0.0999  0.2418
13148SOL    HW140225   7.935   8.147   7.633  0.4789  2.7365 -1.2152
13148SOL    HW240226   8.020   8.263   7.680  3.2103  0.1852  0.4819
13149SOL     OW40227   8.064   2.199   3.629 -0.2502 -0.4329  0.1267
13149SOL    HW140228   8.046   2.113   3.669 -1.4688 -0.8076 -1.1410
13149SOL    HW240229   8.005   2.203   3.554  1.1443  0.7310 -0.9659
13150SOL     OW40230   1.496   4.007   2.286 -0.0648 -0.1411  0.0569
13150SOL    HW140231   1.546   4.022   2.205  2.1589  0.3030  1.4167
13150SOL    HW240232   1.507   3.913   2.304  1.1130  0.1132  0.8090
13151SOL     OW40233   8.250   3.643   3.277 -0.9916  0.9387  0.0171
13151SOL    HW140234   8.338   3.635   3.241 -0.2241  1.1151  1.7396
13151SOL    HW240235   8.195   3.592   3.218  0.4199  0.0564 -0.5785
13152SOL     OW40236   4.054   1.518   2.794  0.0141  0.2646  0.3990
13152SOL    HW140237   3.974   1.519   2.846  0.9264 -0.7132  1.8788
13152SOL    HW240238   4.040   1.447   2.731 -0.8228  1.0111 -0.2849
13153SOL     OW40239   7.732   1.788   3.437 -0.0645  0.2564 -0.3317
13153SOL    HW140240   7.683   1.749   3.365 -0.0677  1.6315 -1.1122
13153SOL    HW240241   7.677   1.862   3.465 -0.4554 -0.7042  1.6381
13154SOL     OW40242   2.820   7.880   7.671 -0.5999 -0.2173  0.5624
13154SOL    HW140243   2.789   7.851   7.757  1.2441 -1.0883  0.9920
13154SOL    HW240244   2.883   7.950   7.691 -1.4564  0.7981 -0.2033
13155SOL     OW40245   6.360   1.034   2.225 -0.5283 -0.1085 -0.4048
13155SOL    HW140246   6.368   0.948   2.266 -0.9128 -0.7033 -1.5561
13155SOL    HW240247   6.361   1.016   2.131  0.5321  1.2421 -0.6833
13156SOL     OW40248   3.678   4.613   4.425 -0.3355 -0.1197 -0.1922
13156SOL    HW140249   3.745   4.681   4.436  0.6231 -1.0483 -0.0812
13156SOL    HW240250   3.706   4.564   4.347 -1.3599 -0.0081 -0.6424
13157SOL     OW40251   3.962   6.642   3.330  0.1291  0.3657 -0.1380
13157SOL    HW140252   3.876   6.620   3.294 -0.6739  2.3959  0.3845
13157SOL    HW240253   4.024   6.597   3.273 -1.2540 -1.7650 -0.0971
13158SOL     OW40254   0.307   8.249   2.404  0.1717 -0.5067  0.3786
13158SOL    HW140255   0.335   8.176   2.459  0.0747  0.8791  2.3524
13158SOL    HW240256   0.211   8.245   2.406  0.0997  0.7892  2.1787
13159SOL     OW40257   2.474   2.098   3.609 -0.0495  0.5680  0.1987
13159SOL    HW140258   2.387   2.062   3.596  0.5198 -1.8842  2.2608
13159SOL    HW240259   2.513   2.100   3.522 -1.4307 -0.3907 -0.4815
13160SOL     OW40260   5.299   2.800   6.995  0.0036  0.4525 -0.4442
13160SOL    HW140261   5.234   2.775   6.929  0.5454 -0.7159 -0.5547
13160SOL    HW240262   5.250   2.854   7.057 -1.0565 -0.3314 -0.5636
13161SOL     OW40263   4.170   5.566   2.498 -0.3410 -0.5983 -0.0083
13161SOL    HW140264   4.143   5.483   2.458 -3.5420  0.4611 -0.3742
13161SOL    HW240265   4.142   5.558   2.589 -0.3548 -0.0686  0.0363
13162SOL     OW40266   1.684   2.361   3.466 -0.0710  0.0942 -0.0300
13162SOL    HW140267   1.687   2.403   3.552  1.1312 -0.9349  0.4660
13162SOL    HW240268   1.613   2.406   3.419 -1.5339 -0.0856  1.8874
13163SOL     OW40269   1.452   3.761   0.185 -0.2701 -0.0454 -0.2002
13163SOL    HW140270   1.541   3.796   0.192  0.5260 -2.0781  0.3873
13163SOL    HW240271   1.458   3.693   0.118 -1.6882  0.5511 -1.0010
13164SOL     OW40272   2.687   2.959   3.266 -0.5018 -0.6544  0.0577
13164SOL    HW140273   2.630   3.034   3.284 -0.7414 -1.0493  1.0221
13164SOL    HW240274   2.761   2.996   3.218 -0.9598  0.0768 -0.1095
13165SOL     OW40275   2.694   7.557   1.601  0.3447  0.7030 -0.3423
13165SOL    HW140276   2.630   7.491   1.573  0.3238 -0.1790  1.6219
13165SOL    HW240277   2.645   7.639   1.599 -0.1646  0.4025 -1.0761
13166SOL     OW40278   0.932   5.682   5.729  0.5644  0.3519 -0.0451
13166SOL    HW140279   0.859   5.717   5.677 -0.1962  1.1900  1.5333
13166SOL    HW240280   0.904   5.594   5.754 -1.2702  1.6633  2.9508
13167SOL     OW40281   7.211   7.323   2.583  0.4941 -0.4834 -0.1972
13167SOL    HW140282   7.223   7.369   2.667  0.2400  1.4939 -1.1815
13167SOL    HW240283   7.120   7.340   2.560  0.6610 -0.7029 -1.0358
13168SOL     OW40284   2.410   7.489   0.174  0.0849 -0.6653  0.0741
13168SOL    HW140285   2.326   7.444   0.165 -0.1084 -1.1437  3.0288
13168SOL    HW240286   2.401   7.569   0.122 -2.8184  0.0036  1.3922
13169SOL     OW40287   4.728   6.660   1.869  0.1543 -0.3506  0.3596
13169SOL    HW140288   4.804   6.631   1.920  0.4270 -0.6913 -0.2182
13169SOL    HW240289   4.683   6.579   1.845 -0.3820 -0.1476  0.6844
13170SOL     OW40290   4.629   3.067   3.122 -0.4753  0.5338  0.5616
13170SOL    HW140291   4.675   3.145   3.154  2.5318 -0.8677  0.0411
13170SOL    HW240292   4.624   3.010   3.199 -1.4882  0.6915  0.6265
13171SOL     OW40293   4.812   0.905   2.511 -0.1393  0.1413 -0.1314
13171SOL    HW140294   4.902   0.926   2.487 -0.1642  0.9155  0.4386
13171SOL    HW240295   4.815   0.890   2.605 -1.0432  2.6953  0.3716
13172SOL     OW40296   1.106   4.530   5.275 -0.0159  0.3093  0.9345
13172SOL    HW140297   1.198   4.550   5.257 -0.4638  0.9052 -0.8166
13172SOL    HW240298   1.092   4.444   5.235  0.1081 -0.4637  2.4533
13173SOL     OW40299   0.150   7.844   6.273 -0.0674  0.0060 -0.2690
13173SOL    HW140300   0.134   7.830   6.366  1.3666 -1.8750 -0.2406
13173SOL    HW240301   0.210   7.918   6.269 -0.3499  0.2672  0.2609
13174SOL     OW40302   7.835   7.357   4.974 -0.2716 -0.0693  0.6189
13174SOL    HW140303   7.748   7.381   4.941  0.3835  0.7228 -0.6098
13174SOL    HW240304   7.825   7.358   5.069 -1.3597  0.9568  0.5214
13175SOL     OW40305   4.361   5.439   7.554 -0.0076  0.0948 -0.0711
13175SOL    HW140306   4.384   5.430   7.461 -0.2019 -2.3539  0.0664
13175SOL    HW240307   4.423   5.382   7.599 -0.3755  0.7075  1.2395
13176SOL     OW40308   1.971   1.404   5.730 -0.5427  0.2886 -0.0255
13176SOL    HW140309   2.017   1.330   5.768 -2.3816 -0.4015  0.9648
13176SOL    HW240310   1.895   1.366   5.688  0.1994  1.3021 -2.4654
13177SOL     OW40311   3.451   6.794   7.071  0.3035 -0.2535 -0.2489
13177SOL    HW140312   3.414   6.736   7.138  0.3510 -0.4519 -0.3913
13177SOL    HW240313   3.449   6.881   7.110 -0.0404 -0.3086 -0.1424
13178SOL     OW40314   1.201   4.923   4.661  0.0096 -0.7475  0.3314
13178SOL    HW140315   1.255   4.976   4.603 -1.0427 -0.9910 -0.9186
13178SOL    HW240316   1.240   4.836   4.658  0.5848 -0.5130  0.8440
13179SOL     OW40317   0.634   7.379   6.601 -0.6976  1.1400 -0.0197
13179SOL    HW140318   0.610   7.287   6.600 -1.8559  1.4284 -0.9567
13179SOL    HW240319   0.664   7.398   6.512  1.4988  1.2141  0.6669
13180SOL     OW40320   0.986   5.446   3.664  0.3352  0.5358  0.3437
13180SOL    HW140321   1.062   5.502   3.647  0.4497  0.4674  0.6228
13180SOL    HW240322   0.954   5.423   3.577  1.6069 -0.7449  0.1806
13181SOL     OW40323   0.940   1.666   2.315 -0.1992  0.3253  0.2923
13181SOL    HW140324   0.917   1.713   2.395 -1.1595  2.9326 -1.3319
13181SOL    HW240325   0.923   1.574   2.334 -1.1939  0.9499  2.7991
13182SOL     OW40326   6.612   3.434   1.742  0.6013 -0.1302 -0.6649
13182SOL    HW140327   6.575   3.377   1.675 -0.8912  0.9897 -0.8394
13182SOL    HW240328   6.612   3.521   1.702 -0.7818  0.6529  0.9049
13183SOL     OW40329   3.568   2.639   6.828  0.1008  0.4280 -0.6817
13183SOL    HW140330   3.565   2.600   6.915  0.1053  0.7744 -0.5256
13183SOL    HW240331   3.660   2.665   6.816  0.4216 -0.9341 -1.3768
13184SOL     OW40332   3.171   0.395   3.881 -0.2795  0.0458 -0.5727
13184SOL    HW140333   3.253   0.398   3.931 -0.2379  0.9817 -0.6645
13184SOL    HW240334   3.133   0.310   3.901  0.1807  0.0442  0.3437
13185SOL     OW40335   1.188   4.994   6.127  0.0349  0.1038 -0.0673
13185SOL    HW140336   1.175   5.083   6.160 -0.7973 -0.2689  0.6774
13185SOL    HW240337   1.126   4.986   6.054  0.3971  0.2654 -0.3920
13186SOL     OW40338   5.671   7.502   2.939 -0.6726 -0.2367 -0.0443
13186SOL    HW140339   5.675   7.525   2.846 -1.2781  1.1447  0.2434
13186SOL    HW240340   5.733   7.562   2.980 -0.2019 -1.0344  0.4217
13187SOL     OW40341   4.053   5.715   2.296  0.1092  0.4846 -0.0609
13187SOL    HW140342   4.100   5.671   2.366 -0.6855  0.6144  0.5672
13187SOL    HW240343   4.099   5.688   2.216  0.5481 -0.2820  0.4357
13188SOL     OW40344   5.448   0.370   6.923 -0.0408 -0.0253 -0.6683
13188SOL    HW140345   5.466   0.319   6.844 -0.0745 -0.2532 -0.5270
13188SOL    HW240346   5.380   0.432   6.895  0.3621  0.2915 -0.9762
13189SOL     OW40347   7.884   6.016   3.929  0.2377  0.0809  0.2426
13189SOL    HW140348   7.816   6.080   3.907  1.2851  0.9564 -0.5042
13189SOL    HW240349   7.966   6.058   3.904  1.0188 -1.2125  0.5556
13190SOL     OW40350   1.595   0.115   7.660 -0.3613 -0.4014  0.3470
13190SOL    HW140351   1.508   0.130   7.696 -0.6257 -1.5227  0.2164
13190SOL    HW240352   1.639   0.061   7.726  0.1368 -0.0830  0.2812
13191SOL     OW40353   5.165   2.736   4.146  1.0281  0.3088  0.3906
13191SOL    HW140354   5.261   2.738   4.141  1.2164 -1.5135  2.0728
13191SOL    HW240355   5.141   2.654   4.102  0.0693  1.3937 -1.2331
13192SOL     OW40356   7.559   6.984   4.662 -0.1990  0.0306  0.2025
13192SOL    HW140357   7.655   6.988   4.665  0.0126 -2.3675 -0.8393
13192SOL    HW240358   7.531   7.067   4.698  2.3115  1.5553 -1.0478
13193SOL     OW40359   7.138   4.422   5.508  0.1175  0.6571  0.2791
13193SOL    HW140360   7.107   4.349   5.454 -0.2189 -0.4759  1.9390
13193SOL    HW240361   7.202   4.383   5.567  0.1172  1.7461  1.0336
13194SOL     OW40362   3.062   3.175   0.074 -0.1386 -0.4866 -0.3234
13194SOL    HW140363   3.040   3.267   0.089  0.7305 -0.3543  0.2616
13194SOL    HW240364   3.156   3.176   0.053  0.2820 -1.3813  1.3379
13195SOL     OW40365   6.445   0.591   2.366  0.4980  0.6048  0.7278
13195SOL    HW140366   6.410   0.595   2.277  0.9479 -0.5535  0.4934
13195SOL    HW240367   6.410   0.510   2.402  0.0078  1.2460  1.7616
13196SOL     OW40368   3.285   1.625   1.253 -0.2265 -0.0475 -0.5056
13196SOL    HW140369   3.229   1.552   1.278  1.6120 -2.1018 -1.9386
13196SOL    HW240370   3.369   1.584   1.233  1.6135  2.7830  0.8686
13197SOL     OW40371   2.925   3.591   1.909 -0.1936  0.8145  0.8146
13197SOL    HW140372   2.960   3.641   1.983  0.8691  1.2049  0.0681
13197SOL    HW240373   3.001   3.571   1.855 -1.0338  1.0625 -0.5071
13198SOL     OW40374   1.619   4.266   6.049 -0.0731 -0.0856 -0.3183
13198SOL    HW140375   1.547   4.302   6.102  0.4444  0.6078 -0.0601
13198SOL    HW240376   1.652   4.193   6.100 -1.7679 -1.6198 -1.2974
13199SOL     OW40377   6.309   7.715   0.732  0.3872  0.2039 -0.8608
13199SOL    HW140378   6.381   7.689   0.675  0.6161  2.0561 -1.4834
13199SOL    HW240379   6.343   7.707   0.821  0.7709 -0.5662 -1.0711
13200SOL     OW40380   5.418   4.502   6.365 -0.0307 -0.0364  0.2917
13200SOL    HW140381   5.354   4.497   6.437  1.0517  2.3858  1.5564
13200SOL    HW240382   5.369   4.540   6.292 -0.2001  1.4920  1.1458
13201SOL     OW40383   1.739   6.561   0.277  0.2766  0.0945 -0.0940
13201SOL    HW140384   1.659   6.613   0.287 -0.1778 -0.4567 -0.6936
13201SOL    HW240385   1.726   6.515   0.193  0.8128 -0.6999  0.2488
13202SOL     OW40386   0.512   3.570   4.185 -0.1257 -0.1867 -0.4917
13202SOL    HW140387   0.479   3.659   4.197  0.6644  0.0434  0.0506
13202SOL    HW240388   0.435   3.515   4.197 -1.0836  0.4792 -2.8246
13203SOL     OW40389   5.581   1.013   7.024 -0.2780 -0.3012 -0.1134
13203SOL    HW140390   5.628   0.941   7.066 -0.3770 -0.1387  0.2793
13203SOL    HW240391   5.522   0.971   6.962 -2.0440 -0.7254  1.7564
13204SOL     OW40392   2.904   3.741   1.318  0.2450 -0.2861 -0.1837
13204SOL    HW140393   2.919   3.805   1.248 -1.2378  1.2501  0.8381
13204SOL    HW240394   2.818   3.703   1.297 -0.1766  0.1362  0.7457
13205SOL     OW40395   6.226   5.923   6.332  0.1378  0.2472 -0.1577
13205SOL    HW140396   6.245   5.969   6.250 -1.4146 -0.5906 -1.0272
13205SOL    HW240397   6.312   5.891   6.362  0.8703  1.4290 -0.8924
13206SOL     OW40398   3.293   7.507   2.826  0.0524  0.3026 -0.0840
13206SOL    HW140399   3.354   7.581   2.820  0.2539  0.4002  2.1194
13206SOL    HW240400   3.243   7.524   2.906 -0.8878 -1.2270 -0.3077
13207SOL     OW40401   6.317   6.837   7.646 -0.0738  0.4161  0.2806
13207SOL    HW140402   6.320   6.742   7.639  1.6766  0.4628 -0.0534
13207SOL    HW240403   6.286   6.854   7.735  0.9296 -0.4987  0.8285
13208SOL     OW40404   0.230   5.126   6.859  0.0510 -0.4467  0.1163
13208SOL    HW140405   0.258   5.217   6.860  1.7034 -0.9106 -0.2482
13208SOL    HW240406   0.162   5.122   6.792 -0.7000  0.6760  0.7902
13209SOL     OW40407   4.267   5.817   0.325 -0.1783  0.5645  0.0055
13209SOL    HW140408   4.338   5.800   0.388 -0.8069  0.7239  0.7762
13209SOL    HW240409   4.297   5.777   0.244  2.2742  3.2801 -0.6395
13210SOL     OW40410   6.633   2.120   4.333 -0.0571 -0.4359  0.0884
13210SOL    HW140411   6.545   2.103   4.366 -1.9281  1.3764 -3.4425
13210SOL    HW240412   6.665   2.193   4.386 -2.3046  1.3861 -0.9104
13211SOL     OW40413   2.761   0.310   2.622 -0.4981  0.4423 -0.3024
13211SOL    HW140414   2.673   0.301   2.585  0.2558  0.1725 -2.1450
13211SOL    HW240415   2.818   0.262   2.561  0.9662  0.8372  0.6970
13212SOL     OW40416   7.952   8.251   1.755 -0.5452  0.6090 -0.2213
13212SOL    HW140417   7.914   8.236   1.842 -1.0886  1.2522 -0.3388
13212SOL    HW240418   8.033   8.199   1.755 -0.8833  0.0637  0.4201
13213SOL     OW40419   7.366   2.994   1.992  0.4008 -0.1756 -0.4837
13213SOL    HW140420   7.320   2.936   2.052 -1.2719 -0.9879 -2.4452
13213SOL    HW240421   7.305   3.066   1.976  1.4535  0.8619 -0.0457
13214SOL     OW40422   4.391   3.311   3.554 -0.0384 -0.4628  0.2359
13214SOL    HW140423   4.303   3.290   3.523  0.0369 -0.2126 -0.1715
13214SOL    HW240424   4.391   3.407   3.563  0.6173 -0.3022 -1.1723
13215SOL     OW40425   2.583   4.143   6.724  0.1225 -0.4997  0.0208
13215SOL    HW140426   2.550   4.169   6.638 -0.2778  1.8285  0.7940
13215SOL    HW240427   2.516   4.174   6.785 -0.1291 -3.0425  1.1729
13216SOL     OW40428   7.952   2.198   4.971  0.5766  0.0541 -0.3227
13216SOL    HW140429   8.007   2.266   4.932 -0.9020  0.4704 -1.7578
13216SOL    HW240430   8.015   2.135   5.007  2.0265  0.2912 -2.2778
13217SOL     OW40431   3.474   7.603   5.289 -0.1815  0.4475 -0.0784
13217SOL    HW140432   3.445   7.575   5.202 -1.1541  0.7032  0.1608
13217SOL    HW240433   3.564   7.633   5.275 -0.6554  1.4515 -1.2053
13218SOL     OW40434   2.211   3.530   7.512 -0.0935 -0.1696 -0.5093
13218SOL    HW140435   2.125   3.490   7.498  0.1610 -1.5151  1.4108
13218SOL    HW240436   2.193   3.609   7.563 -0.2011 -0.5872  0.1169
13219SOL     OW40437   0.453   2.422   0.540  0.4791  0.5580  0.5922
13219SOL    HW140438   0.546   2.404   0.525 -0.0186 -2.5201  0.6169
13219SOL    HW240439   0.440   2.406   0.633  0.0480  1.7583  0.7511
13220SOL     OW40440   1.586   7.975   1.447 -0.3127  0.0813  0.1696
13220SOL    HW140441   1.583   8.043   1.379 -3.3253 -0.3401 -0.2580
13220SOL    HW240442   1.554   7.896   1.403  1.1567 -1.1400  1.1969
13221SOL     OW40443   6.421   4.298   1.149  0.6442 -0.5427  0.2379
13221SOL    HW140444   6.382   4.339   1.226  0.7810  0.3517 -0.1534
13221SOL    HW240445   6.346   4.273   1.095  0.5102 -1.9729  1.0320
13222SOL     OW40446   6.796   2.166   4.935 -0.0127 -0.0548  0.7284
13222SOL    HW140447   6.759   2.101   4.994 -1.3335  0.4379  0.4679
13222SOL    HW240448   6.728   2.233   4.926  0.1097 -0.1409 -1.3734
13223SOL     OW40449   7.855   3.516   0.550  0.0950 -0.3071 -0.0231
13223SOL    HW140450   7.822   3.499   0.638 -0.1709 -0.4836 -0.1549
13223SOL    HW240451   7.790   3.475   0.492  0.5641 -0.6886 -0.2835
13224SOL     OW40452   6.194   6.672   0.221  0.2128 -0.8162 -0.5579
13224SOL    HW140453   6.217   6.598   0.165 -1.0690 -0.6337 -1.3562
13224SOL    HW240454   6.176   6.744   0.161 -1.4888 -0.7027  0.0423
13225SOL     OW40455   5.190   1.234   2.227 -0.0865 -0.6785  0.2599
13225SOL    HW140456   5.200   1.230   2.132 -1.7824 -0.0621  0.0086
13225SOL    HW240457   5.132   1.310   2.242  1.1136 -0.0196  1.8815
13226SOL     OW40458   6.987   7.195   4.092  0.0808 -0.0040  0.2825
13226SOL    HW140459   6.923   7.152   4.148  1.0907 -1.3985  0.4135
13226SOL    HW240460   6.989   7.286   4.122 -1.0243 -0.2017  0.9888
13227SOL     OW40461   4.109   4.352   0.942 -0.4730  0.6610  0.4115
13227SOL    HW140462   4.163   4.292   0.994 -2.8000  1.4161  4.0396
13227SOL    HW240463   4.162   4.432   0.935 -0.7368  1.2453  3.5477
13228SOL     OW40464   4.935   5.465   7.213  0.2566 -0.0117 -0.0294
13228SOL    HW140465   4.850   5.437   7.179  1.1217  1.0010 -3.3585
13228SOL    HW240466   4.997   5.401   7.178  1.1733  0.8685 -0.0572
13229SOL     OW40467   7.208   7.152   6.170 -0.1727 -0.2227  0.3452
13229SOL    HW140468   7.174   7.071   6.208 -0.1600 -0.4179 -0.0529
13229SOL    HW240469   7.290   7.168   6.217 -0.6964  0.1397  1.1663
13230SOL     OW40470   3.723   1.451   3.892 -0.2137 -0.5283 -0.3341
13230SOL    HW140471   3.816   1.461   3.908  0.0158 -1.9032 -0.6452
13230SOL    HW240472   3.710   1.481   3.802  0.3584 -2.4202 -1.0866
13231SOL     OW40473   8.196   6.586   6.696 -0.3579 -0.6500  0.9138
13231SOL    HW140474   8.290   6.599   6.701 -0.1671 -0.8252 -1.0747
13231SOL    HW240475   8.186   6.495   6.666 -1.0090  0.0149 -1.0984
13232SOL     OW40476   1.451   1.785   6.180  0.0430  0.5955 -0.6315
13232SOL    HW140477   1.414   1.869   6.206  0.8399  0.9869 -0.7259
13232SOL    HW240478   1.539   1.806   6.148  0.2324 -0.2638 -0.7110
13233SOL     OW40479   4.049   0.424   5.431  0.2325 -0.0045  0.5530
13233SOL    HW140480   4.029   0.335   5.462 -0.8642  0.1850  0.4299
13233SOL    HW240481   3.970   0.475   5.451  1.7032  1.5636  2.7910
13234SOL     OW40482   2.521   6.333   2.391  0.0387 -0.2930  0.0078
13234SOL    HW140483   2.449   6.284   2.431 -0.6337 -0.0756 -0.8912
13234SOL    HW240484   2.479   6.386   2.323  0.6065  2.2284  1.5024
13235SOL     OW40485   5.613   1.305   3.911 -0.6640  0.0526 -0.3535
13235SOL    HW140486   5.596   1.290   4.004  0.3905 -0.0354 -0.1624
13235SOL    HW240487   5.534   1.274   3.867 -1.3442  0.4824  0.5353
13236SOL     OW40488   3.233   4.255   6.114 -0.9412 -0.3749  0.2008
13236SOL    HW140489   3.287   4.196   6.061 -2.5175 -0.8780 -0.9268
13236SOL    HW240490   3.187   4.197   6.174  0.2518  0.1212  1.6738
13237SOL     OW40491   1.029   5.566   3.120 -0.2205 -0.5831  0.0951
13237SOL    HW140492   0.975   5.504   3.071 -0.0391 -0.2668 -0.5270
13237SOL    HW240493   1.117   5.553   3.084  0.1415 -1.1548  1.1566
13238SOL     OW40494   3.069   1.924   3.472 -0.7069 -0.0934  0.0531
13238SOL    HW140495   2.993   1.981   3.468  0.9804  2.2413 -1.4512
13238SOL    HW240496   3.093   1.909   3.380 -0.0386 -1.7761  0.4586
13239SOL     OW40497   3.065   3.621   0.723  0.2998 -0.3288 -0.2716
13239SOL    HW140498   3.142   3.610   0.667  0.8300  1.8003 -0.0289
13239SOL    HW240499   3.079   3.558   0.795  2.2756  0.5887  0.2190
13240SOL     OW40500   3.218   0.463   4.764 -0.6014  0.0328  0.2030
13240SOL    HW140501   3.122   0.455   4.761 -0.5946  0.1739 -0.9368
13240SOL    HW240502   3.249   0.375   4.787 -1.0226  0.0869  0.9734
13241SOL     OW40503   7.183   2.732   0.655 -0.1736  0.2456  0.2061
13241SOL    HW140504   7.099   2.777   0.650  0.6404  1.8908  0.5285
13241SOL    HW240505   7.230   2.761   0.576 -0.0348 -0.9519 -0.1670
13242SOL     OW40506   7.169   6.269   5.381 -0.0170 -0.6427 -0.2616
13242SOL    HW140507   7.173   6.217   5.461 -0.3184  0.2531  0.3617
13242SOL    HW240508   7.090   6.323   5.391  0.2506 -0.1116 -0.8968
13243SOL     OW40509   6.807   2.581   2.929  0.0113  0.2049  0.3988
13243SOL    HW140510   6.841   2.507   2.980  0.9135 -0.2883 -0.8759
13243SOL    HW240511   6.778   2.543   2.847 -0.0196  1.1898 -0.0642
13244SOL     OW40512   4.187   0.645   5.309  0.4577  0.6841  0.2094
13244SOL    HW140513   4.149   0.566   5.346  1.5373  0.0477  0.0268
13244SOL    HW240514   4.215   0.696   5.385  1.3390  0.0611  0.3220
13245SOL     OW40515   4.325   7.304   5.374  0.1432 -0.8235 -0.0205
13245SOL    HW140516   4.399   7.328   5.430 -0.7930  1.1737  0.4419
13245SOL    HW240517   4.343   7.347   5.291 -0.9198  0.4645  0.3916
13246SOL     OW40518   0.882   3.296   5.754  0.4044  0.1073 -0.2260
13246SOL    HW140519   0.802   3.346   5.770  0.7285  0.9198 -1.0944
13246SOL    HW240520   0.868   3.252   5.671  0.2202 -1.0886  0.4120
13247SOL     OW40521   8.050   0.444   2.639 -0.1073 -0.2581 -0.1312
13247SOL    HW140522   8.077   0.458   2.548 -2.1862 -0.7382 -0.8752
13247SOL    HW240523   7.956   0.432   2.634 -0.3716  0.3984  2.1933
13248SOL     OW40524   6.995   7.317   7.280  0.0955 -0.4180  0.6060
13248SOL    HW140525   6.995   7.398   7.331 -0.8070  0.3424 -0.5396
13248SOL    HW240526   7.083   7.281   7.292  0.3322  0.4488  1.5776
13249SOL     OW40527   4.868   3.972   6.210  0.0190 -0.2248  0.4475
13249SOL    HW140528   4.947   3.996   6.258 -0.2092 -0.4948  0.9652
13249SOL    HW240529   4.822   4.054   6.197  1.1912  0.2056 -1.3590
13250SOL     OW40530   6.039   5.706   7.959  0.3547 -0.1664  0.2554
13250SOL    HW140531   6.046   5.676   8.050 -0.0563 -0.5191  0.1695
13250SOL    HW240532   6.114   5.665   7.915 -0.2738 -1.1870  0.1085
13251SOL     OW40533   1.221   6.828   2.224 -0.0031  0.1686  0.5090
13251SOL    HW140534   1.257   6.917   2.228 -1.5085  0.8102  0.1774
13251SOL    HW240535   1.220   6.807   2.130  0.4219 -0.2483  0.5903
13252SOL     OW40536   1.307   4.396   2.283  0.2960  0.2362 -0.6844
13252SOL    HW140537   1.399   4.423   2.290  0.4624 -0.2511 -0.9124
13252SOL    HW240538   1.307   4.304   2.311 -0.4093  0.7076  1.0003
13253SOL     OW40539   5.846   3.032   1.773 -0.5583  0.2010  0.2544
13253SOL    HW140540   5.767   3.025   1.720  0.0191 -2.7339 -0.3770
13253SOL    HW240541   5.914   2.990   1.721  0.0363 -2.8933  3.1968
13254SOL     OW40542   3.706   4.853   1.939  0.2067  0.2356  0.1014
13254SOL    HW140543   3.761   4.931   1.930  0.6571 -0.1981 -1.1222
13254SOL    HW240544   3.752   4.799   2.003 -0.6057  1.3522  1.7108
13255SOL     OW40545   4.492   0.098   1.641  0.5483 -0.5977 -0.0113
13255SOL    HW140546   4.485   0.188   1.609  0.9672  0.3168  2.3023
13255SOL    HW240547   4.406   0.061   1.627  0.9565 -0.6365 -3.0606
13256SOL     OW40548   1.355   4.988   3.693  0.0128 -0.5417 -0.1426
13256SOL    HW140549   1.394   4.943   3.617  0.8044 -0.0788 -0.0185
13256SOL    HW240550   1.395   4.946   3.769  0.9225  0.4944 -0.0285
13257SOL     OW40551   5.134   5.542   1.502  0.7721 -0.1114  0.2938
13257SOL    HW140552   5.142   5.550   1.597  0.5851 -1.5283  0.4611
13257SOL    HW240553   5.100   5.453   1.489 -0.5151  0.5380 -1.0297
13258SOL     OW40554   1.236   5.761   6.105 -0.5313  0.3382  0.0917
13258SOL    HW140555   1.147   5.791   6.124 -0.1173  1.1489  0.8129
13258SOL    HW240556   1.224   5.683   6.050 -1.6558  1.2798 -1.0672
13259SOL     OW40557   6.634   4.573   6.400 -0.2067 -0.4055 -0.1792
13259SOL    HW140558   6.659   4.620   6.480 -1.6201  1.5260 -0.8095
13259SOL    HW240559   6.542   4.548   6.415 -0.4715 -0.0539 -1.1840
13260SOL     OW40560   1.784   1.737   1.860 -0.2441  0.4288 -0.2898
13260SOL    HW140561   1.748   1.650   1.881 -0.3552  0.4861 -0.2451
13260SOL    HW240562   1.808   1.732   1.768 -0.4682  0.4276 -0.3475
13261SOL     OW40563   4.724   1.689   7.270  0.1343 -0.1531 -0.3441
13261SOL    HW140564   4.685   1.616   7.318  0.4455  0.3469  0.6782
13261SOL    HW240565   4.661   1.760   7.281 -0.0679 -0.1876 -1.1687
13262SOL     OW40566   0.687   5.869   7.301  0.2550  0.5480 -0.1413
13262SOL    HW140567   0.632   5.791   7.300  0.9225  0.0756 -0.3648
13262SOL    HW240568   0.627   5.941   7.281 -0.9716  0.5164  2.8555
13263SOL     OW40569   6.241   4.488   0.643  0.1512 -0.3814  0.4107
13263SOL    HW140570   6.300   4.562   0.625 -1.1353  0.1355 -2.1784
13263SOL    HW240571   6.153   4.525   0.639 -0.5376 -2.0078 -1.0578
13264SOL     OW40572   5.327   3.850   2.970  0.2004  0.8650  0.2984
13264SOL    HW140573   5.316   3.796   3.048 -2.3741 -0.0361 -0.5697
13264SOL    HW240574   5.267   3.924   2.985  0.2436  1.0606 -0.4937
13265SOL     OW40575   1.831   3.191   6.565 -0.2365  0.1189  0.0926
13265SOL    HW140576   1.789   3.204   6.651 -0.1383  1.5034 -0.0501
13265SOL    HW240577   1.914   3.238   6.572  0.5831 -1.2354 -0.1909
13266SOL     OW40578   1.808   1.688   5.291 -0.1372 -0.5827 -0.1262
13266SOL    HW140579   1.894   1.694   5.249 -0.2081  1.9427 -0.0335
13266SOL    HW240580   1.783   1.779   5.307 -0.8174 -1.3260  4.0121
13267SOL     OW40581   0.303   5.150   2.808  0.1722  0.1224  0.0712
13267SOL    HW140582   0.243   5.078   2.828  0.6193 -0.6723 -1.3226
13267SOL    HW240583   0.383   5.129   2.856 -0.0649  0.2734  0.5398
13268SOL     OW40584   1.755   4.623   2.535  0.1173  0.2002  0.1241
13268SOL    HW140585   1.780   4.594   2.623  0.1429  1.5043  0.5621
13268SOL    HW240586   1.684   4.686   2.550  1.2933  1.7657 -0.6493
13269SOL     OW40587   0.537   3.391   0.852 -0.2395  0.1789  0.0610
13269SOL    HW140588   0.449   3.398   0.889 -0.5496  2.0838 -0.8987
13269SOL    HW240589   0.594   3.389   0.929 -1.1091 -3.4709  0.7964
13270SOL     OW40590   7.960   4.182   4.012 -0.0334  0.6708  0.0242
13270SOL    HW140591   8.033   4.234   4.045 -0.5060  3.3523 -2.6542
13270SOL    HW240592   7.884   4.238   4.021 -0.9599 -0.3146 -1.1732
13271SOL     OW40593   2.270   7.853   6.335 -0.0961  0.2818 -0.3067
13271SOL    HW140594   2.362   7.878   6.324  0.5346 -2.6967 -3.3216
13271SOL    HW240595   2.221   7.924   6.294  1.0016  0.7778 -0.8097
13272SOL     OW40596   5.898   0.562   6.186 -0.3009 -0.4910  1.2145
13272SOL    HW140597   5.840   0.626   6.146 -0.7129 -1.3301  0.4315
13272SOL    HW240598   5.983   0.606   6.191 -0.4945 -0.0081  0.3618
13273SOL     OW40599   4.795   5.799   6.815 -0.2157  0.1489 -0.1811
13273SOL    HW140600   4.707   5.781   6.781  0.3921 -1.0178 -1.1973
13273SOL    HW240601   4.832   5.713   6.834  0.5945  0.6433  0.5625
13274SOL     OW40602   0.506   6.575   2.137 -0.5853 -0.0798 -0.6911
13274SOL    HW140603   0.450   6.636   2.185 -1.0123  0.0810 -1.3850
13274SOL    HW240604   0.446   6.520   2.088 -0.1818 -0.7770 -0.4211
13275SOL     OW40605   1.459   0.089   2.428 -0.1350 -0.1795 -0.1003
13275SOL    HW140606   1.436   0.125   2.343  1.3631  2.5827  0.5450
13275SOL    HW240607   1.534   0.142   2.457  0.1622 -1.8215  2.3995
13276SOL     OW40608   5.857   3.087   3.015 -0.0223 -0.3096 -0.2465
13276SOL    HW140609   5.800   3.038   2.956  0.0794 -0.9509  0.1749
13276SOL    HW240610   5.901   3.019   3.067  0.1243  0.2311  0.3411
13277SOL     OW40611   2.243   4.682   1.253 -0.1738 -0.5840 -0.3007
13277SOL    HW140612   2.275   4.703   1.341  0.2592 -2.0985 -0.0696
13277SOL    HW240613   2.321   4.659   1.203 -0.2056  1.8535 -1.6176
13278SOL     OW40614   1.224   6.135   5.794  0.2680  0.3632  0.1118
13278SOL    HW140615   1.288   6.085   5.845  1.1507  0.3059 -1.0160
13278SOL    HW240616   1.141   6.123   5.841  0.2528 -2.8835 -0.5581
13279SOL     OW40617   2.943   6.977   8.094  0.1486  0.0079 -0.2260
13279SOL    HW140618   3.003   6.947   8.163  0.0153 -1.6205 -0.7779
13279SOL    HW240619   2.878   6.908   8.088 -0.8430  0.9699 -0.8052
13280SOL     OW40620   2.866   0.894   3.711 -0.0761  0.3604  0.0612
13280SOL    HW140621   2.952   0.923   3.742 -0.6536 -0.9377  3.3420
13280SOL    HW240622   2.884   0.825   3.648  1.3357 -0.5927  1.4533
13281SOL     OW40623   3.324   3.677   8.005 -0.2404 -0.1050 -0.0967
13281SOL    HW140624   3.268   3.604   7.977 -2.0221  1.4365 -0.7428
13281SOL    HW240625   3.323   3.738   7.931  1.6398  0.3821  0.2200
13282SOL     OW40626   2.087   6.420   2.162  0.0312  0.1836  0.4195
13282SOL    HW140627   2.013   6.479   2.146 -0.6483 -0.5307  0.8354
13282SOL    HW240628   2.161   6.462   2.119 -0.0256  2.2061  2.1550
13283SOL     OW40629   2.785   0.986   6.034  0.0243  0.5573 -0.2213
13283SOL    HW140630   2.827   0.952   5.954 -0.5037  0.3717 -0.4269
13283SOL    HW240631   2.794   0.915   6.097  0.5045  0.7307 -0.0897
13284SOL     OW40632   5.339   3.871   5.565  0.5782  0.2828 -0.8916
13284SOL    HW140633   5.419   3.923   5.554  0.0748  1.1266 -0.6878
13284SOL    HW240634   5.288   3.920   5.630  0.3344 -0.7752 -0.2640
13285SOL     OW40635   1.052   1.854   4.902 -0.0935  0.1138 -0.0670
13285SOL    HW140636   1.079   1.763   4.914 -0.4918 -0.1750 -1.2204
13285SOL    HW240637   1.027   1.883   4.989  3.0035  0.1259  0.9484
13286SOL     OW40638   2.608   3.767   6.190 -0.3765 -0.3081  0.3303
13286SOL    HW140639   2.651   3.770   6.276  0.0709  2.2191  0.1056
13286SOL    HW240640   2.515   3.756   6.210 -0.1041 -1.5768  1.0175
13287SOL     OW40641   2.210   7.798   6.054 -0.1927 -0.5057 -0.4077
13287SOL    HW140642   2.261   7.774   6.131  1.8732  0.1424 -1.5052
13287SOL    HW240643   2.192   7.716   6.010  0.6800 -0.6793 -0.4575
13288SOL     OW40644   0.421   7.725   4.599 -0.6989 -1.1983  0.8857
13288SOL    HW140645   0.455   7.685   4.678 -1.2530 -0.9908  1.2353
13288SOL    HW240646   0.326   7.725   4.611 -0.7240  0.2507  0.9230
13289SOL     OW40647   4.621   0.775   7.304  0.4142 -0.1780  0.0589
13289SOL    HW140648   4.561   0.732   7.366 -0.7982  0.2649 -0.7637
13289SOL    HW240649   4.567   0.793   7.227  1.6557  0.1267 -0.7739
13290SOL     OW40650   3.450   5.255   6.711 -0.0340  0.7588  0.0167
13290SOL    HW140651   3.394   5.331   6.697 -0.8825  0.5785  2.1250
13290SOL    HW240652   3.470   5.256   6.804  1.7089 -0.4289 -0.2880
13291SOL     OW40653   4.680   3.022   5.786  0.0931 -0.0984 -1.2467
13291SOL    HW140654   4.725   2.964   5.847 -0.5074 -2.7561 -3.1683
13291SOL    HW240655   4.588   3.017   5.812  0.3730  3.3380  1.0815
13292SOL     OW40656   2.235   0.328   7.173 -0.1187 -0.1831 -0.2542
13292SOL    HW140657   2.227   0.261   7.105  1.8248  0.4298 -1.1724
13292SOL    HW240658   2.183   0.402   7.142  0.1001 -0.2063 -0.6785
13293SOL     OW40659   1.402   7.541   7.360  0.0256 -0.2525 -0.6318
13293SOL    HW140660   1.391   7.629   7.395  0.4197 -1.2986  2.4263
13293SOL    HW240661   1.321   7.523   7.313 -0.5044  1.3353 -0.3665
13294SOL     OW40662   2.671   3.708   4.246 -0.0753  0.0025  0.0283
13294SOL    HW140663   2.689   3.740   4.334 -0.4636  1.8082 -0.5072
13294SOL    HW240664   2.577   3.723   4.234  0.3278  1.6127 -1.3792
13295SOL     OW40665   5.565   8.188   5.770  0.6623  0.2509 -0.5837
13295SOL    HW140666   5.606   8.113   5.814  0.1085 -0.0864 -0.6349
13295SOL    HW240667   5.496   8.150   5.716  0.8112  0.7388 -1.1306
13296SOL     OW40668   4.047   8.237   2.034 -0.0916  0.7552  0.0735
13296SOL    HW140669   3.986   8.192   1.975  1.9024 -1.1306 -0.6506
13296SOL    HW240670   4.025   8.203   2.121  0.4127 -0.5588 -0.2853
13297SOL     OW40671   7.182   5.677   4.148  0.2445 -0.8821  0.9442
13297SOL    HW140672   7.251   5.729   4.108 -0.3792 -1.1435 -0.5575
13297SOL    HW240673   7.120   5.742   4.183  0.1069 -0.6095  0.2188
13298SOL     OW40674   4.462   7.422   4.451  0.1419 -0.4289 -0.4373
13298SOL    HW140675   4.439   7.470   4.531  0.2323 -0.1749 -0.5627
13298SOL    HW240676   4.413   7.340   4.457  0.2102 -0.4457 -0.0827
13299SOL     OW40677   2.348   4.986   5.446 -0.2720  0.3741 -0.2902
13299SOL    HW140678   2.340   5.063   5.389 -0.5256 -1.5270 -2.9687
13299SOL    HW240679   2.418   4.934   5.408  0.3925 -0.4443  1.8974
13300SOL     OW40680   5.917   2.369   3.533 -0.8489  0.0629  0.3404
13300SOL    HW140681   5.945   2.458   3.511 -0.1007 -0.1556  0.3935
13300SOL    HW240682   5.838   2.355   3.481 -1.5808  1.1417  1.1186
13301SOL     OW40683   5.325   1.159   5.561 -0.5867  0.0712 -0.0465
13301SOL    HW140684   5.411   1.141   5.597 -0.9404  1.4834  1.6524
13301SOL    HW240685   5.340   1.227   5.495 -0.0753 -1.7938 -1.9769
13302SOL     OW40686   4.967   3.825   0.101  0.2474 -0.0343  0.0830
13302SOL    HW140687   4.881   3.783   0.097 -0.0541  0.0514  3.1728
13302SOL    HW240688   4.971   3.863   0.189  2.9639  1.0839 -0.4168
13303SOL     OW40689   6.672   4.680   5.831  0.0025  0.2576  0.2038
13303SOL    HW140690   6.706   4.596   5.800  0.4914 -0.2585  2.0188
13303SOL    HW240691   6.582   4.682   5.799  0.1686 -0.6912 -0.3749
13304SOL     OW40692   5.130   5.950   7.152  0.5161  0.1954  0.2467
13304SOL    HW140693   5.044   5.918   7.180  0.4790  0.9881  1.0720
13304SOL    HW240694   5.122   5.961   7.057 -0.7175  1.5223  0.4757
13305SOL     OW40695   4.577   5.233   0.218 -0.1956 -0.1426  0.2599
13305SOL    HW140696   4.485   5.242   0.241  0.3391 -0.5206  2.8945
13305SOL    HW240697   4.612   5.322   0.225 -0.0718 -0.2303  0.8933
13306SOL     OW40698   1.374   3.966   6.001  0.0304  0.1062 -0.0467
13306SOL    HW140699   1.309   4.022   5.959  0.9494 -0.2145 -1.9831
13306SOL    HW240700   1.380   3.999   6.091 -3.2877 -0.2927  0.4394
13307SOL     OW40701   1.167   7.433   5.935 -0.1290  0.2505  0.0140
13307SOL    HW140702   1.206   7.367   5.878 -1.0350  0.5909 -1.0307
13307SOL    HW240703   1.113   7.382   5.996 -0.6550 -0.0078 -0.6505
13308SOL     OW40704   3.667   6.169   7.957  0.6831  0.5814  0.2455
13308SOL    HW140705   3.659   6.077   7.933 -0.6833  0.3093  1.6119
13308SOL    HW240706   3.578   6.196   7.981  0.9830  2.3638 -0.4282
13309SOL     OW40707   0.814   3.199   6.562 -0.0967 -0.3903  0.0058
13309SOL    HW140708   0.870   3.127   6.533  0.2119 -0.2855  0.3202
13309SOL    HW240709   0.830   3.205   6.656 -0.7498 -0.4453  0.1219
13310SOL     OW40710   2.473   2.911   5.747 -0.3224 -0.0164 -0.2300
13310SOL    HW140711   2.448   2.860   5.670 -1.1129  0.0710 -0.0423
13310SOL    HW240712   2.427   2.994   5.736 -1.8305 -0.6275  1.1766
13311SOL     OW40713   0.450   2.456   6.721 -0.3163  0.0515 -0.5402
13311SOL    HW140714   0.440   2.516   6.795 -0.7881 -0.9163  0.1996
13311SOL    HW240715   0.430   2.370   6.756 -1.0151 -0.3793 -1.8990
13312SOL     OW40716   3.441   2.290   2.601 -0.5751  0.5653  0.5386
13312SOL    HW140717   3.436   2.195   2.607 -0.7494  0.6301  1.4833
13312SOL    HW240718   3.457   2.307   2.508 -0.8907 -0.3688  0.3026
13313SOL     OW40719   6.985   5.183   4.635 -0.2997  0.9145  0.0019
13313SOL    HW140720   7.027   5.220   4.713 -0.4985  1.6329 -0.2284
13313SOL    HW240721   6.980   5.089   4.653 -1.9421  1.2428  1.6551
13314SOL     OW40722   4.883   4.932   5.142  0.0485 -0.7274  0.2255
13314SOL    HW140723   4.886   4.838   5.156  0.1486 -0.4101  2.7082
13314SOL    HW240724   4.968   4.964   5.172 -0.6797  0.3418  1.2490
13315SOL     OW40725   0.742   7.754   1.487 -0.2164 -0.7191 -0.2351
13315SOL    HW140726   0.676   7.809   1.444  0.7956  1.7284  1.1269
13315SOL    HW240727   0.717   7.755   1.580  0.2321 -2.0414 -0.0781
13316SOL     OW40728   0.559   5.530   0.944  0.9153 -0.2119  0.8087
13316SOL    HW140729   0.583   5.621   0.932 -1.3071  0.4183  0.6768
13316SOL    HW240730   0.633   5.480   0.909  1.5726  1.5260 -0.3929
13317SOL     OW40731   4.985   3.729   5.090 -0.3006  0.3737 -0.0500
13317SOL    HW140732   4.894   3.757   5.079 -0.1474  0.3278 -1.6371
13317SOL    HW240733   4.996   3.656   5.030  0.1766 -1.1582  1.8036
13318SOL     OW40734   2.242   2.842   5.035  0.1294 -0.4668 -0.2746
13318SOL    HW140735   2.195   2.759   5.026 -1.5860  0.2359  1.3649
13318SOL    HW240736   2.255   2.851   5.130  0.8065  0.8587 -0.4748
13319SOL     OW40737   5.966   3.953   3.939  0.1292  0.5743  0.2163
13319SOL    HW140738   5.897   3.913   3.993  0.6410  0.7688  1.0328
13319SOL    HW240739   5.926   4.034   3.907 -0.2106  0.4206  0.2412
13320SOL     OW40740   1.708   5.690   7.970  0.2072 -0.1923 -0.0960
13320SOL    HW140741   1.706   5.595   7.980 -1.0605 -0.4273 -2.0205
13320SOL    HW240742   1.620   5.718   7.992  0.3755  0.4567 -0.2318
13321SOL     OW40743   7.821   7.270   3.667 -0.2547  0.1665 -0.0285
13321SOL    HW140744   7.838   7.349   3.719 -1.0218 -0.2342  0.8473
13321SOL    HW240745   7.758   7.220   3.719  0.5168 -1.2196 -0.3815
13322SOL     OW40746   1.134   1.839   5.380 -0.4056  0.7898  0.2765
13322SOL    HW140747   1.153   1.881   5.296 -0.5301  1.9777  0.8238
13322SOL    HW240748   1.040   1.850   5.392 -0.6123 -0.5213 -0.0178
13323SOL     OW40749   6.890   2.687   3.846 -0.1145  0.1453 -0.4353
13323SOL    HW140750   6.923   2.624   3.910 -0.3044  1.8021  1.3652
13323SOL    HW240751   6.882   2.769   3.894 -1.6233  1.1346 -2.2294
13324SOL     OW40752   3.582   3.737   0.884 -0.4975 -0.3080 -0.4745
13324SOL    HW140753   3.541   3.724   0.799  1.4321 -0.7184 -1.3866
13324SOL    HW240754   3.649   3.804   0.869 -1.2095  0.8217  1.1086
13325SOL     OW40755   7.651   3.001   1.106 -0.0766 -0.1612  0.1903
13325SOL    HW140756   7.700   2.933   1.152 -1.1459  0.1554  1.8873
13325SOL    HW240757   7.607   2.955   1.034  1.0685 -0.8064 -0.1114
13326SOL     OW40758   3.845   0.745   5.913 -0.5624 -0.3408  0.2836
13326SOL    HW140759   3.764   0.790   5.889 -0.5040 -0.1757  0.3921
13326SOL    HW240760   3.885   0.802   5.979 -0.6815 -0.7492  0.7134
13327SOL     OW40761   0.349   6.057   6.610 -0.5088 -0.2462  0.2723
13327SOL    HW140762   0.381   6.022   6.693 -0.9279  0.3541  0.6953
13327SOL    HW240763   0.423   6.106   6.575 -0.3320 -0.4966  0.2950
13328SOL     OW40764   6.630   7.186   7.387 -0.0489  0.0876  0.5385
13328SOL    HW140765   6.556   7.130   7.366  0.1750 -0.0433  0.0852
13328SOL    HW240766   6.694   7.168   7.318  0.3372  0.3207  0.8319
13329SOL     OW40767   0.050   1.603   7.049 -0.0769 -0.0108  0.2263
13329SOL    HW140768   0.131   1.652   7.037  1.0125 -1.1066  2.4140
13329SOL    HW240769   0.023   1.579   6.961  1.4529  1.2107 -0.6231
13330SOL     OW40770   1.692   1.330   3.709  0.0213 -0.0930 -0.5887
13330SOL    HW140771   1.713   1.237   3.721  0.3927  0.1126  0.4241
13330SOL    HW240772   1.771   1.376   3.738 -0.3587  0.5583 -0.5780
13331SOL     OW40773   7.384   1.400   1.718 -0.1714 -0.2991  0.6429
13331SOL    HW140774   7.462   1.391   1.662 -1.0594 -0.6432 -0.5893
13331SOL    HW240775   7.388   1.325   1.777  0.6421 -0.0945  0.8571
13332SOL     OW40776   5.462   7.743   6.111 -0.1370 -0.2025  0.3340
13332SOL    HW140777   5.425   7.815   6.162  2.2494  1.1863  0.2319
13332SOL    HW240778   5.450   7.768   6.020  0.7931  0.1514  0.2986
13333SOL     OW40779   6.496   0.644   7.475 -0.2226  0.2618  0.4506
13333SOL    HW140780   6.448   0.573   7.517  0.6504 -0.9104 -0.4653
13333SOL    HW240781   6.538   0.691   7.548 -0.9745 -0.0269  1.0793
13334SOL     OW40782   4.768   4.196   5.651  0.0401  0.2705  0.3133
13334SOL    HW140783   4.770   4.250   5.572  2.8707 -1.4844 -0.9873
13334SOL    HW240784   4.682   4.152   5.648 -0.5903  1.5199 -0.8362
13335SOL     OW40785   0.577   4.033   7.303  0.5385 -0.9867 -0.1606
13335SOL    HW140786   0.505   4.087   7.336  0.6752 -1.7792  1.5217
13335SOL    HW240787   0.655   4.084   7.324  0.5212  0.1214 -2.4529
13336SOL     OW40788   2.471   3.629   0.309  0.2746  0.7731 -0.3570
13336SOL    HW140789   2.461   3.607   0.217  1.0185 -0.8914 -0.0745
13336SOL    HW240790   2.508   3.550   0.349  1.2661  1.9209  1.1081
13337SOL     OW40791   6.913   8.192   6.708 -0.4277 -0.4981  0.0736
13337SOL    HW140792   6.944   8.279   6.732 -1.8530 -0.3543  1.5829
13337SOL    HW240793   6.882   8.201   6.618 -0.4134  0.5111  0.1591
13338SOL     OW40794   6.926   2.943   3.046 -0.5446  0.0578 -0.1734
13338SOL    HW140795   6.950   2.856   3.079 -1.8400 -0.4994 -0.6316
13338SOL    HW240796   6.935   3.000   3.122 -0.8565 -0.7132  0.4608
13339SOL     OW40797   1.311   7.947   1.510  0.3288 -0.1707  0.0897
13339SOL    HW140798   1.381   7.996   1.554 -0.2866  2.7138 -1.8156
13339SOL    HW240799   1.356   7.872   1.470  1.8618  0.2301  0.9721
13340SOL     OW40800   5.865   5.032   4.274  0.0427 -0.0313 -0.1333
13340SOL    HW140801   5.882   4.944   4.241  0.5661  0.2384 -0.5959
13340SOL    HW240802   5.819   5.076   4.202 -1.9778 -0.4888  0.7816
13341SOL     OW40803   2.267   1.148   0.101 -0.1462 -0.4807  0.2226
13341SOL    HW140804   2.361   1.161   0.094 -0.2480  0.0480 -0.3850
13341SOL    HW240805   2.256   1.059   0.133  0.5639 -0.4434  0.5737
13342SOL     OW40806   5.605   4.196   6.739 -0.3267 -0.4254  0.1663
13342SOL    HW140807   5.698   4.207   6.759  0.4649 -4.8365 -0.2256
13342SOL    HW240808   5.561   4.259   6.797  2.7751  0.4263  1.8211
13343SOL     OW40809   6.928   2.921   2.518 -0.7233  0.1445 -0.1896
13343SOL    HW140810   6.892   2.924   2.607 -2.2753  1.0369 -0.8176
13343SOL    HW240811   6.861   2.877   2.466  0.6286 -1.3743 -0.7654
13344SOL     OW40812   0.011   6.272   6.123  0.0205  0.0456  0.3756
13344SOL    HW140813   0.081   6.327   6.156  1.8909 -1.9490 -0.0024
13344SOL    HW240814   0.002   6.203   6.189 -2.4792  0.8539  1.0103
13345SOL     OW40815   2.888   7.979   5.179  0.0002  0.3636  0.9511
13345SOL    HW140816   2.964   7.922   5.176 -2.1720 -2.7593  0.3673
13345SOL    HW240817   2.839   7.950   5.256 -1.0890  1.6029  0.7639
13346SOL     OW40818   0.862   7.381   2.213 -0.3828 -0.2601 -0.6124
13346SOL    HW140819   0.835   7.384   2.305 -0.0252  1.3620 -0.5330
13346SOL    HW240820   0.803   7.316   2.173  0.0681 -1.6779  0.9228
13347SOL     OW40821   7.691   1.633   6.288 -0.0402  0.1674 -0.0936
13347SOL    HW140822   7.735   1.714   6.314  1.6660 -0.8087  0.2522
13347SOL    HW240823   7.734   1.607   6.206 -1.4394  0.2421 -0.8852
13348SOL     OW40824   4.958   3.848   2.249  0.4693 -0.0591  0.5063
13348SOL    HW140825   4.871   3.809   2.253  0.0571  0.8412  0.6990
13348SOL    HW240826   4.952   3.911   2.177  1.8765 -2.0829 -1.4875
13349SOL     OW40827   6.669   2.787   0.364 -0.0598  0.5501 -0.6032
13349SOL    HW140828   6.632   2.873   0.348  2.4279  1.4325 -2.1417
13349SOL    HW240829   6.757   2.791   0.326  0.1318 -2.6867 -0.7745
13350SOL     OW40830   4.446   0.693   3.379  1.0084  0.2002  0.4704
13350SOL    HW140831   4.506   0.663   3.310  1.1665 -0.8099  1.0234
13350SOL    HW240832   4.362   0.654   3.355  0.4929  1.8016 -0.4268
13351SOL     OW40833   6.311   0.947   1.966  0.2530 -0.0622 -0.1571
13351SOL    HW140834   6.363   0.962   1.887  0.6271  0.5760  0.2050
13351SOL    HW240835   6.264   0.865   1.948 -1.7293  1.3946 -2.1147
13352SOL     OW40836   1.276   5.600   4.664  0.3918 -0.0822  0.9098
13352SOL    HW140837   1.346   5.536   4.674 -0.6877 -1.6651 -0.8549
13352SOL    HW240838   1.303   5.654   4.590 -0.7453 -1.5516 -0.6668
13353SOL     OW40839   5.233   0.034   1.516  0.0948 -0.1028 -0.2939
13353SOL    HW140840   5.167   0.054   1.450 -0.4719 -0.1117  0.2663
13353SOL    HW240841   5.250  -0.059   1.505 -0.8656 -0.3607  0.3535
13354SOL     OW40842   3.010   5.131   6.589  0.4926  0.2426 -0.0691
13354SOL    HW140843   3.092   5.117   6.635 -0.7261 -3.0883  1.4000
13354SOL    HW240844   2.997   5.052   6.537 -1.2456  1.2064 -1.2402
13355SOL     OW40845   7.919   2.830   4.329 -0.0869  0.5294  0.1990
13355SOL    HW140846   7.894   2.870   4.245  1.6391  1.2534 -0.0079
13355SOL    HW240847   8.000   2.783   4.309  0.1012  0.3373  1.3804
13356SOL     OW40848   6.485   2.004   3.322 -0.9392 -0.4412 -0.2367
13356SOL    HW140849   6.395   2.029   3.306 -0.6663  0.2365 -0.7567
13356SOL    HW240850   6.534   2.038   3.247 -0.1780 -0.3374  0.2893
13357SOL     OW40851   1.571   6.038   3.439  0.2263 -0.0568  0.5988
13357SOL    HW140852   1.658   6.029   3.401  0.3138  0.2613  0.7171
13357SOL    HW240853   1.518   5.970   3.397  0.7350 -0.7904  1.1167
13358SOL     OW40854   2.841   6.750   2.504 -0.2026  0.1063  0.6563
13358SOL    HW140855   2.752   6.771   2.476 -0.2423 -0.2305  0.5279
13358SOL    HW240856   2.866   6.823   2.562 -0.5710  0.1826  0.7211
13359SOL     OW40857   5.100   6.121   4.084 -0.2941  0.4522 -0.1688
13359SOL    HW140858   5.028   6.060   4.103  1.3635 -2.0748 -1.5211
13359SOL    HW240859   5.175   6.083   4.130  0.6028  2.0061 -0.3166
13360SOL     OW40860   6.795   0.268   6.470  0.8476  0.1286 -0.6184
13360SOL    HW140861   6.778   0.193   6.413  1.0467  0.0027 -0.5147
13360SOL    HW240862   6.718   0.273   6.527  1.1853 -0.4944 -0.0899
13361SOL     OW40863   5.691   2.041   0.961  0.2566  0.6563 -0.5069
13361SOL    HW140864   5.726   2.070   0.877  0.8735  1.4568  0.0109
13361SOL    HW240865   5.633   2.112   0.988 -0.3997  0.1371 -0.5201
13362SOL     OW40866   6.377   5.026   7.339  0.2396  0.5013  0.3081
13362SOL    HW140867   6.441   5.095   7.357  0.2756  0.3827  0.6379
13362SOL    HW240868   6.297   5.074   7.316 -0.0106  0.6686  1.4964
13363SOL     OW40869   0.446   3.786   5.273 -0.4904  0.4946 -0.8360
13363SOL    HW140870   0.451   3.695   5.245 -2.6210  0.7308 -2.2227
13363SOL    HW240871   0.478   3.836   5.198  0.0864  0.9301 -0.3123
13364SOL     OW40872   3.891   0.997   2.225  0.0538  0.3949  0.6568
13364SOL    HW140873   3.839   0.917   2.212  1.9244 -0.7035 -0.5128
13364SOL    HW240874   3.829   1.068   2.210 -1.3967 -0.8294  0.5376
13365SOL     OW40875   3.039   6.375   7.185  0.0576  0.1122  0.1164
13365SOL    HW140876   2.989   6.315   7.130 -0.0331 -0.2986  0.6440
13365SOL    HW240877   2.974   6.421   7.237 -0.0439  2.0018 -1.5413
13366SOL     OW40878   2.013   4.680   7.232 -0.0335  0.3067 -0.2891
13366SOL    HW140879   1.971   4.614   7.177  0.7110 -0.8331  0.4823
13366SOL    HW240880   2.082   4.633   7.278 -0.9346  1.1055  2.0014
13367SOL     OW40881   7.037   1.419   1.016  0.7523 -0.4328 -0.0833
13367SOL    HW140882   6.950   1.386   1.040  1.1860 -1.8605 -0.3912
13367SOL    HW240883   7.045   1.398   0.923  0.5803  1.6625 -0.6211
13368SOL     OW40884   0.863   7.628   5.931  0.3644  0.1062  0.1021
13368SOL    HW140885   0.938   7.658   5.878  1.4062 -0.2287  1.3237
13368SOL    HW240886   0.822   7.560   5.878  0.8854  0.3479 -0.6328
13369SOL     OW40887   3.818   7.026   4.129 -0.1053 -0.0303 -0.1536
13369SOL    HW140888   3.900   7.072   4.147 -1.6465  2.1527  2.0872
13369SOL    HW240889   3.829   6.990   4.041  3.3311 -0.1401  0.1997
13370SOL     OW40890   8.164   4.030   7.653  0.1427 -0.0465 -0.4457
13370SOL    HW140891   8.118   3.951   7.680 -0.3742  0.1281 -0.8031
13370SOL    HW240892   8.124   4.100   7.704  1.7532 -0.2078  1.1657
13371SOL     OW40893   3.985   1.264   5.534  0.5922  0.1107 -0.0005
13371SOL    HW140894   3.950   1.313   5.609  1.4008  0.0136  0.4483
13371SOL    HW240895   3.990   1.174   5.564 -0.2004 -0.1382 -0.5840
13372SOL     OW40896   2.208   1.508   3.016 -0.3915 -0.0710  0.2213
13372SOL    HW140897   2.138   1.463   2.969 -0.0168  0.6206 -1.0455
13372SOL    HW240898   2.258   1.553   2.948  1.5009 -0.8051  1.0438
13373SOL     OW40899   7.126   1.558   5.104  0.3500  0.0803  0.0318
13373SOL    HW140900   7.176   1.638   5.122 -0.2451  0.4603  0.0155
13373SOL    HW240901   7.037   1.579   5.132  0.2270 -0.6402  0.1938
13374SOL     OW40902   5.977   4.492   7.058  0.7689  0.0970 -0.1089
13374SOL    HW140903   6.024   4.564   7.101 -0.5493  0.7815  0.2135
13374SOL    HW240904   5.953   4.526   6.972  2.0470 -0.7432 -0.8338
13375SOL     OW40905   2.710   4.083   5.783  0.3670 -0.1386 -0.2926
13375SOL    HW140906   2.663   4.000   5.786  0.4601 -0.2264 -1.1922
13375SOL    HW240907   2.740   4.091   5.693  1.5615  0.2054  0.1145
13376SOL     OW40908   4.691   5.355   8.282  0.0462  0.1419  0.5916
13376SOL    HW140909   4.615   5.405   8.253 -0.7191 -1.5103 -0.4066
13376SOL    HW240910   4.668   5.322   8.368  0.8514  2.0456  1.5834
13377SOL     OW40911   2.553   0.012   5.905  0.3339  0.1730 -0.1974
13377SOL    HW140912   2.595   0.061   5.976 -0.3329  0.2440  0.1570
13377SOL    HW240913   2.487   0.072   5.870  0.4712  0.0391 -0.7022
13378SOL     OW40914   6.776   7.743   4.024  0.3785 -0.0485 -0.0205
13378SOL    HW140915   6.831   7.683   3.974 -1.5729 -1.8603 -0.1305
13378SOL    HW240916   6.686   7.714   4.006 -0.5971  2.1420  0.9386
13379SOL     OW40917   7.204   1.615   2.211  0.4155  0.2467 -0.0988
13379SOL    HW140918   7.151   1.668   2.152  1.0673  1.8250  0.6743
13379SOL    HW240919   7.283   1.668   2.227  1.3669 -1.2069  0.2632
13380SOL     OW40920   4.804   1.521   2.885  0.1717 -0.7983 -0.1612
13380SOL    HW140921   4.748   1.581   2.836  0.0030  0.3120  1.3375
13380SOL    HW240922   4.886   1.568   2.897  0.4942 -1.3789 -0.0373
13381SOL     OW40923   0.142   5.153   6.581  0.6892 -0.1498  0.0806
13381SOL    HW140924   0.104   5.067   6.563  0.8654 -0.0671 -0.7065
13381SOL    HW240925   0.203   5.168   6.509 -0.8982  1.5789 -0.9952
13382SOL     OW40926   3.538   4.830   8.079 -0.3281 -0.3054 -0.0564
13382SOL    HW140927   3.490   4.844   7.997 -0.7472 -0.5082  0.1533
13382SOL    HW240928   3.604   4.764   8.058  1.4788  1.6450 -0.9908
13383SOL     OW40929   4.247   4.031   8.103  0.8050 -0.3637 -0.1070
13383SOL    HW140930   4.324   3.980   8.077  0.3931 -0.6461 -0.8201
13383SOL    HW240931   4.193   4.034   8.024  0.7259  1.0151 -0.0291
13384SOL     OW40932   7.404   2.503   7.272  0.9225 -0.2028 -0.2621
13384SOL    HW140933   7.458   2.434   7.310 -1.2480 -2.5499 -1.1883
13384SOL    HW240934   7.368   2.465   7.192  0.4409  2.3989 -1.3853
13385SOL     OW40935   5.127   8.037   1.711  0.4609 -0.2271  0.9533
13385SOL    HW140936   5.041   8.075   1.730  0.9077  3.1870 -2.5174
13385SOL    HW240937   5.108   7.965   1.650 -0.0181  0.0333  0.7904
13386SOL     OW40938   0.302   0.248   3.504 -0.3054  0.2013 -0.2195
13386SOL    HW140939   0.237   0.258   3.434 -1.2962  0.1222  0.6592
13386SOL    HW240940   0.252   0.216   3.578  0.8085 -0.1298  0.4093
13387SOL     OW40941   6.239   3.342   7.536  0.2737  0.2473 -0.0502
13387SOL    HW140942   6.203   3.256   7.515 -0.5079  1.3990 -4.3153
13387SOL    HW240943   6.322   3.345   7.488  0.9159  1.4539  1.0719
13388SOL     OW40944   1.835   3.441   7.716  0.1348 -0.7385 -0.3544
13388SOL    HW140945   1.832   3.514   7.777  0.3269  1.3212 -2.6674
13388SOL    HW240946   1.777   3.375   7.755 -0.1906  0.6880  1.7314
13389SOL     OW40947   5.353   6.809   4.700  0.2466 -0.0388 -0.0664
13389SOL    HW140948   5.375   6.855   4.781 -1.4017  0.2536  0.2371
13389SOL    HW240949   5.380   6.869   4.631  3.1835 -0.9432  0.1335
13390SOL     OW40950   6.450   4.182   7.029 -0.0635  0.2237  0.6580
13390SOL    HW140951   6.524   4.228   7.067 -0.1456 -0.2510  1.4213
13390SOL    HW240952   6.437   4.106   7.086 -0.0319 -0.6578 -0.4708
13391SOL     OW40953   6.098   3.065   7.489  0.1795  0.4835  0.3328
13391SOL    HW140954   6.190   3.051   7.512 -0.4397 -1.6866  1.8372
13391SOL    HW240955   6.097   3.070   7.394  1.7518 -0.6743  0.2174
13392SOL     OW40956   0.774   0.672   7.513 -0.2751 -0.0801  0.0272
13392SOL    HW140957   0.841   0.732   7.480  0.3883  0.7712  2.6715
13392SOL    HW240958   0.823   0.603   7.557 -0.9735  1.2154  3.1226
13393SOL     OW40959   2.305   1.858   3.816  0.0368 -0.5510  0.3304
13393SOL    HW140960   2.359   1.831   3.742 -1.5264 -2.6932 -0.1080
13393SOL    HW240961   2.242   1.920   3.778 -0.1515 -0.8993  0.0760
13394SOL     OW40962   3.405   3.492   2.447 -0.5353  0.1213  0.1921
13394SOL    HW140963   3.417   3.587   2.436 -1.8974  0.2163 -0.7092
13394SOL    HW240964   3.492   3.459   2.468 -0.1763  1.6765  1.2983
13395SOL     OW40965   5.271   5.025   3.806  0.3870  0.1180 -0.1502
13395SOL    HW140966   5.261   5.111   3.847  0.5482  0.7783 -1.4664
13395SOL    HW240967   5.361   5.025   3.772  0.7000 -0.9303  0.6035
13396SOL     OW40968   7.321   0.903   4.849 -0.0433  0.0327  0.6597
13396SOL    HW140969   7.376   0.948   4.785 -0.8821  1.4504  0.8917
13396SOL    HW240970   7.289   0.972   4.907 -1.6990 -0.7930  0.8090
13397SOL     OW40971   0.310   6.696   4.211 -0.4093  0.0252 -0.4319
13397SOL    HW140972   0.316   6.791   4.203  1.5476 -0.1414 -1.5917
13397SOL    HW240973   0.393   6.664   4.176 -1.1051 -2.1285 -0.2406
13398SOL     OW40974   7.065   4.138   7.429  0.0647  0.4653 -0.4178
13398SOL    HW140975   7.143   4.115   7.378 -0.2476  0.0165 -0.7052
13398SOL    HW240976   7.091   4.214   7.480  1.3064 -0.8035  0.9524
13399SOL     OW40977   7.256   4.230   1.084  0.0691 -0.3439  0.1853
13399SOL    HW140978   7.341   4.196   1.113 -0.5004 -0.4692  1.8088
13399SOL    HW240979   7.278   4.302   1.024  1.3481  0.2312  1.2883
13400SOL     OW40980   4.324   3.146   2.065  0.0650 -0.6264 -0.0188
13400SOL    HW140981   4.399   3.205   2.059 -1.9733  2.0159 -2.6083
13400SOL    HW240982   4.287   3.145   1.977 -3.6512 -0.7066  1.3700
13401SOL     OW40983   6.363   7.398   0.337 -0.4479  0.1752  0.1289
13401SOL    HW140984   6.347   7.407   0.431  0.9699 -0.3115  0.4373
13401SOL    HW240985   6.455   7.373   0.330 -0.5623  0.0637 -1.3887
13402SOL     OW40986   4.370   7.083   4.201  0.5439  0.0282 -0.4747
13402SOL    HW140987   4.408   7.053   4.118  0.1387  0.2948 -0.7554
13402SOL    HW240988   4.377   7.178   4.199 -0.1337  0.0813 -0.5256
13403SOL     OW40989   3.034   0.149   3.959 -0.5050 -0.5620  0.1305
13403SOL    HW140990   3.016   0.141   4.053  1.3299  2.4749  0.9088
13403SOL    HW240991   2.956   0.190   3.922 -0.5648 -0.1031  0.7421
13404SOL     OW40992   4.776   0.735   2.254  0.1207  0.4345 -0.2428
13404SOL    HW140993   4.693   0.723   2.300 -0.3527  0.9862 -0.9283
13404SOL    HW240994   4.832   0.782   2.316 -0.2869  0.5880  0.0114
13405SOL     OW40995   7.636   5.435   0.527 -0.2786 -0.3264 -0.9224
13405SOL    HW140996   7.700   5.405   0.591  0.3667 -0.8169 -1.7807
13405SOL    HW240997   7.673   5.411   0.442 -0.9954  0.5400 -1.5045
13406SOL     OW40998   2.755   2.354   7.541  0.0147  0.2005  0.2539
13406SOL    HW140999   2.755   2.413   7.465 -1.1241  1.3475  1.1019
13406SOL    HW241000   2.843   2.361   7.577  1.4119 -2.1895 -2.2419
13407SOL     OW41001   1.417   4.589   7.502 -0.3790 -0.4170 -0.3153
13407SOL    HW141002   1.386   4.587   7.593  0.2711 -0.5254 -0.0919
13407SOL    HW241003   1.338   4.576   7.450 -0.8034 -0.0737  0.2254
13408SOL     OW41004   2.839   2.670   7.637 -0.2915 -0.3778  0.2658
13408SOL    HW141005   2.896   2.593   7.634  1.8786  1.1451 -0.0078
13408SOL    HW241006   2.851   2.712   7.552  0.1929  1.3410  1.1310
13409SOL     OW41007   4.725   8.286   0.982  0.1746  0.6325 -0.5594
13409SOL    HW141008   4.727   8.195   0.953 -0.3488  0.4200  0.0332
13409SOL    HW241009   4.632   8.310   0.980 -0.2480 -0.1014  2.9299
13410SOL     OW41010   3.502   1.096   5.487  0.6678 -0.1667  0.3547
13410SOL    HW141011   3.452   1.114   5.407 -0.9044 -1.2069  1.0493
13410SOL    HW241012   3.593   1.093   5.458  0.0593 -1.5881 -1.6045
13411SOL     OW41013   0.396   2.034   1.438 -0.4046  0.0694  0.1951
13411SOL    HW141014   0.315   2.084   1.434 -0.8397 -0.6020  0.5589
13411SOL    HW241015   0.384   1.961   1.378 -0.7282 -0.9626  1.4703
13412SOL     OW41016   6.308   4.308   6.675  0.6630  0.6773 -0.0775
13412SOL    HW141017   6.376   4.360   6.717 -0.7600  0.3693  2.7990
13412SOL    HW241018   6.323   4.321   6.581  3.4860  2.0978  0.4570
13413SOL     OW41019   3.096   6.749   2.367 -0.1114  0.0150  0.2336
13413SOL    HW141020   3.004   6.764   2.389 -0.3059 -1.8875  0.8440
13413SOL    HW241021   3.135   6.837   2.368 -2.3242  1.1614 -2.1432
13414SOL     OW41022   3.727   4.659   0.429  0.3204 -0.1347  0.1626
13414SOL    HW141023   3.718   4.691   0.518 -0.5358  1.1541 -0.3528
13414SOL    HW241024   3.802   4.705   0.393  0.9394 -0.9827  0.3356
13415SOL     OW41025   6.595   0.140   4.591  0.1642 -0.4486  0.1841
13415SOL    HW141026   6.533   0.080   4.633 -0.3318 -0.5943 -0.7180
13415SOL    HW241027   6.660   0.082   4.551  1.9328 -0.2626  2.5904
13416SOL     OW41028   2.248   5.857   3.709  0.0687  0.0527 -0.1660
13416SOL    HW141029   2.308   5.785   3.687  0.2200 -0.9582  2.9974
13416SOL    HW241030   2.161   5.825   3.683  0.4606 -0.0142 -1.4372
13417SOL     OW41031   3.172   4.906   0.317 -0.3693  0.0163 -0.3952
13417SOL    HW141032   3.243   4.928   0.257 -1.1691  0.3434 -1.2495
13417SOL    HW241033   3.190   4.958   0.396  0.2721  0.1772 -0.6399
13418SOL     OW41034   0.280   3.790   2.266 -0.0010 -0.3552  0.3292
13418SOL    HW141035   0.264   3.884   2.275 -1.7614 -0.7741  2.4395
13418SOL    HW241036   0.286   3.758   2.356  2.0467 -2.0859 -0.3284
13419SOL     OW41037   3.414   3.964   3.842  0.1224 -0.6492 -0.4651
13419SOL    HW141038   3.333   4.006   3.871  0.3731  0.2855 -1.0534
13419SOL    HW241039   3.386   3.879   3.807 -0.4736 -0.7442  0.2353
13420SOL     OW41040   2.577   4.324   8.053 -0.3033 -0.4499 -0.2603
13420SOL    HW141041   2.578   4.318   7.958 -1.8147 -2.7827 -0.2099
13420SOL    HW241042   2.527   4.403   8.073 -0.6514 -0.3716 -1.4031
13421SOL     OW41043   1.140   6.368   6.052  0.0212  0.1623 -0.9917
13421SOL    HW141044   1.112   6.454   6.084 -4.8407 -1.9143  1.4507
13421SOL    HW241045   1.189   6.330   6.125 -0.4237 -0.1546 -0.8509
13422SOL     OW41046   0.198   0.862   4.961 -0.2241  0.3030  0.3715
13422SOL    HW141047   0.283   0.887   4.925 -0.6997  1.3822 -0.0355
13422SOL    HW241048   0.217   0.829   5.049  0.7617 -0.7703 -0.2173
13423SOL     OW41049   3.206   1.490   2.901  0.2816  0.1539 -0.6354
13423SOL    HW141050   3.111   1.488   2.910  0.3712 -0.6273  0.2727
13423SOL    HW241051   3.239   1.454   2.984  1.3123 -2.5203 -2.0742
13424SOL     OW41052   7.152   4.205   6.225 -0.2386 -0.0136 -0.0738
13424SOL    HW141053   7.139   4.220   6.131 -2.7681 -1.6460 -0.0825
13424SOL    HW241054   7.069   4.232   6.264 -0.0402 -1.4364  1.4099
13425SOL     OW41055   7.051   0.968   2.488  0.0140 -0.0002  0.0811
13425SOL    HW141056   7.092   0.901   2.542 -1.1790 -1.6607 -0.9957
13425SOL    HW241057   6.959   0.943   2.483 -0.4597  1.6717 -0.4548
13426SOL     OW41058   1.185   5.182   3.461  0.4483 -0.0034 -0.5699
13426SOL    HW141059   1.214   5.152   3.374  0.5249 -1.2655 -0.1192
13426SOL    HW241060   1.096   5.150   3.469  0.0824  0.9820 -0.5718
13427SOL     OW41061   2.558   6.804   2.472 -0.1553  0.0420 -0.0603
13427SOL    HW141062   2.538   6.892   2.505 -0.5753  0.0034 -0.2040
13427SOL    HW241063   2.532   6.807   2.380 -1.3904 -0.6092  0.2420
13428SOL     OW41064   0.903   5.395   5.758 -0.0120 -0.4466 -0.4556
13428SOL    HW141065   0.990   5.416   5.724 -0.6097  0.4420 -1.5302
13428SOL    HW241066   0.889   5.304   5.733 -0.1057 -0.0537 -1.9563
13429SOL     OW41067   1.941   7.845   5.640  0.9734 -0.1303 -0.1318
13429SOL    HW141068   2.012   7.782   5.653  0.3110 -0.7533  0.5823
13429SOL    HW241069   1.869   7.793   5.604  0.3020  0.1326  0.7966
13430SOL     OW41070   6.771   3.910   5.285  0.5425  0.2861  0.2620
13430SOL    HW141071   6.734   3.921   5.198  0.6655  0.7021  0.2593
13430SOL    HW241072   6.695   3.893   5.341  0.2674  1.6162  0.3384
13431SOL     OW41073   7.480   5.064   4.007  0.2221 -0.6829 -0.1368
13431SOL    HW141074   7.519   5.064   3.919 -1.9065 -0.8434 -1.1587
13431SOL    HW241075   7.507   5.147   4.045  0.6382 -0.3114 -1.2012
13432SOL     OW41076   6.384   7.850   6.632 -0.2630 -0.3880 -0.1653
13432SOL    HW141077   6.413   7.785   6.695 -2.4097 -0.0169  1.2868
13432SOL    HW241078   6.437   7.928   6.651  0.2286 -0.7770  0.0759
13433SOL     OW41079   7.102   6.395   3.455 -0.1938 -0.7229  0.1040
13433SOL    HW141080   7.105   6.329   3.524  0.6581 -0.9384 -0.1291
13433SOL    HW241081   7.063   6.349   3.380  0.2898 -0.9284 -0.0222
13434SOL     OW41082   3.822   0.557   5.495  0.0016 -0.0105 -0.4673
13434SOL    HW141083   3.732   0.589   5.500  0.5229  1.3491  1.2974
13434SOL    HW241084   3.836   0.510   5.577  1.2526  0.9139 -0.1051
13435SOL     OW41085   7.842   2.255   4.324  0.2251 -0.1241  0.0922
13435SOL    HW141086   7.783   2.195   4.279  1.3372 -0.5756 -0.8124
13435SOL    HW241087   7.854   2.327   4.261 -2.8265  2.2628  1.9738
13436SOL     OW41088   5.668   2.259   5.377  0.6099 -0.2868 -0.0824
13436SOL    HW141089   5.664   2.216   5.462  2.9346 -0.2121  0.1365
13436SOL    HW241090   5.704   2.192   5.318  0.0373 -0.0024 -0.7704
13437SOL     OW41091   2.783   5.630   0.323 -0.0151 -0.8320  0.3593
13437SOL    HW141092   2.742   5.712   0.349  2.1530  0.1508  0.8911
13437SOL    HW241093   2.722   5.592   0.259 -0.7154  1.5948 -0.5381
13438SOL     OW41094   1.502   4.833   7.138 -0.3386 -0.2880 -0.2568
13438SOL    HW141095   1.542   4.815   7.223 -2.2085  0.2202  0.8080
13438SOL    HW241096   1.421   4.879   7.160 -0.1466  1.2292 -2.3994
13439SOL     OW41097   7.798   0.267   5.169  0.4912 -0.1184 -0.0263
13439SOL    HW141098   7.872   0.274   5.230  0.5601  1.0165 -0.2093
13439SOL    HW241099   7.760   0.355   5.168  1.4092  0.3426 -2.7653
13440SOL     OW41100   3.683   4.348   5.487 -0.4266  0.7369 -0.2782
13440SOL    HW141101   3.774   4.327   5.468 -0.5124  0.4113 -0.3264
13440SOL    HW241102   3.688   4.419   5.551 -0.1386  1.0922 -0.6880
13441SOL     OW41103   0.711   2.053   1.033  0.2854  0.3137 -0.4263
13441SOL    HW141104   0.634   1.997   1.018  1.3999 -1.2495 -0.6333
13441SOL    HW241105   0.678   2.129   1.080 -1.6034  0.3220 -1.6849
13442SOL     OW41106   7.847   4.946   2.894  0.1761  0.1666  0.3839
13442SOL    HW141107   7.771   4.996   2.926  0.6908  0.4303  1.2444
13442SOL    HW241108   7.851   4.965   2.801 -2.1404 -1.6109 -0.1930
13443SOL     OW41109   6.399   5.486   5.547  0.0214  0.0343  0.4292
13443SOL    HW141110   6.462   5.500   5.618 -0.0155  1.1145  0.2629
13443SOL    HW241111   6.362   5.399   5.564  0.4280  0.0468  1.4048
13444SOL     OW41112   3.454   2.135   6.558 -0.3429 -0.5344 -0.3905
13444SOL    HW141113   3.548   2.122   6.565 -0.5573 -1.8049  0.5242
13444SOL    HW241114   3.436   2.214   6.610  0.3432  0.4856 -1.6349
13445SOL     OW41115   7.468   0.505   1.021 -0.5504 -0.3654  0.3261
13445SOL    HW141116   7.510   0.422   1.044  1.7328  0.6251 -0.0384
13445SOL    HW241117   7.489   0.518   0.929 -0.4857  0.8345  0.5003
13446SOL     OW41118   1.796   1.406   0.446 -0.7084  0.2441 -0.3621
13446SOL    HW141119   1.879   1.359   0.434 -0.9939 -0.6025  0.7783
13446SOL    HW241120   1.738   1.368   0.380 -1.3387 -2.0862  1.3786
13447SOL     OW41121   2.070   7.569   3.834 -0.5553  0.7931  0.0476
13447SOL    HW141122   2.116   7.633   3.780  0.8126  1.2836  1.7073
13447SOL    HW241123   2.091   7.594   3.924 -2.2284 -0.3717  0.8148
13448SOL     OW41124   5.682   3.486   4.568  0.4283 -0.1745 -0.4879
13448SOL    HW141125   5.615   3.427   4.603  0.5197  0.0249  0.0253
13448SOL    HW241126   5.755   3.427   4.545 -0.4195 -0.5573 -2.3205
13449SOL     OW41127   4.958   0.490   3.174  0.0437 -0.4430 -0.0951
13449SOL    HW141128   4.906   0.481   3.254  2.1513  1.1218  1.5922
13449SOL    HW241129   4.916   0.432   3.111 -2.4723 -0.7903  1.7410
13450SOL     OW41130   0.599   3.541   2.762 -0.2871  0.8473  0.3032
13450SOL    HW141131   0.571   3.481   2.693 -0.3211  0.2753  0.8010
13450SOL    HW241132   0.690   3.516   2.778  0.4179  2.3988 -1.0002
13451SOL     OW41133   4.727   7.457   5.338 -0.2165  0.1615  0.4240
13451SOL    HW141134   4.724   7.522   5.268 -1.3838 -0.4205 -0.1016
13451SOL    HW241135   4.638   7.455   5.373 -0.6289 -2.2201 -0.5964
13452SOL     OW41136   7.203   6.805   1.264 -1.0134  0.6322  0.0101
13452SOL    HW141137   7.249   6.869   1.318 -1.9990 -0.4259  2.2197
13452SOL    HW241138   7.272   6.763   1.213 -0.0467  1.6956  0.3883
13453SOL     OW41139   7.254   5.392   7.582 -0.0827 -0.0285 -0.5504
13453SOL    HW141140   7.174   5.356   7.543  0.2996 -0.3830 -1.0278
13453SOL    HW241141   7.227   5.422   7.668 -0.1617 -2.7594  0.4941
13454SOL     OW41142   6.314   2.086   3.632  0.5305 -0.2484  0.1434
13454SOL    HW141143   6.251   2.017   3.609  1.0665 -0.8152  0.3561
13454SOL    HW241144   6.289   2.112   3.721  0.5785 -0.4519  0.2171
13455SOL     OW41145   5.512   5.734   4.656 -0.5953  0.4305  0.5407
13455SOL    HW141146   5.579   5.671   4.682  0.3301  1.6861  1.3613
13455SOL    HW241147   5.434   5.681   4.638  0.8750 -1.1680 -1.4611
13456SOL     OW41148   2.257   1.835   2.708  0.1255  0.0189 -0.5218
13456SOL    HW141149   2.297   1.883   2.780 -2.1268 -1.0206  1.5470
13456SOL    HW241150   2.165   1.828   2.732 -0.4991 -1.3744 -2.9883
13457SOL     OW41151   1.283   3.188   7.512  0.1875 -0.4725  0.0216
13457SOL    HW141152   1.286   3.098   7.545  0.6573 -0.8525 -1.0061
13457SOL    HW241153   1.374   3.218   7.519  0.1345 -0.2713 -0.1557
13458SOL     OW41154   3.804   3.700   1.106  0.6538 -0.1073 -0.3764
13458SOL    HW141155   3.709   3.709   1.117  0.5202 -0.1187 -1.4522
13458SOL    HW241156   3.829   3.771   1.048  0.7061 -2.1362 -3.0548
13459SOL     OW41157   6.202   2.527   4.650  0.4887  0.3394 -0.0594
13459SOL    HW141158   6.224   2.577   4.729 -1.9781  0.3901  0.6825
13459SOL    HW241159   6.106   2.526   4.649  0.4768 -1.0084 -2.2275
13460SOL     OW41160   3.549   3.055   1.309 -0.0191  0.1806 -0.3230
13460SOL    HW141161   3.627   3.001   1.315 -1.0775 -1.4777 -0.7564
13460SOL    HW241162   3.571   3.123   1.245  1.9184  1.3729  1.4958
13461SOL     OW41163   4.132   0.099   4.827  0.0576  0.3246  0.4920
13461SOL    HW141164   4.206   0.042   4.849 -0.6917  0.2261  3.1837
13461SOL    HW241165   4.172   0.175   4.785  1.2137 -1.4903 -1.9842
13462SOL     OW41166   3.855   4.667   7.570 -0.6621 -0.0542 -0.4775
13462SOL    HW141167   3.818   4.751   7.598 -0.8343  0.0014 -0.8630
13462SOL    HW241168   3.787   4.628   7.516 -0.9222 -0.8259  0.3763
13463SOL     OW41169   0.231   7.716   4.252 -0.0784 -0.1736  0.5615
13463SOL    HW141170   0.204   7.789   4.307 -0.2323 -0.0273  0.2921
13463SOL    HW241171   0.164   7.710   4.185  0.1743 -0.2707  0.3148
13464SOL     OW41172   4.840   8.135   8.125  0.0986  0.4989  0.1889
13464SOL    HW141173   4.858   8.078   8.051 -1.0608 -0.3967  0.5744
13464SOL    HW241174   4.745   8.133   8.134  0.2770 -0.3388  2.4065
13465SOL     OW41175   2.331   7.682   4.591  0.6371  0.2336 -0.8937
13465SOL    HW141176   2.396   7.681   4.661  1.5660  1.2003 -1.7011
13465SOL    HW241177   2.247   7.674   4.636  1.1477  1.7345  0.4202
13466SOL     OW41178   3.793   5.367   3.989  0.1022  0.0320 -0.4689
13466SOL    HW141179   3.879   5.401   4.012 -0.0709 -0.7213  1.5411
13466SOL    HW241180   3.732   5.431   4.028 -0.2084 -0.8321  0.5166
13467SOL     OW41181   5.713   6.362   5.281  0.2558 -0.1516 -0.3802
13467SOL    HW141182   5.790   6.352   5.336  0.6725 -1.6322 -1.1972
13467SOL    HW241183   5.723   6.296   5.213 -0.1298  1.7261 -2.3778
13468SOL     OW41184   4.026   0.934   0.784 -0.0255  0.5498  0.6574
13468SOL    HW141185   4.072   0.980   0.714  1.1215  1.3074  1.8725
13468SOL    HW241186   4.035   0.841   0.762 -1.2564  0.7986 -1.1378
13469SOL     OW41187   4.561   8.159   8.129 -0.0365 -0.5041  0.0311
13469SOL    HW141188   4.550   8.185   8.221 -0.0464 -0.0584 -0.0924
13469SOL    HW241189   4.493   8.094   8.114 -1.3553  0.8910 -0.2221
13470SOL     OW41190   5.856   2.629   0.094 -0.4234  0.5201  0.5173
13470SOL    HW141191   5.943   2.647   0.057 -0.7408  1.5068  0.2062
13470SOL    HW241192   5.874   2.575   0.171  0.1892 -2.3592 -1.4862
13471SOL     OW41193   7.136   3.956   5.131 -0.1175  0.1661  0.1309
13471SOL    HW141194   7.105   3.896   5.199 -0.0228  0.5520  0.5213
13471SOL    HW241195   7.229   3.937   5.123 -0.0131  0.4990  0.5090
13472SOL     OW41196   2.463   3.130   1.891  0.3579  0.0347  0.4454
13472SOL    HW141197   2.382   3.154   1.846 -0.2585 -0.6469  1.1470
13472SOL    HW241198   2.522   3.103   1.821  0.9253  3.0086 -0.3255
13473SOL     OW41199   3.058   1.611   0.070  0.1539  0.0829  0.0542
13473SOL    HW141200   2.971   1.631   0.107  0.3627  0.6945  0.2239
13473SOL    HW241201   3.064   1.515   0.073 -0.0599  0.0923  1.0957
13474SOL     OW41202   6.233   7.893   7.261 -0.1165  0.2393 -0.2861
13474SOL    HW141203   6.247   7.808   7.303 -1.5939  0.1860  0.1679
13474SOL    HW241204   6.258   7.880   7.170  0.8911 -0.3166  0.0594
13475SOL     OW41205   5.767   4.322   7.165  0.5058  0.6897  0.0854
13475SOL    HW141206   5.780   4.242   7.115 -2.6975 -0.3697  0.7338
13475SOL    HW241207   5.830   4.384   7.128  1.7619 -1.5440 -1.7320
13476SOL     OW41208   7.276   7.242   3.436 -0.2626  0.6681 -0.1881
13476SOL    HW141209   7.363   7.213   3.408 -0.0417 -1.8751  2.5829
13476SOL    HW241210   7.217   7.211   3.367  0.8000  0.4876 -1.0438
13477SOL     OW41211   0.522   5.457   0.623  0.5971  0.1453  0.2690
13477SOL    HW141212   0.569   5.527   0.669  0.2842 -1.1187  2.7012
13477SOL    HW241213   0.433   5.461   0.659 -0.3885  0.6075 -2.0780
13478SOL     OW41214   5.816   4.946   3.723  0.2497  0.1527  0.7026
13478SOL    HW141215   5.891   4.901   3.682  0.3378  0.0735  0.9503
13478SOL    HW241216   5.784   5.004   3.654  0.9735  0.7067  0.8172
13479SOL     OW41217   5.849   0.594   0.916 -0.4403  0.1395 -0.0434
13479SOL    HW141218   5.926   0.638   0.952  0.1325 -0.0541 -1.0078
13479SOL    HW241219   5.880   0.552   0.836 -1.6630  0.4744 -0.7184
13480SOL     OW41220   4.842   1.401   8.246 -0.0021 -0.0204 -0.0477
13480SOL    HW141221   4.817   1.489   8.216 -0.1315 -0.1591 -0.3531
13480SOL    HW241222   4.894   1.365   8.174 -2.2904 -1.2655 -1.1645
13481SOL     OW41223   2.839   3.447   6.734  0.0755  0.4300 -0.5419
13481SOL    HW141224   2.749   3.416   6.738 -0.1278  0.9098 -1.0478
13481SOL    HW241225   2.879   3.394   6.665  0.0386  0.5410 -0.6502
13482SOL     OW41226   2.349   7.288   7.397  0.2753  0.8312  0.1856
13482SOL    HW141227   2.409   7.306   7.324  0.8607 -0.0849  0.4311
13482SOL    HW241228   2.359   7.195   7.414  1.5453  1.3214  2.6196
13483SOL     OW41229   4.258   8.052   8.303  0.0511 -0.8736  0.3286
13483SOL    HW141230   4.319   7.995   8.350  1.9844 -0.3455 -1.3455
13483SOL    HW241231   4.197   8.083   8.369  3.2636  0.7787  2.8179
13484SOL     OW41232   0.054   2.506   7.369  0.3287  0.1181 -0.5887
13484SOL    HW141233   0.053   2.579   7.430 -1.5111 -0.8318  0.5993
13484SOL    HW241234  -0.036   2.475   7.367  1.1357 -2.4462 -0.6075
13485SOL     OW41235   5.512   5.454   6.074 -0.2475 -0.1943 -0.1518
13485SOL    HW141236   5.446   5.400   6.119  1.7601 -4.9040 -2.1905
13485SOL    HW241237   5.474   5.470   5.987  0.6632 -1.7645 -0.8689
13486SOL     OW41238   5.611   7.242   2.943 -0.8312  0.2414 -0.9155
13486SOL    HW141239   5.608   7.235   3.038 -0.3046 -0.7170 -0.9618
13486SOL    HW241240   5.655   7.325   2.926 -1.7604  0.8766 -0.3365
13487SOL     OW41241   3.837   2.120   4.522 -0.3555 -0.0364 -0.3533
13487SOL    HW141242   3.794   2.070   4.591  0.8946  1.5584  1.7250
13487SOL    HW241243   3.769   2.133   4.456 -2.1205 -0.2792  1.3233
13488SOL     OW41244   5.443   6.631   6.750 -0.1781 -0.0544  0.2371
13488SOL    HW141245   5.476   6.701   6.806 -2.2402  1.8627 -0.7671
13488SOL    HW241246   5.403   6.677   6.676 -1.1821 -2.3256 -0.7184
13489SOL     OW41247   5.850   7.881   7.669  0.5574 -0.3888  0.3980
13489SOL    HW141248   5.850   7.976   7.680 -0.6252 -0.4077  0.6531
13489SOL    HW241249   5.911   7.865   7.597  1.7896  0.4376  1.2023
13490SOL     OW41250   0.662   0.987   4.074 -0.2050  0.8726 -0.1133
13490SOL    HW141251   0.700   1.001   3.987  0.3343 -0.8342 -0.2051
13490SOL    HW241252   0.585   0.933   4.058 -0.2812  0.8127  0.4304
13491SOL     OW41253   3.837   2.102   0.914  0.0340 -0.8508 -0.9983
13491SOL    HW141254   3.818   2.101   0.820 -0.2826  0.6590 -0.9800
13491SOL    HW241255   3.834   2.195   0.938  0.5761 -1.1725  0.4151
13492SOL     OW41256   7.617   1.889   6.868  0.1046 -0.0708  0.4695
13492SOL    HW141257   7.707   1.895   6.900  0.3062 -1.7236  0.3115
13492SOL    HW241258   7.571   1.838   6.935 -0.7764  0.8804  0.6248
13493SOL     OW41259   5.055   0.836   2.349 -0.8947 -0.2787 -0.1589
13493SOL    HW141260   5.094   0.853   2.263 -1.2559 -0.7771 -0.4281
13493SOL    HW241261   5.073   0.915   2.400  2.2619 -1.1800  0.3990
13494SOL     OW41262   4.584   4.625   0.052 -0.1939 -0.2638  0.6545
13494SOL    HW141263   4.634   4.705   0.033 -2.2891  0.8475 -0.6238
13494SOL    HW241264   4.606   4.565  -0.019  0.0461 -0.1444  0.6269
13495SOL     OW41265   3.120   2.268   3.653  0.3907 -0.1402 -0.3449
13495SOL    HW141266   3.069   2.321   3.715 -0.8276 -1.3950 -0.2232
13495SOL    HW241267   3.064   2.260   3.576  0.8430 -0.6596 -0.6269
13496SOL     OW41268   5.057   6.486   5.733  0.0619 -0.2710 -0.1634
13496SOL    HW141269   5.052   6.513   5.825 -0.1516 -1.8549  0.3249
13496SOL    HW241270   4.971   6.447   5.715  1.2246 -3.2137  0.0947
13497SOL     OW41271   3.183   0.175   6.290 -0.2202  0.2277 -0.0730
13497SOL    HW141272   3.119   0.139   6.229  0.7219  0.2296 -1.0807
13497SOL    HW241273   3.195   0.266   6.262 -1.6336  1.0100  1.6682
13498SOL     OW41274   3.505   2.158   6.862  0.4641  0.4136 -0.6703
13498SOL    HW141275   3.473   2.236   6.817  0.2523  0.8018  0.1392
13498SOL    HW241276   3.438   2.137   6.926  1.8563  1.3405  1.1869
13499SOL     OW41277   8.131   1.458   6.115 -1.0022 -0.4221  0.1422
13499SOL    HW141278   8.220   1.426   6.131 -1.2213 -1.1982 -0.1470
13499SOL    HW241279   8.137   1.553   6.127  0.1689 -0.2876 -1.2780
13500SOL     OW41280   5.582   5.858   4.890  0.2315 -0.0150  0.0800
13500SOL    HW141281   5.585   5.949   4.919 -1.5650  0.1225 -0.0257
13500SOL    HW241282   5.543   5.862   4.803  0.5443 -0.8529 -0.1066
13501SOL     OW41283   6.089   6.729   2.536 -0.3485 -0.2626 -0.4110
13501SOL    HW141284   6.115   6.702   2.624 -2.0090 -0.7076 -0.0312
13501SOL    HW241285   6.068   6.647   2.491  1.3990 -0.1291 -1.5708
13502SOL     OW41286   4.873   6.768   3.536 -0.2999  0.2693  0.0840
13502SOL    HW141287   4.961   6.786   3.504  0.5750 -2.9215  0.3570
13502SOL    HW241288   4.834   6.712   3.468 -1.1351 -0.4763  1.1390
13503SOL     OW41289   0.335   8.099   4.179  0.3215  0.4189 -0.0151
13503SOL    HW141290   0.251   8.074   4.139  1.9148  1.3664 -4.4823
13503SOL    HW241291   0.316   8.180   4.226 -1.4469  0.0670 -0.0390
13504SOL     OW41292   5.250   3.002   4.020  0.2623 -0.2614 -0.2120
13504SOL    HW141293   5.168   2.964   3.988 -0.2990  0.3854  0.4456
13504SOL    HW241294   5.277   3.063   3.952 -0.1827  0.0654 -0.0916
13505SOL     OW41295   5.347   6.934   2.805 -0.0313  0.2476  0.4517
13505SOL    HW141296   5.361   6.923   2.899 -0.3261 -2.1875  0.2768
13505SOL    HW241297   5.310   7.022   2.796 -0.6884  0.2599  2.6794
13506SOL     OW41298   7.047   4.447   7.988  0.0227 -0.2373  0.2256
13506SOL    HW141299   7.083   4.503   8.057  0.2585 -0.4010  0.2389
13506SOL    HW241300   7.029   4.507   7.915  0.2753 -0.1418  0.2384
13507SOL     OW41301   2.615   2.935   7.475 -0.1892  0.3856  0.3069
13507SOL    HW141302   2.558   3.002   7.515 -0.6901 -0.0933  0.4084
13507SOL    HW241303   2.607   2.859   7.533  0.0708  0.1054 -0.0213
13508SOL     OW41304   0.034   4.125   3.785  0.1609 -0.3226 -0.5580
13508SOL    HW141305   0.064   4.156   3.870 -1.6889  0.1266 -0.0156
13508SOL    HW241306   0.108   4.140   3.726  0.8041  1.1701  0.5652
13509SOL     OW41307   5.941   6.929   3.588 -0.7638  0.0978  0.3012
13509SOL    HW141308   5.912   6.947   3.498  0.5625  0.9480  0.0239
13509SOL    HW241309   5.907   7.003   3.639 -1.4696 -0.3564  0.5032
13510SOL     OW41310   5.996   5.207   5.556  0.1022  0.4730 -0.0954
13510SOL    HW141311   6.035   5.206   5.468 -1.4705 -1.6415 -0.8500
13510SOL    HW241312   5.928   5.274   5.551  0.0063  0.3478 -0.4938
13511SOL     OW41313   1.688   5.911   8.224  0.3239  0.3735 -0.1083
13511SOL    HW141314   1.728   5.906   8.138  0.0632 -0.3144 -0.1995
13511SOL    HW241315   1.642   5.827   8.234 -1.4044  1.2536 -0.1789
13512SOL     OW41316   7.130   6.749   7.149 -0.2833 -0.5949 -0.7495
13512SOL    HW141317   7.092   6.770   7.064 -1.9190 -2.7460 -0.6556
13512SOL    HW241318   7.136   6.654   7.150  4.3143 -0.5244 -0.2698
13513SOL     OW41319   4.704   6.667   4.824 -0.2340  0.0529 -0.7722
13513SOL    HW141320   4.732   6.581   4.793 -0.7834 -0.0589 -0.9717
13513SOL    HW241321   4.615   6.677   4.790 -0.1594  0.7188 -0.7826
13514SOL     OW41322   5.476   4.598   7.899 -0.1986  0.7422 -0.3093
13514SOL    HW141323   5.535   4.523   7.891 -0.4049  0.4307  0.8394
13514SOL    HW241324   5.412   4.586   7.829  0.2184  0.2523 -0.6103
13515SOL     OW41325   1.419   1.234   1.322 -0.0803  0.6568 -0.1188
13515SOL    HW141326   1.511   1.214   1.340 -0.5849 -3.3996 -1.0356
13515SOL    HW241327   1.374   1.215   1.404 -0.2936  0.8311 -0.1957
13516SOL     OW41328   2.461   4.292   2.099  0.4579  0.9897 -0.4965
13516SOL    HW141329   2.384   4.268   2.047 -1.0534  0.9111  1.6201
13516SOL    HW241330   2.504   4.209   2.119 -0.5373  0.7295  0.6447
13517SOL     OW41331   2.782   2.053   5.397  0.2420 -0.7503  0.0623
13517SOL    HW141332   2.704   2.089   5.356  0.4381 -0.3384  0.0414
13517SOL    HW241333   2.749   1.994   5.465 -0.0923 -0.1662  0.4193
13518SOL     OW41334   6.773   8.100   6.911 -0.8693 -0.2465  0.2614
13518SOL    HW141335   6.807   8.020   6.951  2.1041  2.1203  3.0039
13518SOL    HW241336   6.821   8.107   6.828  1.8056  0.4011  1.7252
13519SOL     OW41337   7.412   1.084   2.487  0.0775  0.0681  0.2347
13519SOL    HW141338   7.385   1.051   2.401  1.7680  2.3140 -1.2651
13519SOL    HW241339   7.350   1.155   2.506 -1.3217 -1.4511  1.7573
13520SOL     OW41340   4.735   2.588   5.105  0.5967  0.0795  0.5354
13520SOL    HW141341   4.761   2.592   5.013 -1.2680  0.3451 -0.0239
13520SOL    HW241342   4.676   2.662   5.117  0.7282 -0.0062  1.9429
13521SOL     OW41343   5.050   2.734   1.090  0.3525  0.0769  0.4244
13521SOL    HW141344   5.027   2.827   1.078  0.5842 -0.1084 -1.6586
13521SOL    HW241345   5.142   2.728   1.065  0.3912 -0.6983  0.7284
13522SOL     OW41346   4.027   4.951   4.599  0.1538 -0.5288  0.7584
13522SOL    HW141347   4.066   4.997   4.673  0.5534 -1.5868  1.2366
13522SOL    HW241348   4.097   4.947   4.533  0.1289 -0.4773  0.7291
13523SOL     OW41349   3.287   8.092   1.009  0.4427  0.1022 -0.2132
13523SOL    HW141350   3.352   8.141   0.959  0.9799 -0.3845 -0.0047
13523SOL    HW241351   3.273   8.012   0.958  0.5357 -0.1138  0.0976
13524SOL     OW41352   1.912   3.449   8.055 -0.6834 -0.1084 -0.2927
13524SOL    HW141353   1.898   3.516   8.122 -0.5559 -0.3831  0.0133
13524SOL    HW241354   1.872   3.370   8.091 -2.5383  0.2464 -1.4703
13525SOL     OW41355   1.518   4.155   7.343  0.2729  0.5684 -0.1346
13525SOL    HW141356   1.570   4.074   7.337 -1.7076 -0.6933 -1.4587
13525SOL    HW241357   1.482   4.153   7.432  1.4101  0.7912  0.3503
13526SOL     OW41358   4.564   4.496   7.548 -0.2847 -0.7677  0.1226
13526SOL    HW141359   4.487   4.440   7.534 -0.8737 -0.3410  1.4797
13526SOL    HW241360   4.550   4.571   7.490 -0.8778 -0.7160  0.3275
13527SOL     OW41361   4.751   6.301   6.541 -0.7249  0.1694 -0.3001
13527SOL    HW141362   4.712   6.213   6.535 -0.2904 -0.0635  0.1752
13527SOL    HW241363   4.826   6.297   6.481  0.9090 -0.6852  1.6751
13528SOL     OW41364   4.686   0.956   6.286  0.3397 -0.2034 -0.1175
13528SOL    HW141365   4.721   0.961   6.197 -0.7223  0.9233 -0.5044
13528SOL    HW241366   4.612   0.895   6.280 -0.5601  0.8707 -0.3326
13529SOL     OW41367   4.181   4.841   1.623 -0.0859  0.0716  0.1059
13529SOL    HW141368   4.171   4.747   1.635  1.6795 -0.2158 -0.3836
13529SOL    HW241369   4.091   4.875   1.623 -0.7512 -1.5815  0.3548
13530SOL     OW41370   1.887   1.960   4.974  0.4454 -0.0758 -0.3692
13530SOL    HW141371   1.809   1.909   4.952 -1.2626  2.1022  0.2538
13530SOL    HW241372   1.873   1.989   5.064  1.9786  0.4039 -0.2496
13531SOL     OW41373   6.562   6.811   6.477 -0.1734 -0.1242  0.0380
13531SOL    HW141374   6.651   6.836   6.503  0.2456 -2.1344  0.6779
13531SOL    HW241375   6.557   6.718   6.496 -1.9211 -0.3801 -1.4614
13532SOL     OW41376   8.186   1.137   6.479  0.0300 -0.5263  0.2212
13532SOL    HW141377   8.107   1.170   6.521  1.3294  2.1828  0.7561
13532SOL    HW241378   8.257   1.189   6.516  1.9507 -2.0747 -1.0614
13533SOL     OW41379   4.165   5.158   1.698  0.5549  0.3882  0.2037
13533SOL    HW141380   4.099   5.227   1.711  0.4893  0.3002  0.3380
13533SOL    HW241381   4.159   5.137   1.605 -0.8386 -0.8571  0.5531
13534SOL     OW41382   8.255   5.290   7.622  0.2178  0.3620 -0.1441
13534SOL    HW141383   8.300   5.205   7.613  0.6132  0.4796  0.6142
13534SOL    HW241384   8.295   5.345   7.554  0.7276  0.2548  0.0636
13535SOL     OW41385   2.920   7.831   0.109 -0.0025  0.5926  0.0561
13535SOL    HW141386   2.970   7.751   0.124  0.9773  1.2308  0.2759
13535SOL    HW241387   2.915   7.873   0.195  0.3877  1.2772 -0.2492
13536SOL     OW41388   7.981   3.110   3.176 -0.1188 -0.9542 -0.2835
13536SOL    HW141389   7.889   3.100   3.152 -0.4776 -0.9414  1.0009
13536SOL    HW241390   8.029   3.095   3.095 -1.3093  0.4146 -1.2926
13537SOL     OW41391   6.148   2.149   4.786 -0.0081 -0.1097  0.3803
13537SOL    HW141392   6.220   2.204   4.756 -0.3431  0.7321  1.0933
13537SOL    HW241393   6.176   2.117   4.872  0.3961 -1.4736 -0.2266
13538SOL     OW41394   3.880   7.177   0.997  0.3709 -0.8145 -0.1454
13538SOL    HW141395   3.972   7.201   1.006  0.0718  0.0994  0.6721
13538SOL    HW241396   3.833   7.259   1.011 -0.6216 -1.5310  0.8509
13539SOL     OW41397   3.823   6.683   5.169  0.0074 -0.0151 -0.1804
13539SOL    HW141398   3.736   6.724   5.169 -0.1120 -0.2424 -0.9717
13539SOL    HW241399   3.875   6.740   5.112  0.7426  0.8310  1.2918
13540SOL     OW41400   7.714   5.950   3.588 -0.5026  0.1414 -0.4616
13540SOL    HW141401   7.657   6.027   3.585 -1.1289 -0.3238 -0.7438
13540SOL    HW241402   7.798   5.984   3.619 -1.5401  0.4831  2.2353
13541SOL     OW41403   6.704   4.172   3.814 -0.0518 -0.3212  0.5631
13541SOL    HW141404   6.664   4.253   3.784 -0.7603 -0.6917  0.5064
13541SOL    HW241405   6.785   4.165   3.764  1.1353  1.4697  2.1055
13542SOL     OW41406   6.922   0.018   1.294  0.1122 -0.0488 -0.4177
13542SOL    HW141407   6.987  -0.038   1.336 -0.6752 -0.7495 -0.1096
13542SOL    HW241408   6.952   0.026   1.203  1.9107  1.6083  0.2485
13543SOL     OW41409   2.918   1.316   2.906  0.0139 -0.4698  0.0502
13543SOL    HW141410   2.928   1.328   3.000  0.6565 -0.6045  0.0070
13543SOL    HW241411   2.830   1.349   2.886 -0.3780 -1.0308  0.7963
13544SOL     OW41412   1.132   0.868   7.665  0.3676  0.3516 -0.9573
13544SOL    HW141413   1.075   0.855   7.590 -1.2599  2.9690 -0.3024
13544SOL    HW241414   1.207   0.916   7.630  0.1992  0.4997 -1.1184
13545SOL     OW41415   5.045   5.689   1.294 -0.2379 -0.5384  0.2216
13545SOL    HW141416   5.041   5.780   1.322 -0.4609 -0.4285 -0.1623
13545SOL    HW241417   5.089   5.643   1.366 -0.2503 -0.1527  0.4741
13546SOL     OW41418   4.106   1.840   4.482 -0.0848 -0.2200 -0.6286
13546SOL    HW141419   4.141   1.763   4.439 -0.7372  0.3355 -2.2374
13546SOL    HW241420   4.066   1.807   4.563  1.1586 -1.2878 -0.4265
13547SOL     OW41421   3.970   3.183   4.789 -0.0266  0.6416  0.1340
13547SOL    HW141422   4.051   3.182   4.739 -0.1321  2.9336 -0.2057
13547SOL    HW241423   3.997   3.173   4.880  0.7088  1.8021  0.0610
13548SOL     OW41424   6.720   3.486   4.558  0.4157 -0.1879 -0.6471
13548SOL    HW141425   6.808   3.455   4.581 -0.0971 -0.0140  1.8239
13548SOL    HW241426   6.663   3.449   4.625 -1.3378  0.1904 -1.8566
13549SOL     OW41427   2.478   1.927   7.673 -0.4279  0.4139 -0.3531
13549SOL    HW141428   2.488   2.013   7.715 -0.7000  0.1202  0.3316
13549SOL    HW241429   2.539   1.929   7.600  0.2657  0.8448  0.2233
13550SOL     OW41430   2.918   2.455   0.896 -0.1472 -0.7966 -0.1729
13550SOL    HW141431   2.854   2.389   0.921  0.3902 -1.5622 -0.7955
13550SOL    HW241432   2.995   2.436   0.949 -0.0513 -0.5495 -0.2213
13551SOL     OW41433   7.584   3.028   2.600  0.2956  0.0281  0.7614
13551SOL    HW141434   7.603   3.121   2.594 -1.5827  0.4068  0.0390
13551SOL    HW241435   7.669   2.985   2.590  1.2457  1.6552  1.5214
13552SOL     OW41436   2.710   6.587   7.624  0.1464 -0.4469  0.0306
13552SOL    HW141437   2.620   6.597   7.654 -0.2792 -0.9330 -1.0363
13552SOL    HW241438   2.723   6.492   7.619  0.7210 -0.3784  0.1821
13553SOL     OW41439   5.347   2.786   6.534  0.4526  0.3286  0.3375
13553SOL    HW141440   5.278   2.720   6.525  1.1835 -0.9777  3.0666
13553SOL    HW241441   5.302   2.863   6.567  0.1592 -0.2702  1.3728
13554SOL     OW41442   0.942   2.972   2.410  0.3414 -0.0668  0.2285
13554SOL    HW141443   0.885   2.913   2.459 -1.6435  1.5638  0.0023
13554SOL    HW241444   0.898   2.986   2.327  1.1416  1.1186 -0.0247
13555SOL     OW41445   4.346   7.849   6.433 -0.2548  0.0043 -0.0937
13555SOL    HW141446   4.412   7.883   6.372  0.7304 -0.0371  0.9032
13555SOL    HW241447   4.396   7.828   6.512 -1.4111 -0.4484  0.5388
13556SOL     OW41448   0.672   1.517   0.983 -0.1766  0.0910  0.3157
13556SOL    HW141449   0.577   1.504   0.976 -0.2985  1.4177 -0.8435
13556SOL    HW241450   0.681   1.607   1.015  0.6918  0.3191 -0.5271
13557SOL     OW41451   2.252   1.938   0.814 -0.2359  0.3552  0.1314
13557SOL    HW141452   2.171   1.908   0.774 -0.4567 -1.1102  1.5334
13557SOL    HW241453   2.225   1.979   0.896  0.3691  0.8106  0.1099
13558SOL     OW41454   7.744   8.134   8.177  0.7155 -0.2257  0.1932
13558SOL    HW141455   7.768   8.226   8.168  1.6490 -0.6376 -2.7590
13558SOL    HW241456   7.825   8.091   8.204  1.1332 -0.5270 -1.4484
13559SOL     OW41457   7.496   2.522   5.745  0.4185 -0.8720 -0.3966
13559SOL    HW141458   7.501   2.432   5.714 -1.2154 -0.9097 -0.6570
13559SOL    HW241459   7.498   2.575   5.666  1.2928 -0.6666 -0.2481
13560SOL     OW41460   0.641   2.608   1.464 -0.3677  0.4065  0.0509
13560SOL    HW141461   0.677   2.676   1.406 -0.2773  1.4389  1.2873
13560SOL    HW241462   0.572   2.651   1.513 -1.0698 -0.7027  0.0792
13561SOL     OW41463   8.124   5.748   0.976  0.3700  0.1504 -0.1314
13561SOL    HW141464   8.157   5.667   0.937 -0.1851  0.2725 -0.8607
13561SOL    HW241465   8.175   5.758   1.056  0.0579 -1.2321  0.2721
13562SOL     OW41466   5.709   3.126   7.695 -0.0192  0.4878  0.2753
13562SOL    HW141467   5.646   3.055   7.705  0.0049  0.4156 -0.0846
13562SOL    HW241468   5.662   3.194   7.646 -0.3305  1.0837  1.3696
13563SOL     OW41469   5.994   0.442   0.741  0.1433  0.2788 -0.0429
13563SOL    HW141470   5.996   0.517   0.682 -1.8587  1.0735  0.8150
13563SOL    HW241471   6.085   0.432   0.770  0.7035  1.4608 -1.2598
13564SOL     OW41472   7.273   1.386   3.722  0.4404 -0.0640  0.2530
13564SOL    HW141473   7.281   1.480   3.709  0.4796  0.0767  1.2563
13564SOL    HW241474   7.198   1.360   3.668 -0.2609  0.7240  0.8362
13565SOL     OW41475   7.576   6.861   1.941 -0.0757 -0.1422  0.2909
13565SOL    HW141476   7.536   6.946   1.923  1.5026  0.4805 -0.4195
13565SOL    HW241477   7.588   6.821   1.855  0.9959 -0.2172  0.4597
13566SOL     OW41478   5.676   3.841   3.820 -0.0643 -0.4614  0.4139
13566SOL    HW141479   5.742   3.772   3.814  2.4627  1.8385 -1.7310
13566SOL    HW241480   5.599   3.806   3.776 -0.3341 -3.1549  2.7536
13567SOL     OW41481   7.024   4.499   5.062  0.3058 -0.5638  0.2357
13567SOL    HW141482   7.109   4.458   5.071  1.1310  1.2579  1.3109
13567SOL    HW241483   6.965   4.445   5.116  0.9914 -1.2263  0.3346
13568SOL     OW41484   2.404   7.341   2.675 -0.2387 -0.2394 -0.0187
13568SOL    HW141485   2.379   7.300   2.592  0.5574  0.0289 -0.3959
13568SOL    HW241486   2.432   7.429   2.651  1.9430 -0.8127  0.2413
13569SOL     OW41487   0.508   0.266   7.150  0.0159 -0.3738 -0.5910
13569SOL    HW141488   0.417   0.239   7.137 -0.1754  0.2319 -0.5445
13569SOL    HW241489   0.556   0.184   7.166 -0.8417 -0.5678  1.3288
13570SOL     OW41490   3.980   0.970   5.672 -0.2003  0.0437  0.3760
13570SOL    HW141491   3.945   0.923   5.596 -0.6032 -2.7143  2.1481
13570SOL    HW241492   3.902   0.995   5.722 -0.0144  2.8946 -0.5434
13571SOL     OW41493   7.713   5.505   3.143  0.1778 -0.0972  0.0837
13571SOL    HW141494   7.733   5.597   3.125  0.4185  0.3437  2.3462
13571SOL    HW241495   7.798   5.462   3.152  0.0645 -0.5419 -0.7705
13572SOL     OW41496   2.721   5.006   7.080  0.0414  0.2034 -0.0880
13572SOL    HW141497   2.742   5.090   7.039 -1.3350  0.1423 -1.0071
13572SOL    HW241498   2.727   4.942   7.008  5.2251 -1.3557  1.3092
13573SOL     OW41499   3.754   4.324   0.005  0.4524 -0.0353 -0.3122
13573SOL    HW141500   3.678   4.334   0.061  1.3997  1.0874  0.8407
13573SOL    HW241501   3.739   4.385  -0.068  0.0061 -0.2258 -0.3797
13574SOL     OW41502   0.192   0.393   7.292 -0.3495 -0.0582 -0.0735
13574SOL    HW141503   0.100   0.420   7.287 -0.1975  0.6058  0.5492
13574SOL    HW241504   0.241   0.470   7.265  0.0283 -0.4182 -0.4226
13575SOL     OW41505   6.731   1.541   2.176 -0.2801 -0.3764  0.1732
13575SOL    HW141506   6.747   1.449   2.199 -0.7646 -1.1121 -2.1271
13575SOL    HW241507   6.690   1.537   2.090 -1.6128  1.9714  0.6157
13576SOL     OW41508   2.323   1.134   1.631 -0.0964  0.1335  0.4339
13576SOL    HW141509   2.228   1.135   1.639 -0.0662  2.5658  1.3862
13576SOL    HW241510   2.354   1.096   1.714 -0.1941 -2.2355 -0.5408
13577SOL     OW41511   3.332   2.350   5.996  0.1864 -0.4447 -0.2754
13577SOL    HW141512   3.351   2.307   6.079  1.9341 -0.0855 -0.4513
13577SOL    HW241513   3.397   2.316   5.935 -0.1925  0.3371 -1.1520
13578SOL     OW41514   3.307   2.313   3.832 -0.6885  0.2830 -0.1415
13578SOL    HW141515   3.395   2.340   3.803  0.0404 -0.0658  1.5891
13578SOL    HW241516   3.259   2.296   3.751  0.8406  0.4727 -1.1356
13579SOL     OW41517   3.307   8.006   3.559  0.0993 -0.0818 -0.3893
13579SOL    HW141518   3.310   8.055   3.642  0.1626  0.9011 -0.9529
13579SOL    HW241519   3.386   8.034   3.512  0.1146 -0.7092 -0.7436
13580SOL     OW41520   6.662   6.286   6.929  0.4509 -0.5258  0.2428
13580SOL    HW141521   6.598   6.246   6.870  0.1832 -1.7374  1.3084
13580SOL    HW241522   6.702   6.212   6.974 -0.2585  0.3757  2.4762
13581SOL     OW41523   5.246   5.288   6.365  0.3924  0.3545 -0.0377
13581SOL    HW141524   5.203   5.356   6.417 -1.8496  0.0579 -1.3402
13581SOL    HW241525   5.181   5.265   6.298  2.0131 -1.3609 -1.1274
13582SOL     OW41526   6.415   5.145   8.126 -0.7428 -0.2542  0.0413
13582SOL    HW141527   6.388   5.123   8.215 -3.0615 -1.0209 -0.7793
13582SOL    HW241528   6.501   5.185   8.136 -0.9909 -0.2219  2.6254
13583SOL     OW41529   1.391   1.206   0.461  0.8838  0.4081  0.7981
13583SOL    HW141530   1.419   1.266   0.392  0.4788 -0.4287 -0.1406
13583SOL    HW241531   1.472   1.166   0.493  0.9857 -0.2853 -0.2599
13584SOL     OW41532   6.884   6.708   6.994  0.1856 -0.3823 -0.3765
13584SOL    HW141533   6.826   6.746   6.928 -0.5304 -1.4669 -0.3895
13584SOL    HW241534   6.879   6.613   6.980 -0.0636 -0.6455  1.2972
13585SOL     OW41535   4.308   5.748   8.205 -0.0395  0.1935  0.1291
13585SOL    HW141536   4.286   5.744   8.112 -1.3720  1.6939  0.3340
13585SOL    HW241537   4.223   5.750   8.250  0.5756 -0.4764  1.3977
13586SOL     OW41538   5.031   2.204   3.567 -0.0963 -0.1545 -0.2542
13586SOL    HW141539   5.055   2.230   3.478  0.7743  1.6348  0.4652
13586SOL    HW241540   5.029   2.286   3.617  0.3305 -1.2047  1.5835
13587SOL     OW41541   1.960   3.056   7.519 -0.4995  0.0938 -0.4062
13587SOL    HW141542   2.030   3.040   7.456 -0.5958  1.7470 -1.0020
13587SOL    HW241543   1.999   3.037   7.604  1.4024  2.8458 -0.5272
13588SOL     OW41544   1.929   1.483   2.839  0.1859 -0.7982 -0.1099
13588SOL    HW141545   1.894   1.545   2.903 -0.9859 -0.1776 -1.3092
13588SOL    HW241546   1.915   1.397   2.879 -2.8040 -0.6000 -0.5118
13589SOL     OW41547   5.634   5.660   6.308 -0.2815  0.1861 -0.2419
13589SOL    HW141548   5.579   5.602   6.255  0.9962  0.4499 -1.9543
13589SOL    HW241549   5.679   5.601   6.369  2.1716 -1.0077 -2.9713
13590SOL     OW41550   4.285   4.208   1.113  0.0591 -1.0721  0.5848
13590SOL    HW141551   4.261   4.243   1.199  0.2320  0.0968  0.1808
13590SOL    HW241552   4.380   4.195   1.119 -0.2499 -3.3103  1.3522
13591SOL     OW41553   1.037   0.344   2.344 -0.2226 -0.0769 -0.1465
13591SOL    HW141554   1.017   0.289   2.268 -0.3945  0.5194 -0.5502
13591SOL    HW241555   1.132   0.342   2.351 -0.1262  0.5973 -0.9693
13592SOL     OW41556   3.536   2.235   0.768  0.2610 -0.1614 -0.4028
13592SOL    HW141557   3.531   2.207   0.677  0.8992  2.5436 -1.3653
13592SOL    HW241558   3.615   2.289   0.772  0.7674 -0.9592  2.0127
13593SOL     OW41559   8.213   7.888   6.143 -0.4240  0.0510  0.9371
13593SOL    HW141560   8.141   7.848   6.192 -0.6439  2.8882  3.1513
13593SOL    HW241561   8.291   7.870   6.196 -0.3779  1.5475  1.4250
13594SOL     OW41562   5.835   7.475   4.729 -0.6207  0.5159  0.4019
13594SOL    HW141563   5.886   7.511   4.657 -1.3029  1.6578  0.4616
13594SOL    HW241564   5.889   7.404   4.763 -0.8052 -0.8888 -1.9934
13595SOL     OW41565   4.620   6.868   3.528  0.4708 -0.1513 -0.0338
13595SOL    HW141566   4.712   6.845   3.519  0.9246  0.1547  2.8955
13595SOL    HW241567   4.577   6.784   3.548  0.4708 -0.0021  0.6152
13596SOL     OW41568   4.728   6.077   2.096  0.7432  0.1448  0.0404
13596SOL    HW141569   4.681   6.134   2.034  1.2876  1.5865  0.9015
13596SOL    HW241570   4.714   6.118   2.181  0.1501 -1.7197  0.8765
13597SOL     OW41571   0.929   7.022   8.102 -0.7274  0.0406 -0.4133
13597SOL    HW141572   0.891   7.062   8.180 -0.0632  1.5251 -0.8114
13597SOL    HW241573   0.969   6.941   8.133 -1.2114  0.1779  0.6136
13598SOL     OW41574   4.973   1.782   6.067 -0.2377  0.3766  0.0103
13598SOL    HW141575   5.036   1.809   6.134  0.1739  2.2548 -1.0551
13598SOL    HW241576   4.904   1.736   6.115 -0.2172  2.1104  1.8116
13599SOL     OW41577   6.782   5.187   6.916 -0.0071 -0.2312  0.3580
13599SOL    HW141578   6.852   5.250   6.900 -1.3397  1.2579  0.1651
13599SOL    HW241579   6.718   5.234   6.969 -1.0609 -1.4224  0.2142
13600SOL     OW41580   1.256   6.655   8.132 -0.1148  0.1403 -0.2442
13600SOL    HW141581   1.163   6.676   8.124 -0.4098 -0.8377  0.4712
13600SOL    HW241582   1.274   6.660   8.226  0.5936  0.4383 -0.3856
13601SOL     OW41583   3.742   5.969   2.473  0.5241 -0.1970  0.6294
13601SOL    HW141584   3.738   5.940   2.382  0.6369 -0.5563  0.7395
13601SOL    HW241585   3.835   5.980   2.491  0.4515  0.9908  0.3506
13602SOL     OW41586   6.310   7.820   7.940  0.1570 -0.6678 -0.4500
13602SOL    HW141587   6.241   7.781   7.994  0.9937 -0.7534  0.5841
13602SOL    HW241588   6.391   7.793   7.982  0.8302  2.9978  0.9927
13603SOL     OW41589   0.125   4.137   5.298 -0.1152  0.0040  0.4087
13603SOL    HW141590   0.135   4.091   5.215  1.0212  2.0019 -0.6161
13603SOL    HW241591   0.175   4.083   5.360 -0.9372 -1.4763 -0.1501
13604SOL     OW41592   0.527   1.563   6.581 -0.0111 -0.2022 -0.1116
13604SOL    HW141593   0.512   1.580   6.674 -1.6392 -0.8014 -0.2420
13604SOL    HW241594   0.556   1.471   6.578 -1.1895 -0.5806 -0.2879
13605SOL     OW41595   0.576   5.425   5.208  0.1401 -0.1448 -0.1871
13605SOL    HW141596   0.626   5.500   5.241  0.3185 -1.2941  2.3943
13605SOL    HW241597   0.531   5.458   5.130  3.9126  1.2909 -2.0038
13606SOL     OW41598   2.813   2.738   7.278  0.5913 -0.2626  0.8256
13606SOL    HW141599   2.753   2.811   7.292  1.0774  0.4073 -0.4273
13606SOL    HW241600   2.876   2.744   7.349  0.1280  0.0021  1.2211
13607SOL     OW41601   4.679   5.089   2.646 -0.5433 -1.2528 -0.3899
13607SOL    HW141602   4.597   5.048   2.676  0.0802 -2.7399 -0.6324
13607SOL    HW241603   4.743   5.067   2.714 -0.2490 -0.3543 -0.3545
13608SOL     OW41604   0.245   0.491   7.636  0.5381 -0.1435 -0.0523
13608SOL    HW141605   0.311   0.489   7.566 -0.5254 -0.7163 -1.0878
13608SOL    HW241606   0.254   0.577   7.675  0.7896  0.4137 -1.2837
13609SOL     OW41607   6.347   8.185   3.813  0.5023  0.3311  0.2728
13609SOL    HW141608   6.313   8.152   3.729 -1.4028  1.7059  0.4426
13609SOL    HW241609   6.411   8.119   3.840  0.5153 -0.6044 -1.8198
13610SOL     OW41610   7.846   0.874   5.583 -0.2025  0.1626  0.0760
13610SOL    HW141611   7.902   0.806   5.621 -2.5444 -1.4330  0.9074
13610SOL    HW241612   7.894   0.955   5.598  0.7988 -0.8296  3.0671
13611SOL     OW41613   3.069   7.566   0.945  0.3385  0.2962 -0.4151
13611SOL    HW141614   3.096   7.501   1.009 -0.1739  1.1884  0.7343
13611SOL    HW241615   3.114   7.540   0.864 -0.1161 -1.6575 -0.0844
13612SOL     OW41616   3.321   2.693   0.391  0.3219  0.6555 -0.5130
13612SOL    HW141617   3.377   2.733   0.457  1.4593 -0.3078 -0.8619
13612SOL    HW241618   3.232   2.717   0.417  0.2874 -2.7113  3.6279
13613SOL     OW41619   8.230   6.250   4.789 -0.0899  0.3152 -0.3865
13613SOL    HW141620   8.269   6.293   4.866 -0.4214  1.2048 -0.6962
13613SOL    HW241621   8.292   6.268   4.718 -0.2678  0.3463 -0.5339
13614SOL     OW41622   6.631   1.508   0.180 -0.3977  0.4346 -0.6516
13614SOL    HW141623   6.605   1.430   0.229 -2.0778  0.6820 -1.0803
13614SOL    HW241624   6.550   1.558   0.171  0.8324  2.8086  0.6096
13615SOL     OW41625   7.557   1.983   3.495  0.1713 -0.7082 -0.2531
13615SOL    HW141626   7.499   2.048   3.456  1.2332  0.8838  0.6678
13615SOL    HW241627   7.505   1.942   3.564 -0.0315  0.3765  0.2634
13616SOL     OW41628   6.291   5.493   0.942  0.5078 -0.3723 -0.2848
13616SOL    HW141629   6.311   5.407   0.907  0.3059 -0.5184 -0.0451
13616SOL    HW241630   6.372   5.544   0.929 -0.0650  0.0817 -2.4381
13617SOL     OW41631   5.279   4.146   7.128  0.1921  0.5723  0.6164
13617SOL    HW141632   5.219   4.152   7.053  0.4950 -1.5130  0.1611
13617SOL    HW241633   5.300   4.237   7.148 -0.3623  1.2168 -1.4470
13618SOL     OW41634   6.655   2.898   1.671  0.2374  0.0436 -0.4963
13618SOL    HW141635   6.680   2.806   1.683  0.6152  0.2375  0.2710
13618SOL    HW241636   6.692   2.922   1.586  1.1759 -0.1833 -0.1648
13619SOL     OW41637   4.169   4.979   8.051 -0.0817 -0.3286  0.2701
13619SOL    HW141638   4.213   4.896   8.072  1.0717  0.0963 -0.3616
13619SOL    HW241639   4.202   5.002   7.964  0.5093  1.3427  0.8927
13620SOL     OW41640   0.117   2.136   6.490 -0.4146 -0.7393  0.3436
13620SOL    HW141641   0.135   2.223   6.526  0.7680 -0.8183 -0.0101
13620SOL    HW241642   0.150   2.140   6.401 -2.0153 -0.9968 -0.3024
13621SOL     OW41643   7.181   2.161   4.124  0.1599  0.0290  0.8695
13621SOL    HW141644   7.171   2.088   4.185 -1.0617 -2.5798 -2.1771
13621SOL    HW241645   7.099   2.210   4.133  0.8239  0.9094  2.6488
13622SOL     OW41646   1.827   6.998   5.015 -0.5955  0.2544 -0.1481
13622SOL    HW141647   1.908   6.954   5.041 -0.0301  0.2863 -1.7386
13622SOL    HW241648   1.759   6.934   5.032  0.0148 -0.5718 -0.6927
13623SOL     OW41649   0.584   5.853   0.497 -0.1636 -0.4246 -0.0336
13623SOL    HW141650   0.666   5.823   0.458  0.0712 -0.0362  0.1560
13623SOL    HW241651   0.601   5.944   0.521 -0.3539 -0.6156  0.8451
13624SOL     OW41652   3.280   6.755   6.241 -0.0362 -0.8382 -0.2531
13624SOL    HW141653   3.243   6.675   6.204  0.7500 -0.8192 -1.1104
13624SOL    HW241654   3.366   6.729   6.273  0.8597 -0.0616 -1.8728
13625SOL     OW41655   2.104   3.627   3.744  0.2845  0.1641 -0.2194
13625SOL    HW141656   2.152   3.613   3.826  3.2736 -1.3685 -2.0395
13625SOL    HW241657   2.022   3.579   3.756  0.1975  0.7790  2.1601
13626SOL     OW41658   5.599   2.450   3.450 -0.1152  0.3029 -0.0757
13626SOL    HW141659   5.562   2.368   3.418  1.4473 -0.3077 -0.4200
13626SOL    HW241660   5.525   2.497   3.488 -1.5383 -0.1401 -2.1222
13627SOL     OW41661   7.258   1.651   3.742  0.7920 -0.0953 -0.6266
13627SOL    HW141662   7.213   1.732   3.721 -1.1774 -0.8557  0.4061
13627SOL    HW241663   7.319   1.675   3.812 -1.6951  0.0957  1.6406
13628SOL     OW41664   6.026   2.767   5.780  0.3338 -0.3647 -0.1452
13628SOL    HW141665   5.942   2.801   5.748 -0.3394 -1.1566  0.7223
13628SOL    HW241666   6.089   2.835   5.757 -0.8901  1.2635  1.0513
13629SOL     OW41667   5.639   7.698   1.309 -0.3090 -0.1396 -0.5068
13629SOL    HW141668   5.691   7.715   1.387  0.3724 -1.2199 -0.7031
13629SOL    HW241669   5.570   7.638   1.338 -0.4333 -0.0460 -0.6048
13630SOL     OW41670   6.435   8.280   0.918  0.3298 -0.2238  0.2797
13630SOL    HW141671   6.488   8.226   0.978  0.3009 -0.1907  0.3346
13630SOL    HW241672   6.417   8.222   0.844 -0.5638 -0.6304  0.7949
13631SOL     OW41673   2.979   1.751   2.442  0.7071  0.1566 -0.4495
13631SOL    HW141674   2.920   1.779   2.513 -0.1512  1.0400 -1.4715
13631SOL    HW241675   3.056   1.806   2.452  1.0587 -0.4786  0.4452
13632SOL     OW41676   2.987   6.516   1.785 -0.1524  0.6065  1.0003
13632SOL    HW141677   3.028   6.430   1.770 -1.5787 -0.1913  1.5342
13632SOL    HW241678   3.010   6.538   1.875 -0.9192  0.1441  1.3106
13633SOL     OW41679   7.338   7.753   2.597  0.5329 -0.0848 -0.0906
13633SOL    HW141680   7.245   7.759   2.572  0.7886 -0.2882 -1.1648
13633SOL    HW241681   7.382   7.724   2.517  1.4708 -0.4190  0.5345
13634SOL     OW41682   2.942   7.426   6.822  0.0642 -0.0314  0.2866
13634SOL    HW141683   3.024   7.377   6.831 -0.9295 -1.8704 -0.0273
13634SOL    HW241684   2.913   7.407   6.732 -0.7697  0.4529  0.4481
13635SOL     OW41685   0.778   4.606   5.009 -0.6246 -0.1048 -0.0954
13635SOL    HW141686   0.837   4.651   5.069 -3.0888 -0.4879  2.8617
13635SOL    HW241687   0.713   4.672   4.984 -1.3006 -0.6960  0.0689
13636SOL     OW41688   0.039   3.175   4.183 -0.3068 -0.1448 -0.5477
13636SOL    HW141689   0.120   3.132   4.212 -2.0779 -2.2012  1.7754
13636SOL    HW241690  -0.004   3.111   4.127 -1.0108  0.3170 -0.5493
13637SOL     OW41691   7.887   5.553   7.436 -0.0041  0.7058 -0.3403
13637SOL    HW141692   7.934   5.579   7.356 -1.3449 -2.9575 -2.5459
13637SOL    HW241693   7.932   5.475   7.467 -0.2493  1.3747  1.9284
13638SOL     OW41694   5.634   6.857   7.007 -0.2550  0.1833 -0.0952
13638SOL    HW141695   5.681   6.923   7.057  0.2385 -1.2143  1.3607
13638SOL    HW241696   5.675   6.774   7.032 -0.9865 -0.7117 -1.7119
13639SOL     OW41697   7.403   7.791   1.802  0.0117  0.0743 -0.3627
13639SOL    HW141698   7.315   7.755   1.815  0.9402 -1.9628  0.6114
13639SOL    HW241699   7.439   7.740   1.729  1.3732 -1.1012  1.0777
13640SOL     OW41700   6.656   7.264   2.638  0.7078 -0.2870 -1.1913
13640SOL    HW141701   6.706   7.265   2.557  0.6801 -0.5512 -1.2120
13640SOL    HW241702   6.710   7.314   2.700  1.2049 -0.9333 -1.0914
13641SOL     OW41703   0.735   2.426   0.231 -0.0693 -0.4270  0.4383
13641SOL    HW141704   0.730   2.517   0.204  1.3763 -0.9404 -1.9218
13641SOL    HW241705   0.819   2.419   0.276  0.2910 -0.7638 -0.2693
13642SOL     OW41706   4.318   5.387   3.404  0.2408  0.1941  0.3379
13642SOL    HW141707   4.346   5.336   3.480  0.9645  0.9274  0.5798
13642SOL    HW241708   4.397   5.397   3.351  0.3355  1.7620  0.7121
13643SOL     OW41709   5.896   8.272   0.207 -0.1551 -0.4846  0.2359
13643SOL    HW141710   5.823   8.327   0.234 -1.2022 -1.6162 -0.1650
13643SOL    HW241711   5.866   8.232   0.125  1.5925  0.2911 -0.8221
13644SOL     OW41712   0.193   1.868   0.462  0.5427  0.1978 -0.1947
13644SOL    HW141713   0.113   1.904   0.423  0.5513 -0.0039 -0.4049
13644SOL    HW241714   0.167   1.843   0.551  0.2926 -0.1347 -0.3589
13645SOL     OW41715   8.067   6.742   4.064 -0.2953  0.3551 -0.2586
13645SOL    HW141716   8.058   6.680   4.136  0.7063 -0.1246 -0.5360
13645SOL    HW241717   8.161   6.760   4.058 -0.5796  2.1483  0.0068
13646SOL     OW41718   1.823   7.266   0.082 -0.0026 -0.0268  0.2178
13646SOL    HW141719   1.755   7.211   0.043 -0.8501  0.9814  0.2360
13646SOL    HW241720   1.903   7.243   0.035 -0.6387 -0.1934 -0.8083
13647SOL     OW41721   6.145   1.320   3.807 -0.6256 -0.3411 -0.5445
13647SOL    HW141722   6.066   1.323   3.860 -0.3753 -2.8910  0.1009
13647SOL    HW241723   6.123   1.263   3.733  0.1894  0.0835 -1.1367
13648SOL     OW41724   6.997   1.673   1.288 -0.6152  0.0203 -0.2991
13648SOL    HW141725   6.942   1.598   1.311 -1.8485  0.8884 -0.3039
13648SOL    HW241726   7.028   1.654   1.200  1.3922 -1.7543  0.6828
13649SOL     OW41727   0.895   6.086   7.157  0.1462 -0.1336  0.5100
13649SOL    HW141728   0.936   6.003   7.183 -2.1357 -2.4859 -2.6488
13649SOL    HW241729   0.894   6.083   7.062 -0.8655  3.1980  0.3100
13650SOL     OW41730   7.534   1.750   4.292 -0.5601  0.4229  0.0221
13650SOL    HW141731   7.512   1.683   4.227 -2.8636  0.0403  1.0752
13650SOL    HW241732   7.489   1.828   4.262  0.6687  1.0436 -0.2643
13651SOL     OW41733   6.480   8.096   1.138 -0.4521  0.6636  0.3686
13651SOL    HW141734   6.455   8.070   1.227 -1.9552 -0.0999 -0.2357
13651SOL    HW241735   6.565   8.138   1.149  0.8389 -2.0328  1.8047
13652SOL     OW41736   6.784   0.667   4.671 -0.9321 -0.4636  0.2617
13652SOL    HW141737   6.764   0.635   4.759 -1.3547 -0.4336  0.1755
13652SOL    HW241738   6.835   0.747   4.686  1.2827 -1.8094  0.5001
13653SOL     OW41739   7.414   6.765   0.212 -0.5750  0.0683  0.0483
13653SOL    HW141740   7.406   6.850   0.168 -2.1225 -0.4932 -0.8477
13653SOL    HW241741   7.438   6.705   0.142  0.5247 -0.2483  0.6828
13654SOL     OW41742   1.349   1.913   4.117 -0.2551 -0.3809  0.1183
13654SOL    HW141743   1.431   1.882   4.157 -0.2149 -0.3589  0.0525
13654SOL    HW241744   1.370   2.001   4.087 -0.6273  0.0648  1.1144
13655SOL     OW41745   8.117   3.519   6.777 -0.4369  0.0644  0.3402
13655SOL    HW141746   8.072   3.489   6.856 -0.2208 -0.1267  0.3923
13655SOL    HW241747   8.140   3.438   6.730 -3.8332  0.1725 -1.8043
13656SOL     OW41748   0.229   2.957   3.519  0.7107  0.0886  0.2453
13656SOL    HW141749   0.284   2.887   3.484 -0.0245 -0.7356  0.7141
13656SOL    HW241750   0.151   2.956   3.463  0.4362  0.1331  0.6256
13657SOL     OW41751   7.529   3.614   2.755  0.5260  0.2358 -0.1970
13657SOL    HW141752   7.442   3.573   2.753 -1.1773  3.4891  0.2095
13657SOL    HW241753   7.527   3.676   2.682  2.8585 -0.1648 -0.6624
13658SOL     OW41754   6.068   6.307   4.948 -0.8405 -0.4506 -0.3346
13658SOL    HW141755   6.087   6.318   5.041 -3.0830 -1.5029  0.3147
13658SOL    HW241756   6.153   6.285   4.909  0.2074  0.3289  1.3640
13659SOL     OW41757   2.950   0.556   4.700  0.3572  0.4405 -0.0849
13659SOL    HW141758   2.861   0.581   4.677  0.6168  0.7011 -0.8488
13659SOL    HW241759   2.966   0.475   4.651 -0.6744 -1.6868  2.8051
13660SOL     OW41760   3.422   0.717   2.325 -0.0732 -0.1903 -0.4518
13660SOL    HW141761   3.465   0.783   2.271 -0.7755  0.9895  0.3720
13660SOL    HW241762   3.355   0.679   2.269 -0.2594  0.4481 -0.6718
13661SOL     OW41763   1.836   2.896   6.610 -0.0910  0.1572 -0.5235
13661SOL    HW141764   1.862   2.975   6.564  0.6275 -0.3840 -1.0736
13661SOL    HW241765   1.785   2.927   6.685 -0.6175  1.0840 -1.2418
13662SOL     OW41766   7.810   4.842   1.522  0.5106  0.0605  0.5572
13662SOL    HW141767   7.882   4.899   1.548 -0.0749 -0.2218  3.0519
13662SOL    HW241768   7.852   4.773   1.471  1.4682  1.7182 -1.0288
13663SOL     OW41769   6.889   5.160   7.954 -0.6491  0.1463  0.7688
13663SOL    HW141770   6.825   5.115   7.899 -1.9745  1.9904  0.7443
13663SOL    HW241771   6.970   5.110   7.941 -1.9482 -2.0707  0.5536
13664SOL     OW41772   4.239   6.800   4.323 -0.2206  0.2389 -0.5525
13664SOL    HW141773   4.157   6.807   4.273  0.4200 -1.2245 -1.9022
13664SOL    HW241774   4.280   6.886   4.314 -0.9063  0.5184 -1.1363
13665SOL     OW41775   7.269   6.223   2.993 -0.2404 -0.0679 -0.1817
13665SOL    HW141776   7.270   6.269   2.909 -1.6582  1.8087  0.7465
13665SOL    HW241777   7.320   6.278   3.052  0.4054 -1.1590  0.3039
13666SOL     OW41778   4.801   3.310   4.323 -0.3456 -0.4181  0.3136
13666SOL    HW141779   4.841   3.395   4.342  0.4975 -0.6761 -0.2776
13666SOL    HW241780   4.843   3.249   4.384  0.1585 -0.6891 -0.2999
13667SOL     OW41781   3.347   7.239   5.277 -0.4716  0.0453 -0.6762
13667SOL    HW141782   3.388   7.176   5.337 -0.4052  1.1390  0.4752
13667SOL    HW241783   3.253   7.224   5.288 -0.5447  1.4053  1.1093
13668SOL     OW41784   6.148   1.560   3.996  0.1819  0.2717 -0.1595
13668SOL    HW141785   6.196   1.536   4.076 -0.6559  0.7817  0.5149
13668SOL    HW241786   6.186   1.505   3.928  2.1878  1.1034  0.1936
13669SOL     OW41787   0.446   0.674   0.040  0.0046 -0.5538  0.3459
13669SOL    HW141788   0.427   0.721  -0.041  1.1291 -1.8596 -0.7325
13669SOL    HW241789   0.523   0.719   0.076  0.6303 -1.0918 -0.2972
13670SOL     OW41790   3.619   6.775   4.607  0.2576 -0.6014  0.0491
13670SOL    HW141791   3.653   6.853   4.563 -1.9923 -0.4097 -1.4979
13670SOL    HW241792   3.621   6.798   4.700 -1.1543  1.6994 -0.4007
13671SOL     OW41793   7.540   2.359   4.353 -0.2203 -0.0674 -0.0241
13671SOL    HW141794   7.510   2.389   4.267  1.4137  0.0239 -0.5964
13671SOL    HW241795   7.628   2.397   4.362 -0.2181 -0.3966  1.5174
13672SOL     OW41796   6.604   5.838   1.630  0.0616 -0.0479  0.0186
13672SOL    HW141797   6.645   5.788   1.700 -0.2356 -0.1163  0.1459
13672SOL    HW241798   6.676   5.882   1.586  0.0804  1.9904  1.9088
13673SOL     OW41799   5.873   3.672   4.373  0.0894 -0.2592  0.7962
13673SOL    HW141800   5.780   3.694   4.373  0.5896  2.0403  0.2540
13673SOL    HW241801   5.877   3.585   4.414 -2.4371 -1.1748 -0.6866
13674SOL     OW41802   0.040   5.550   2.957  0.5205  0.0562  0.2791
13674SOL    HW141803  -0.040   5.562   2.907  1.6104  1.1574 -1.2844
13674SOL    HW241804   0.015   5.492   3.029 -1.0155 -1.9337 -1.7443
13675SOL     OW41805   1.716   1.899   5.781 -0.3814 -0.5935 -0.2959
13675SOL    HW141806   1.794   1.913   5.727 -0.2274 -1.9159 -0.4504
13675SOL    HW241807   1.732   1.816   5.825 -1.8083 -1.0021 -0.4949
13676SOL     OW41808   3.939   0.678   2.426  0.1928  0.0994  0.2751
13676SOL    HW141809   3.995   0.601   2.428  2.8480  1.9006  2.3323
13676SOL    HW241810   3.951   0.720   2.511 -2.6852  1.8100 -0.0023
13677SOL     OW41811   6.604   5.718   5.007 -0.5147  0.5719 -0.4157
13677SOL    HW141812   6.538   5.733   4.939 -1.4650 -0.4854  0.2225
13677SOL    HW241813   6.592   5.626   5.031 -0.3784  0.9814  1.3503
13678SOL     OW41814   4.132   7.979   2.670  0.3532 -0.0948  0.0654
13678SOL    HW141815   4.221   7.991   2.637  1.0188 -3.1051  0.4460
13678SOL    HW241816   4.077   7.976   2.592  0.7918  0.2874 -0.2655
13679SOL     OW41817   6.197   4.449   5.005 -0.4540  0.3545  0.0549
13679SOL    HW141818   6.203   4.499   5.086  1.4521 -0.1360  0.2634
13679SOL    HW241819   6.237   4.505   4.939 -1.3082  0.4311 -0.4188
13680SOL     OW41820   1.776   4.884   4.214 -0.2904  0.5179 -0.3494
13680SOL    HW141821   1.743   4.974   4.214 -0.6237  0.3983  0.0612
13680SOL    HW241822   1.700   4.831   4.239  0.4033  0.2984  1.4048
13681SOL     OW41823   5.536   2.962   1.019  0.2282  0.0702  0.2686
13681SOL    HW141824   5.564   2.909   0.945  0.1948  0.0853  0.2452
13681SOL    HW241825   5.470   3.021   0.983  0.0829 -0.0424  0.3446
13682SOL     OW41826   3.294   6.869   1.557 -0.1168  0.3375 -0.1056
13682SOL    HW141827   3.204   6.835   1.553 -0.5713  1.0011  2.3691
13682SOL    HW241828   3.284   6.963   1.540  0.4361  0.1258 -1.8030
13683SOL     OW41829   8.100   3.815   0.135  0.3808  0.3319  0.7134
13683SOL    HW141830   8.161   3.760   0.087  0.3764 -0.0670  1.1571
13683SOL    HW241831   8.057   3.755   0.197 -0.0439  0.7174  0.8007
13684SOL     OW41832   2.697   0.216   1.180  0.7901 -0.4898 -0.4584
13684SOL    HW141833   2.697   0.190   1.272 -0.9371 -3.6383 -1.1786
13684SOL    HW241834   2.782   0.186   1.146  0.8438 -0.6279 -0.1994
13685SOL     OW41835   2.600   8.071   5.492 -0.6773  0.9376 -0.4373
13685SOL    HW141836   2.679   8.025   5.465 -0.6555  0.0032  1.0768
13685SOL    HW241837   2.620   8.164   5.480  0.2343  0.6656 -1.0875
13686SOL     OW41838   1.540   5.914   4.087 -0.5925 -0.0574  0.6435
13686SOL    HW141839   1.486   5.974   4.037 -0.4705  1.1596  1.9114
13686SOL    HW241840   1.626   5.957   4.092  0.4462 -1.7769 -1.0216
13687SOL     OW41841   8.101   4.315   0.578  0.1203 -0.0881  0.2090
13687SOL    HW141842   8.186   4.290   0.539  0.4791 -2.3981  2.1787
13687SOL    HW241843   8.119   4.397   0.623  0.4774  1.0210 -1.8290
13688SOL     OW41844   2.881   6.732   2.896 -0.1419 -0.1063 -0.3019
13688SOL    HW141845   2.790   6.760   2.897  0.7010  2.9166 -0.3101
13688SOL    HW241846   2.925   6.791   2.835  1.6846 -2.1003 -1.0613
13689SOL     OW41847   3.875   0.537   8.257  0.1541  0.0429  0.8032
13689SOL    HW141848   3.908   0.590   8.184 -1.7892  1.0183  0.5453
13689SOL    HW241849   3.950   0.526   8.315  0.9676  2.0239  0.2233
13690SOL     OW41850   1.895   8.165   0.243 -0.0032 -0.1613 -0.0036
13690SOL    HW141851   1.965   8.229   0.228 -0.8311  0.3709 -1.9401
13690SOL    HW241852   1.890   8.157   0.338  1.7287  0.8469  0.2214
13691SOL     OW41853   1.343   0.292   2.112  0.2709 -0.0471 -0.1810
13691SOL    HW141854   1.404   0.322   2.179 -0.8806 -0.9400  1.3560
13691SOL    HW241855   1.323   0.201   2.137 -0.4635 -0.2985 -1.5551
13692SOL     OW41856   0.013   3.363   5.696 -0.2558 -0.5995  0.0736
13692SOL    HW141857  -0.020   3.279   5.728  1.8198 -1.5643 -0.1662
13692SOL    HW241858  -0.043   3.428   5.739 -0.7408 -2.0215  1.7171
13693SOL     OW41859   5.022   5.780   0.592 -0.2205 -0.6601  0.1486
13693SOL    HW141860   4.982   5.743   0.671  0.9680  0.0295  1.1051
13693SOL    HW241861   4.962   5.850   0.566  0.3499  0.4032  1.6001
13694SOL     OW41862   4.849   0.374   0.840  0.3127 -0.0052 -0.5298
13694SOL    HW141863   4.901   0.452   0.821  0.7051  0.6789  2.6825
13694SOL    HW241864   4.761   0.407   0.855  0.2672 -0.3117 -0.0983
13695SOL     OW41865   7.855   3.505   5.084  0.1745 -0.2441  0.0602
13695SOL    HW141866   7.930   3.540   5.036 -1.1396  2.0587 -0.4700
13695SOL    HW241867   7.883   3.502   5.175  1.0139  0.2331 -0.1803
13696SOL     OW41868   5.929   6.561   3.909  0.4424  0.4663  0.1089
13696SOL    HW141869   5.918   6.466   3.913  3.0849  0.0857  0.7729
13696SOL    HW241870   5.894   6.593   3.993 -0.2045  0.0591 -0.0003
13697SOL     OW41871   1.992   8.318   7.005  0.0906  0.1653 -0.0993
13697SOL    HW141872   1.908   8.318   6.961  0.2953  1.4242 -0.5143
13697SOL    HW241873   2.052   8.362   6.945  0.3887  1.8782  1.3640
13698SOL     OW41874   4.965   4.794   2.456  0.5567 -0.1752  0.0928
13698SOL    HW141875   4.942   4.745   2.377  2.1364 -0.4169 -0.2600
13698SOL    HW241876   4.882   4.828   2.489 -0.1076  0.3125 -1.9260
13699SOL     OW41877   4.678   3.663   7.455 -0.1299 -0.3278 -0.0198
13699SOL    HW141878   4.597   3.617   7.481 -0.2626 -1.3647 -2.0134
13699SOL    HW241879   4.739   3.592   7.433  0.4334  0.4419 -1.0155
13700SOL     OW41880   4.276   4.914   4.009 -0.0596  0.3062 -0.0129
13700SOL    HW141881   4.230   4.988   4.050 -1.9531 -0.5828 -0.4425
13700SOL    HW241882   4.279   4.847   4.077 -0.1807  0.0455 -0.2627
13701SOL     OW41883   1.616   0.137   6.806 -0.2820 -0.3592 -0.3404
13701SOL    HW141884   1.684   0.204   6.812  0.4536 -1.0348 -0.8966
13701SOL    HW241885   1.625   0.101   6.718 -1.5297 -0.2992 -0.5082
13702SOL     OW41886   3.226   5.997   3.962  0.1675  0.3228  0.2386
13702SOL    HW141887   3.180   6.001   4.046 -0.0286  0.9572  0.1090
13702SOL    HW241888   3.160   5.964   3.900  0.6607 -1.3535  0.5521
13703SOL     OW41889   1.141   5.540   2.742  0.1949 -0.0457 -0.3858
13703SOL    HW141890   1.226   5.497   2.752 -0.4673 -0.8382  3.6636
13703SOL    HW241891   1.085   5.472   2.705  0.2230 -1.2900  1.7013
13704SOL     OW41892   6.623   3.527   7.008  0.1021 -0.0448  0.1491
13704SOL    HW141893   6.697   3.503   6.952 -0.4955  0.7488 -1.0313
13704SOL    HW241894   6.627   3.623   7.013 -0.8198  0.0098  0.0665
13705SOL     OW41895   2.391   5.869   2.526  0.3960 -0.5103  0.2724
13705SOL    HW141896   2.402   5.849   2.433  0.1431 -1.0775  0.3597
13705SOL    HW241897   2.355   5.788   2.563 -0.1607 -0.0531  0.7339
13706SOL     OW41898   7.160   2.823   5.554  0.4102 -0.3362 -0.5284
13706SOL    HW141899   7.124   2.739   5.582  1.4219 -0.8777 -0.8320
13706SOL    HW241900   7.148   2.825   5.460  0.8796 -0.3800 -0.5917
13707SOL     OW41901   6.710   6.228   2.734 -0.1268 -0.0480 -0.9184
13707SOL    HW141902   6.673   6.278   2.807 -2.3465 -1.7292 -0.7984
13707SOL    HW241903   6.770   6.289   2.692 -0.6272  1.7818  0.8397
13708SOL     OW41904   0.059   5.731   5.044 -0.4482  0.0795 -0.1660
13708SOL    HW141905   0.015   5.813   5.021  0.4398  0.4275 -0.7116
13708SOL    HW241906   0.128   5.722   4.978  1.0073  0.1511  1.2749
13709SOL     OW41907   3.089   2.643   4.278  0.2771 -0.0270  0.2315
13709SOL    HW141908   3.122   2.690   4.202  1.5821  0.2756  0.9629
13709SOL    HW241909   3.016   2.591   4.244  0.1105  0.9613 -0.9880
13710SOL     OW41910   7.894   7.278   0.801 -0.1256 -0.3105  0.5024
13710SOL    HW141911   7.889   7.189   0.836 -0.9189  0.0272  1.2991
13710SOL    HW241912   7.988   7.296   0.795  0.0498 -0.7609  1.5508
13711SOL     OW41913   0.378   5.217   5.908  0.6125 -0.5728 -0.4186
13711SOL    HW141914   0.422   5.208   5.992  0.8834 -1.8554 -0.6786
13711SOL    HW241915   0.288   5.190   5.925  0.4162  0.1024 -0.3393
13712SOL     OW41916   2.482   1.575   4.359 -0.5583 -0.3024 -0.0187
13712SOL    HW141917   2.400   1.540   4.392 -0.3867 -0.4482  0.2622
13712SOL    HW241918   2.548   1.509   4.383  0.0941  1.0631  2.2615
13713SOL     OW41919   6.184   3.750   4.427  0.1434 -0.1585  0.3129
13713SOL    HW141920   6.098   3.735   4.467  0.3403  2.3703  1.8898
13713SOL    HW241921   6.164   3.774   4.336 -0.6953 -0.8158  0.3062
13714SOL     OW41922   3.137   0.337   5.435  0.0479  0.3364 -0.2747
13714SOL    HW141923   3.221   0.380   5.425  0.3040 -0.3819 -1.3969
13714SOL    HW241924   3.076   0.392   5.385  0.3594 -0.5388 -1.6388
13715SOL     OW41925   0.986   6.141   4.040  0.0897 -0.0393  0.2119
13715SOL    HW141926   0.915   6.096   3.994  0.7697 -2.3910  1.2948
13715SOL    HW241927   1.012   6.080   4.109  2.8866  0.9155  0.1376
13716SOL     OW41928   6.308   7.082   6.329 -0.3222 -0.3113 -0.2279
13716SOL    HW141929   6.220   7.094   6.294 -0.6815 -1.6665  0.1815
13716SOL    HW241930   6.350   7.168   6.316 -1.4573  0.1504 -1.0561
13717SOL     OW41931   2.168   4.235   2.456  0.2875 -0.0514 -0.3427
13717SOL    HW141932   2.216   4.311   2.489 -1.7464 -0.0948  3.2724
13717SOL    HW241933   2.233   4.164   2.455  1.0264  0.5381  1.5480
13718SOL     OW41934   4.659   0.630   1.900  0.0507  0.3556  0.3247
13718SOL    HW141935   4.715   0.664   1.831  0.2192  0.6552  0.6091
13718SOL    HW241936   4.582   0.686   1.898  0.5819  1.1417  1.1828
13719SOL     OW41937   6.522   3.230   1.617 -0.2486  0.0593  0.2979
13719SOL    HW141938   6.461   3.159   1.636 -0.6913  0.5264  0.6595
13719SOL    HW241939   6.586   3.191   1.558 -2.1516  0.1492 -1.9966
13720SOL     OW41940   8.318   3.229   0.596 -0.5308 -0.3871 -0.0873
13720SOL    HW141941   8.409   3.232   0.566 -0.9035  1.8869 -1.2215
13720SOL    HW241942   8.267   3.254   0.519 -1.7639  2.3981  1.4882
13721SOL     OW41943   0.645   0.584   0.990  0.1927 -0.1817  0.3407
13721SOL    HW141944   0.611   0.615   0.906  1.3507  0.0639 -0.0474
13721SOL    HW241945   0.566   0.558   1.039 -0.4536 -1.1142 -1.1153
13722SOL     OW41946   2.291   6.157   3.727  0.3100  0.3126 -0.1557
13722SOL    HW141947   2.223   6.091   3.726 -0.7976  1.3405 -3.0437
13722SOL    HW241948   2.372   6.109   3.713 -0.3673 -0.5624 -1.2278
13723SOL     OW41949   2.606   3.201   7.258  0.3477 -0.6113 -0.1413
13723SOL    HW141950   2.679   3.242   7.211  1.0518 -1.4726  0.1766
13723SOL    HW241951   2.644   3.172   7.340 -1.2362  2.4421  1.8671
13724SOL     OW41952   0.056   4.561   2.036  0.3771 -0.1225  0.3280
13724SOL    HW141953   0.141   4.599   2.014 -0.1247  2.0908  1.7724
13724SOL    HW241954   0.073   4.510   2.115  0.6148 -0.9660 -0.2547
13725SOL     OW41955   0.138   4.661   1.327  0.7036 -0.0653 -0.7287
13725SOL    HW141956   0.134   4.733   1.390  0.3457  0.1207 -0.9598
13725SOL    HW241957   0.216   4.611   1.352  1.4165  0.8602 -1.0625
13726SOL     OW41958   0.611   5.012   3.260  0.2112 -0.4899 -0.2103
13726SOL    HW141959   0.631   4.919   3.257 -1.2858 -0.8221 -1.1614
13726SOL    HW241960   0.532   5.018   3.314  0.5679  0.2931  0.2435
13727SOL     OW41961   2.994   3.698   4.595 -0.7221  0.1186  0.1927
13727SOL    HW141962   3.057   3.768   4.613 -1.1942  0.0950  2.1748
13727SOL    HW241963   3.048   3.622   4.574 -0.1367  0.5368  0.1574
13728SOL     OW41964   7.235   3.522   1.066 -0.2052 -0.2594 -0.2003
13728SOL    HW141965   7.245   3.469   1.145  1.4341 -0.6669 -0.6327
13728SOL    HW241966   7.280   3.604   1.086 -3.1440  1.2828  0.6395
13729SOL     OW41967   8.262   0.586   4.160  1.0751  0.0910 -0.3703
13729SOL    HW141968   8.244   0.511   4.217  0.1514 -2.2049 -3.3991
13729SOL    HW241969   8.340   0.627   4.198 -0.4297 -0.1605  3.4311
13730SOL     OW41970   3.102   0.807   2.658  0.0921  0.1993 -0.1070
13730SOL    HW141971   3.059   0.721   2.666  0.2607  0.0393 -0.8768
13730SOL    HW241972   3.040   0.868   2.696  0.0209 -0.2793  0.5683
13731SOL     OW41973   8.275   8.218   1.145  0.2544  0.1173  0.3393
13731SOL    HW141974   8.362   8.177   1.146 -0.2255 -1.0057 -1.3237
13731SOL    HW241975   8.261   8.243   1.054 -2.3047 -2.2935 -0.0620
13732SOL     OW41976   1.265   1.709   1.114 -0.1304 -0.1008  0.0179
13732SOL    HW141977   1.359   1.705   1.130  0.0760  0.9208 -0.8294
13732SOL    HW241978   1.255   1.696   1.020 -0.8106  0.1105  0.0511
13733SOL     OW41979   5.600   4.930   3.223  0.2539 -0.0597 -0.2107
13733SOL    HW141980   5.553   4.952   3.143  1.2750  2.1284 -0.2818
13733SOL    HW241981   5.532   4.905   3.285 -0.6260 -0.7966 -1.4353
13734SOL     OW41982   0.680   3.083   0.385  0.8761 -0.0398 -0.3204
13734SOL    HW141983   0.758   3.028   0.382 -0.2990 -1.8395  0.3664
13734SOL    HW241984   0.609   3.026   0.356 -0.4147  1.1023  0.4697
13735SOL     OW41985   0.289   3.663   0.616  0.3870  0.2195  0.1947
13735SOL    HW141986   0.365   3.678   0.673  2.3305 -1.0949 -1.8811
13735SOL    HW241987   0.301   3.726   0.545  1.0924 -1.7530 -1.5258
13736SOL     OW41988   3.540   0.912   2.139 -0.4944  0.8426 -0.7092
13736SOL    HW141989   3.606   0.847   2.116  0.0922  0.5653  1.5368
13736SOL    HW241990   3.528   0.964   2.059 -0.8095 -1.8136 -2.5300
13737SOL     OW41991   5.446   0.995   2.452 -0.0470  0.4672  0.7085
13737SOL    HW141992   5.479   1.075   2.492  2.3124 -0.0648 -0.0196
13737SOL    HW241993   5.436   1.016   2.359 -3.9074  1.2000  1.1093
13738SOL     OW41994   1.664   6.247   5.439 -0.2270  0.1404  0.2481
13738SOL    HW141995   1.595   6.299   5.482 -0.2785 -0.9200  1.5189
13738SOL    HW241996   1.743   6.265   5.491 -0.2253 -0.9404  0.6457
13739SOL     OW41997   0.776   7.480   4.393 -1.0562  0.4881 -0.3665
13739SOL    HW141998   0.739   7.495   4.480  0.3920  1.8869  0.0545
13739SOL    HW241999   0.784   7.567   4.355  1.1081  0.2168 -0.6853
13740SOL     OW42000   4.713   1.745   5.243 -0.1103  0.1945 -0.1868
13740SOL    HW142001   4.706   1.806   5.316  1.8620  0.8317 -0.4777
13740SOL    HW242002   4.723   1.800   5.166  1.6903 -0.4313 -0.4586
13741SOL     OW42003   2.374   3.319   4.080  0.1712  0.0963 -0.0735
13741SOL    HW142004   2.309   3.326   4.009 -1.0762 -1.4013  0.8712
13741SOL    HW242005   2.458   3.335   4.036 -0.6550  0.3737 -1.6630
13742SOL     OW42006   5.563   6.275   1.565 -0.2155 -0.2684 -0.3517
13742SOL    HW142007   5.634   6.288   1.627  0.0667 -0.3211 -0.6650
13742SOL    HW242008   5.606   6.262   1.481 -0.5941 -0.2962 -0.5435
13743SOL     OW42009   2.633   2.478   6.338  0.0183  0.2614  0.1048
13743SOL    HW142010   2.576   2.477   6.260 -0.8988 -0.7348  0.7595
13743SOL    HW242011   2.582   2.434   6.405  2.3312 -2.5653  0.1963
13744SOL     OW42012   3.747   5.993   3.437  0.6576 -0.6941 -0.1453
13744SOL    HW142013   3.744   6.046   3.358 -1.6498  0.1927  0.4493
13744SOL    HW242014   3.791   5.912   3.411  1.7685  0.3928 -1.7833
13745SOL     OW42015   1.706   1.198   7.481 -0.3089  0.7287 -0.0843
13745SOL    HW142016   1.791   1.188   7.438  0.3066 -0.9775  1.3660
13745SOL    HW242017   1.711   1.282   7.526  0.1501  1.1669 -0.9358
13746SOL     OW42018   2.402   5.625   0.424 -0.0664 -0.2335 -0.2284
13746SOL    HW142019   2.433   5.537   0.447 -0.8290 -0.1883  1.0310
13746SOL    HW242020   2.338   5.610   0.355 -4.4204 -1.3730  3.5591
13747SOL     OW42021   3.621   0.769   6.166  0.0253  0.0999  0.0955
13747SOL    HW142022   3.708   0.731   6.180  0.0314 -0.1699 -0.6413
13747SOL    HW242023   3.587   0.783   6.254  0.2416 -1.1191  0.3915
13748SOL     OW42024   3.919   2.788   7.181 -0.3463  0.2637 -0.0920
13748SOL    HW142025   3.969   2.707   7.182 -0.4921  0.0876 -2.0642
13748SOL    HW242026   3.884   2.796   7.269 -0.6352 -2.0089  0.0543
13749SOL     OW42027   6.036   1.028   4.562  0.3759  0.3909  0.6968
13749SOL    HW142028   6.099   1.099   4.547  1.7068 -0.7422  0.6591
13749SOL    HW242029   5.978   1.061   4.630  1.7040  1.0968  1.5419
13750SOL     OW42030   0.773   1.870   3.014  0.1935  0.0594 -0.3674
13750SOL    HW142031   0.838   1.832   2.955 -0.0208 -0.3550 -0.3405
13750SOL    HW242032   0.689   1.845   2.976  0.0424  0.6298 -0.4289
13751SOL     OW42033   6.378   6.424   6.288 -0.0316  0.0983 -0.0934
13751SOL    HW142034   6.343   6.495   6.234 -2.2171 -0.6305  0.2702
13751SOL    HW242035   6.366   6.345   6.235 -0.9203 -0.4443  0.8947
13752SOL     OW42036   0.429   5.717   4.036 -0.7521 -0.2854  0.8000
13752SOL    HW142037   0.361   5.661   4.074 -0.9522 -1.4252 -1.0771
13752SOL    HW242038   0.492   5.729   4.106 -2.0291 -0.6404  2.0666
13753SOL     OW42039   0.741   6.692   1.338 -0.2505 -0.0929 -0.0876
13753SOL    HW142040   0.785   6.620   1.291  1.8698  0.7063  0.5789
13753SOL    HW242041   0.765   6.679   1.429  0.7932  1.8669 -0.0461
13754SOL     OW42042   8.111   3.575   2.378 -0.0083 -0.1428 -0.7550
13754SOL    HW142043   8.154   3.536   2.302  1.9637  0.3447  0.0473
13754SOL    HW242044   8.090   3.501   2.435  0.8490 -0.3190 -0.6522
13755SOL     OW42045   3.308   5.499   5.970 -0.0715 -0.6485  0.2423
13755SOL    HW142046   3.388   5.547   5.951 -0.4345 -0.8938 -2.2344
13755SOL    HW242047   3.264   5.551   6.038  1.3481  0.3941  0.4091
13756SOL     OW42048   5.053   0.499   7.331 -0.0776  0.7863 -0.0061
13756SOL    HW142049   4.974   0.518   7.281  0.8697 -0.3406 -2.0685
13756SOL    HW242050   5.125   0.523   7.273  1.0920 -0.7376  0.7285
13757SOL     OW42051   0.552   8.011   0.493 -0.1689  0.0228 -0.7558
13757SOL    HW142052   0.586   7.941   0.547  0.8298  0.6460 -0.5460
13757SOL    HW242053   0.479   7.972   0.446  0.0336 -0.9992 -0.2482
13758SOL     OW42054   7.056   7.177   6.921 -0.3411  1.0301  0.0731
13758SOL    HW142055   6.986   7.240   6.936  0.4449  2.5197 -2.0874
13758SOL    HW242056   7.132   7.214   6.966 -0.4165  0.4349  0.7124
13759SOL     OW42057   6.840   7.029   0.308  0.4090  0.3523  0.3024
13759SOL    HW142058   6.921   6.996   0.270 -0.7902 -0.8173 -1.3777
13759SOL    HW242059   6.795   6.951   0.340 -1.2410  0.6188 -1.2462
13760SOL     OW42060   0.840   6.983   6.621 -0.2556  0.8959  0.3020
13760SOL    HW142061   0.781   6.909   6.631  2.1169 -1.1908 -0.2640
13760SOL    HW242062   0.850   7.018   6.709  0.3760 -0.9752  1.0210
13761SOL     OW42063   6.261   7.460   1.695  0.0606 -0.5535 -0.5362
13761SOL    HW142064   6.224   7.389   1.645 -0.4534  0.6299 -1.8930
13761SOL    HW242065   6.215   7.458   1.779 -1.9085 -0.1708 -1.5538
13762SOL     OW42066   8.234   3.509   2.144  0.3958 -0.1939  0.2733
13762SOL    HW142067   8.290   3.444   2.186  0.6158 -0.3818 -0.3055
13762SOL    HW242068   8.239   3.489   2.050 -1.6123 -0.9777  0.2912
13763SOL     OW42069   7.585   8.072   7.824 -0.2805  0.5873  0.2249
13763SOL    HW142070   7.507   8.107   7.869  0.0370  0.6058  0.7634
13763SOL    HW242071   7.616   8.001   7.881 -0.8874 -0.5638 -0.8328
13764SOL     OW42072   5.747   3.280   5.304  0.1976 -0.1120 -0.1865
13764SOL    HW142073   5.697   3.237   5.373  0.6212  0.0628  0.2359
13764SOL    HW242074   5.682   3.330   5.254  0.0611  0.8341  0.8965
13765SOL     OW42075   5.431   1.207   2.606  0.1806  0.7284 -0.3239
13765SOL    HW142076   5.454   1.289   2.649  0.3246 -0.2305  1.5548
13765SOL    HW242077   5.336   1.204   2.608  0.1805 -0.5881  2.6943
13766SOL     OW42078   7.179   4.607   6.617  0.2186 -0.2481 -0.4569
13766SOL    HW142079   7.144   4.634   6.532 -0.6918 -0.3100 -0.1090
13766SOL    HW242080   7.238   4.678   6.643  0.7972 -0.4049 -1.3072
13767SOL     OW42081   1.367   3.695   2.125  0.0629  0.1830  0.4872
13767SOL    HW142082   1.401   3.675   2.213  2.0861 -1.0049 -0.5056
13767SOL    HW242083   1.375   3.613   2.077 -3.2936  0.1195 -0.2124
13768SOL     OW42084   3.394   7.884   6.145 -0.2050 -0.6335  0.6541
13768SOL    HW142085   3.311   7.917   6.111  0.4770  0.1173 -0.3797
13768SOL    HW242086   3.395   7.909   6.237 -0.1469  1.4658  0.1435
13769SOL     OW42087   3.065   4.334   4.653  0.0704 -0.4435  0.5607
13769SOL    HW142088   3.022   4.372   4.577  0.1813 -0.3432  0.5477
13769SOL    HW242089   3.144   4.293   4.619 -0.5258 -1.5266  0.4350
13770SOL     OW42090   8.057   7.705   4.022  0.8413  0.4136 -0.6776
13770SOL    HW142091   8.018   7.645   4.085  0.3864 -0.4602 -1.7466
13770SOL    HW242092   7.986   7.726   3.961  1.1972  1.4453 -0.7583
13771SOL     OW42093   5.948   0.205   7.406  0.4066  0.1198  0.1294
13771SOL    HW142094   5.867   0.154   7.406  0.9707 -0.7979 -0.0544
13771SOL    HW242095   5.949   0.249   7.491  0.2527 -0.7576  0.5977
13772SOL     OW42096   1.225   1.185   3.236  0.6342  0.3821 -0.5970
13772SOL    HW142097   1.230   1.124   3.310 -3.0922 -1.8744 -1.9378
13772SOL    HW242098   1.180   1.262   3.270 -0.7513 -0.5013 -0.3810
13773SOL     OW42099   5.606   2.961   5.256 -0.3011  0.0621  0.1753
13773SOL    HW142100   5.692   3.000   5.271 -0.8672  0.9944  1.1410
13773SOL    HW242101   5.555   3.030   5.214 -1.1833  0.2657  1.5173
13774SOL     OW42102   6.334   1.246   6.988 -0.3099  0.0369  0.1302
13774SOL    HW142103   6.329   1.335   6.952  0.5990 -0.3857 -1.1074
13774SOL    HW242104   6.424   1.238   7.020 -0.4209 -0.4042  0.3412
13775SOL     OW42105   7.601   4.175   8.199  0.3711 -0.2164 -0.2821
13775SOL    HW142106   7.691   4.188   8.228  0.3008 -0.8063  0.2225
13775SOL    HW242107   7.550   4.172   8.280 -0.1897  0.7087 -0.5924
13776SOL     OW42108   4.652   2.649   2.416 -0.1657 -0.3436 -0.5186
13776SOL    HW142109   4.587   2.642   2.486 -1.6862  0.4766 -1.7811
13776SOL    HW242110   4.725   2.696   2.455 -0.1335 -1.6233  1.0447
13777SOL     OW42111   3.022   6.333   3.175  0.2507  0.2881  0.2779
13777SOL    HW142112   3.101   6.303   3.129 -1.0782 -1.1492 -1.2032
13777SOL    HW242113   2.988   6.403   3.119  0.6216  1.1264  1.0823
13778SOL     OW42114   5.918   7.803   0.872  0.4731  0.0070 -0.5123
13778SOL    HW142115   5.954   7.738   0.812  0.1352  1.0506 -1.9095
13778SOL    HW242116   5.892   7.876   0.815  0.1673  1.0565  0.9177
13779SOL     OW42117   0.665   3.673   5.961  0.4715 -0.6789 -0.1946
13779SOL    HW142118   0.714   3.722   6.027  2.0842 -0.2979 -1.5920
13779SOL    HW242119   0.624   3.601   6.010 -1.8538  1.8659  1.9120
13780SOL     OW42120   3.666   7.587   1.844  0.2081 -0.1650  0.0759
13780SOL    HW142121   3.634   7.650   1.908  0.7704 -0.4700  0.6641
13780SOL    HW242122   3.691   7.641   1.769 -1.4069  0.1069 -0.3169
13781SOL     OW42123   0.492   6.743   0.932  0.1282 -0.2531 -0.0631
13781SOL    HW142124   0.511   6.658   0.892  3.2684  0.6867 -0.8342
13781SOL    HW242125   0.461   6.722   1.020  0.4777 -2.1991 -0.3660
13782SOL     OW42126   0.848   0.863   6.924 -0.1591  0.1560  0.4313
13782SOL    HW142127   0.763   0.907   6.915 -0.1942  0.1765  0.8620
13782SOL    HW242128   0.878   0.853   6.834 -0.3651  0.6482  0.2998
13783SOL     OW42129   1.419   7.744   1.355  0.0760  0.2805  0.2183
13783SOL    HW142130   1.475   7.668   1.339  0.4382  0.2791  1.4218
13783SOL    HW242131   1.410   7.785   1.269  0.2278 -0.8718 -0.3711
13784SOL     OW42132   2.344   3.638   4.822  0.0520 -0.1889 -0.1317
13784SOL    HW142133   2.384   3.674   4.742  1.3384 -1.8599 -0.3011
13784SOL    HW242134   2.249   3.645   4.806  0.0939  4.1708  0.4108
13785SOL     OW42135   4.781   6.423   1.474 -0.0452  0.2865 -0.2088
13785SOL    HW142136   4.742   6.352   1.526  0.7049 -0.1786 -0.2659
13785SOL    HW242137   4.707   6.480   1.451 -1.1190 -1.8016 -2.3412
13786SOL     OW42138   6.051   7.426   8.034  0.6519 -0.1393 -0.3379
13786SOL    HW142139   6.112   7.472   8.091  0.5149 -0.4331  0.0519
13786SOL    HW242140   5.968   7.473   8.043  0.3012 -0.8993  0.6651
13787SOL     OW42141   4.189   7.567   1.096 -0.1224 -0.0989  0.0481
13787SOL    HW142142   4.111   7.605   1.054  0.1087 -0.0469 -0.3426
13787SOL    HW242143   4.191   7.607   1.183  0.3239  1.0878 -0.4836
13788SOL     OW42144   5.014   1.411   2.384 -0.0858 -0.0222  0.3744
13788SOL    HW142145   5.019   1.500   2.350 -1.1293 -0.1076 -0.0200
13788SOL    HW242146   4.923   1.399   2.411  0.3719 -0.4636  1.8532
13789SOL     OW42147   5.623   2.496   5.229  0.4393  0.1638  0.1822
13789SOL    HW142148   5.587   2.445   5.156  0.5219  0.4619 -0.0690
13789SOL    HW242149   5.619   2.436   5.304  0.3180 -0.1321 -0.0563
13790SOL     OW42150   4.583   6.430   1.776  0.2524  0.0881 -0.5212
13790SOL    HW142151   4.533   6.429   1.694 -0.8906  1.0999  0.1417
13790SOL    HW242152   4.621   6.342   1.781 -1.7095 -0.8488 -0.9203
13791SOL     OW42153   3.212   4.335   3.223 -0.0623 -0.0692 -0.1263
13791SOL    HW142154   3.229   4.251   3.180  0.0122 -0.0095 -0.2145
13791SOL    HW242155   3.267   4.398   3.176 -0.5897  0.1442 -0.4704
13792SOL     OW42156   6.085   7.836   3.353  0.2425  0.3259  0.1601
13792SOL    HW142157   6.065   7.840   3.447 -1.4604 -0.6007 -0.1166
13792SOL    HW242158   6.158   7.774   3.347 -0.3624 -0.4718  0.7934
13793SOL     OW42159   7.390   0.256   3.961  0.3301  0.5360 -0.5157
13793SOL    HW142160   7.340   0.200   3.902  0.4300  1.3140 -1.3699
13793SOL    HW242161   7.358   0.344   3.942 -1.1265  0.6461  2.0548
13794SOL     OW42162   5.786   1.643   3.472 -0.3287 -0.7101 -0.4064
13794SOL    HW142163   5.849   1.597   3.528 -0.1912 -0.2777 -0.2042
13794SOL    HW242164   5.820   1.732   3.467 -0.8165 -0.5285 -0.4665
13795SOL     OW42165   1.130   7.136   7.975  0.0512  0.4023  0.5730
13795SOL    HW142166   1.085   7.182   7.905  0.6303  0.8799  0.5054
13795SOL    HW242167   1.063   7.079   8.014  0.0237 -0.7907 -1.1368
13796SOL     OW42168   0.092   5.753   0.212 -0.1409 -0.1874  0.0944
13796SOL    HW142169   0.100   5.784   0.122 -0.8226 -0.3512 -0.0292
13796SOL    HW242170   0.155   5.806   0.262 -1.1998  1.3407 -0.1184
13797SOL     OW42171   6.252   6.765   7.041 -0.6815  0.6877  0.2529
13797SOL    HW142172   6.338   6.755   7.000 -0.7172 -1.4733  0.5931
13797SOL    HW242173   6.195   6.791   6.969 -0.0695  0.4006 -0.3526
13798SOL     OW42174   5.741   5.221   0.209 -0.3045 -0.3581  0.1434
13798SOL    HW142175   5.668   5.224   0.272 -0.1656  0.2396  0.2835
13798SOL    HW242176   5.817   5.198   0.262 -0.2848 -0.3877  0.1019
13799SOL     OW42177   6.577   8.047   6.675 -0.7711  0.1835 -0.1912
13799SOL    HW142178   6.564   8.095   6.757 -0.7062 -0.7511  0.3677
13799SOL    HW242179   6.535   8.103   6.609  0.8870  1.9309  0.1343
13800SOL     OW42180   0.318   2.597   3.614 -0.4397 -0.6808 -0.2953
13800SOL    HW142181   0.225   2.618   3.628 -1.4055 -3.2876 -1.9616
13800SOL    HW242182   0.325   2.579   3.520  1.9967  0.3094 -0.3705
13801SOL     OW42183   0.765   7.243   4.268  0.0184  0.7598 -0.2296
13801SOL    HW142184   0.765   7.332   4.303  1.3155  0.0277  1.9022
13801SOL    HW242185   0.858   7.221   4.261 -0.2213  0.2390 -2.7420
13802SOL     OW42186   5.933   6.692   2.301 -0.3328 -0.1473  0.1017
13802SOL    HW142187   5.957   6.717   2.211 -0.1012  1.1419  0.5043
13802SOL    HW242188   5.968   6.603   2.311  4.3122  1.4317  0.5593
13803SOL     OW42189   3.014   3.431   0.114 -0.2631  0.0382  0.7072
13803SOL    HW142190   2.928   3.444   0.075  0.0511 -0.5030 -0.2136
13803SOL    HW242191   3.006   3.463   0.203 -1.3941  0.0691  0.6030
13804SOL     OW42192   0.521   3.577   7.623 -0.2889 -0.3075 -0.3321
13804SOL    HW142193   0.590   3.526   7.581  0.3270  0.3816 -0.1766
13804SOL    HW242194   0.515   3.657   7.571  0.2763  0.4242  0.6984
13805SOL     OW42195   5.520   7.656   5.461 -0.1015  0.2350 -0.7146
13805SOL    HW142196   5.439   7.655   5.511 -0.0718 -2.7185 -0.5583
13805SOL    HW242197   5.510   7.731   5.401 -3.6656 -0.9360 -1.8276
13806SOL     OW42198   4.010   0.687   6.664  0.1145 -0.1385 -0.1604
13806SOL    HW142199   4.002   0.776   6.629 -1.0158  0.1714  0.8318
13806SOL    HW242200   3.945   0.637   6.615 -1.1238  0.1889  1.0965
13807SOL     OW42201   2.438   4.150   2.674  0.1730  0.3047  0.0276
13807SOL    HW142202   2.455   4.061   2.706  3.3931  0.1533 -1.6746
13807SOL    HW242203   2.393   4.137   2.590 -0.6183  0.3659  0.4351
13808SOL     OW42204   4.273   0.576   7.304  0.2297 -0.1781 -0.2969
13808SOL    HW142205   4.321   0.533   7.233 -0.0350 -0.2913 -0.4123
13808SOL    HW242206   4.203   0.624   7.259  0.5634  0.4214 -0.1689
13809SOL     OW42207   2.658   1.769   0.089 -0.3462 -0.2495  0.0312
13809SOL    HW142208   2.621   1.688   0.124  0.6394  0.2603  2.4548
13809SOL    HW242209   2.643   1.834   0.158 -0.2001  1.4109 -1.4274
13810SOL     OW42210   5.084   0.214   2.045  0.7232  0.3493  0.3369
13810SOL    HW142211   5.162   0.254   2.008  0.6184  0.5041  0.2832
13810SOL    HW242212   5.020   0.214   1.973 -0.4659  3.2396  1.2530
13811SOL     OW42213   3.906   4.085   5.587  0.0493  0.4130  0.7009
13811SOL    HW142214   3.997   4.107   5.609 -0.5976  3.1258  1.0026
13811SOL    HW242215   3.889   4.132   5.505 -1.7181  1.9792  1.8645
13812SOL     OW42216   5.126   7.201   6.245  0.3814  0.3784 -0.1636
13812SOL    HW142217   5.124   7.188   6.150 -0.1606 -0.5386 -0.0424
13812SOL    HW242218   5.214   7.176   6.270  0.9542  1.8663 -0.5656
13813SOL     OW42219   7.280   5.612   6.999 -0.1984  0.2159 -0.3020
13813SOL    HW142220   7.331   5.627   7.078 -1.1340  0.5254  0.2572
13813SOL    HW242221   7.285   5.695   6.951 -0.3135  0.2931 -0.1772
13814SOL     OW42222   5.503   1.395   7.268 -0.1549  0.4477 -0.3269
13814SOL    HW142223   5.440   1.463   7.245  1.7973  1.9649 -1.4657
13814SOL    HW242224   5.494   1.385   7.363 -1.3264  1.4045 -0.3163
13815SOL     OW42225   4.771   3.607   0.715  0.3731 -0.0106 -0.7316
13815SOL    HW142226   4.717   3.563   0.781 -0.4788  0.2073 -1.2703
13815SOL    HW242227   4.820   3.536   0.672 -0.6687 -0.3977 -1.3047
13816SOL     OW42228   1.778   6.577   5.772 -0.2867  0.7142  0.2653
13816SOL    HW142229   1.751   6.666   5.795 -0.1365  0.7377  0.3538
13816SOL    HW242230   1.850   6.589   5.710  1.1978  0.7016  1.9000
13817SOL     OW42231   3.481   5.030   0.796 -0.0449  0.6164  0.1555
13817SOL    HW142232   3.430   4.999   0.870 -0.6110 -0.8223 -0.8168
13817SOL    HW242233   3.476   5.126   0.803  0.2071  0.5365  2.1481
13818SOL     OW42234   2.704   4.636   3.376  0.8322 -0.2534 -0.3076
13818SOL    HW142235   2.665   4.634   3.463  0.8177  1.6441 -0.2320
13818SOL    HW242236   2.675   4.554   3.335  0.3419 -0.8881  1.2449
13819SOL     OW42237   4.407   4.595   5.599 -0.5454 -0.1245 -0.0128
13819SOL    HW142238   4.329   4.560   5.555 -1.2827  1.2288  0.1693
13819SOL    HW242239   4.466   4.617   5.527 -0.9439  0.2297 -0.2400
13820SOL     OW42240   7.648   4.818   3.940 -0.3582 -0.3017 -0.5455
13820SOL    HW142241   7.695   4.835   4.022 -1.4345  0.2926 -0.0157
13820SOL    HW242242   7.682   4.735   3.909  0.0285 -0.5730  0.5506
13821SOL     OW42243   1.488   2.052   7.583  0.1314 -0.4743 -0.2943
13821SOL    HW142244   1.485   1.958   7.603 -0.6945 -0.6154 -1.0281
13821SOL    HW242245   1.512   2.056   7.491 -0.5845  0.0056 -0.4673
13822SOL     OW42246   2.836   0.190   3.412  0.0286 -0.2526  0.3147
13822SOL    HW142247   2.833   0.252   3.338 -1.8934 -0.0864  0.4974
13822SOL    HW242248   2.807   0.107   3.374  1.1465 -0.7113  0.4219
13823SOL     OW42249   6.136   3.449   7.765 -0.0714  0.7239  0.1124
13823SOL    HW142250   6.206   3.448   7.699 -0.1805 -0.2714 -0.0000
13823SOL    HW242251   6.065   3.499   7.723 -0.4528 -0.5785 -0.8911
13824SOL     OW42252   2.805   3.879   4.093 -0.4936 -0.0739  0.5048
13824SOL    HW142253   2.750   3.842   4.163 -1.3529  0.6384  0.2288
13824SOL    HW242254   2.867   3.936   4.139 -2.5910  2.3223  0.6024
13825SOL     OW42255   6.089   3.447   4.589  0.1568  0.2125 -0.1546
13825SOL    HW142256   6.157   3.403   4.539 -0.1180  0.5435 -0.8336
13825SOL    HW242257   6.009   3.399   4.569  0.5100 -1.7570  2.5737
13826SOL     OW42258   4.560   6.345   7.860 -0.4463  0.3340  0.1671
13826SOL    HW142259   4.615   6.418   7.830  0.7802 -1.3836 -2.0953
13826SOL    HW242260   4.528   6.372   7.946  2.7304  2.0753  0.9279
13827SOL     OW42261   3.352   0.727   6.080  0.0374 -0.2328  0.0593
13827SOL    HW142262   3.440   0.740   6.116  0.4000 -1.8755 -0.1344
13827SOL    HW242263   3.355   0.767   5.993  0.1804  0.8537  0.5536
13828SOL     OW42264   1.521   6.004   1.757 -0.0932  0.6331  0.0538
13828SOL    HW142265   1.439   6.053   1.765  0.4214  1.2843  1.6710
13828SOL    HW242266   1.519   5.942   1.829  0.8255  0.6408  0.0953
13829SOL     OW42267   1.398   2.177   3.476 -0.2874 -0.3272  0.6409
13829SOL    HW142268   1.423   2.101   3.423  0.4240  0.7796 -0.6891
13829SOL    HW242269   1.476   2.198   3.526 -0.1679  0.0782  0.2945
13830SOL     OW42270   6.997   7.018   1.495  0.0633 -0.1955  0.4489
13830SOL    HW142271   7.052   7.079   1.545 -1.7872  0.1599  2.2278
13830SOL    HW242272   7.024   7.030   1.404  2.6319  0.1812  1.1840
13831SOL     OW42273   1.457   7.652   0.944 -0.0022  0.7783 -0.4884
13831SOL    HW142274   1.538   7.629   0.989 -1.1152 -1.6428  0.4993
13831SOL    HW242275   1.408   7.704   1.008 -0.5854 -0.6532  0.2916
13832SOL     OW42276   2.359   8.098   0.905  0.1501 -0.0649  0.2763
13832SOL    HW142277   2.429   8.159   0.928  0.0109  0.4789 -0.6966
13832SOL    HW242278   2.342   8.051   0.986 -0.1909  1.6294  1.2427
13833SOL     OW42279   6.798   3.487   7.734 -0.2118 -0.2216 -0.2262
13833SOL    HW142280   6.884   3.500   7.776 -0.1977 -1.6018  0.2164
13833SOL    HW242281   6.786   3.566   7.681  0.5789  0.7602  0.9903
13834SOL     OW42282   4.463   5.444   1.174 -0.1123  0.0472 -0.3308
13834SOL    HW142283   4.514   5.437   1.255  0.8835 -1.2403 -1.0320
13834SOL    HW242284   4.382   5.396   1.192  0.8938 -1.8508 -0.6553
13835SOL     OW42285   6.825   6.040   5.632  0.6181  0.3810  0.3912
13835SOL    HW142286   6.794   5.980   5.565  0.7077 -1.6321  2.0600
13835SOL    HW242287   6.911   6.069   5.601 -0.0739  0.8537 -1.1425
13836SOL     OW42288   0.809   5.996   3.882  0.1438 -0.4814  0.5853
13836SOL    HW142289   0.762   5.914   3.862 -0.7609 -0.1396  1.2325
13836SOL    HW242290   0.766   6.062   3.827 -0.8969  0.0388  1.9630
13837SOL     OW42291   5.202   5.280   4.809  0.1046  0.3656 -0.1312
13837SOL    HW142292   5.256   5.350   4.772  1.9748 -1.2127 -0.5246
13837SOL    HW242293   5.167   5.235   4.732 -0.8669  0.6583  0.1214
13838SOL     OW42294   5.683   7.725   8.283  0.2152  0.0662 -0.2268
13838SOL    HW142295   5.745   7.798   8.291 -0.6988  0.8270  0.0381
13838SOL    HW242296   5.705   7.685   8.199 -0.6524  1.9848 -1.4531
13839SOL     OW42297   3.471   2.889   6.310  0.4783  0.2247 -0.4206
13839SOL    HW142298   3.532   2.940   6.257  0.2706  2.6252  1.4558
13839SOL    HW242299   3.399   2.869   6.251  0.4205  2.4713 -1.2141
13840SOL     OW42300   7.000   3.450   4.658  0.1537 -0.2789 -0.5660
13840SOL    HW142301   7.022   3.357   4.663  0.3673 -0.2415 -0.7962
13840SOL    HW242302   7.082   3.494   4.638 -0.1607 -0.1649 -1.6641
13841SOL     OW42303   5.519   7.304   7.320  0.2544  0.0775 -0.2802
13841SOL    HW142304   5.451   7.236   7.324 -0.4546  0.5598 -2.6377
13841SOL    HW242305   5.600   7.255   7.307 -0.1215 -0.3845 -0.9748
13842SOL     OW42306   0.611   2.064   2.764 -0.2597  0.1228 -0.0716
13842SOL    HW142307   0.617   2.009   2.843  0.7912  1.8699  1.1424
13842SOL    HW242308   0.696   2.054   2.722  0.6651  2.1142  1.1480
13843SOL     OW42309   0.121   1.781   4.689 -0.0630 -0.0729  0.2210
13843SOL    HW142310   0.204   1.775   4.643 -0.0705  2.2073 -0.1898
13843SOL    HW242311   0.081   1.861   4.656 -1.9684 -0.5750  1.1664
13844SOL     OW42312   6.823   7.421   1.767 -0.2643  0.1165 -0.1210
13844SOL    HW142313   6.846   7.514   1.779 -1.9746  0.5793 -0.1538
13844SOL    HW242314   6.841   7.404   1.675  0.1959  0.3744 -0.0815
13845SOL     OW42315   0.695   2.900   6.978 -0.2996 -0.1532 -0.0482
13845SOL    HW142316   0.650   2.868   7.056  0.0753 -1.2690 -0.2712
13845SOL    HW242317   0.744   2.825   6.945  0.9417  0.7525 -0.3763
13846SOL     OW42318   4.257   6.059   0.871 -0.4031  0.3054  0.2189
13846SOL    HW142319   4.265   6.092   0.961  1.7473 -0.6800  0.4575
13846SOL    HW242320   4.345   6.068   0.834 -1.2503  0.7455 -1.8446
13847SOL     OW42321   6.776   2.189   2.766 -0.0010 -0.4837  0.1410
13847SOL    HW142322   6.738   2.156   2.847  0.0478 -0.5834  0.1239
13847SOL    HW242323   6.758   2.283   2.767  0.7098 -0.3495  0.6506
13848SOL     OW42324   7.050   7.821   4.470 -0.7912  0.0461  0.2858
13848SOL    HW142325   7.144   7.816   4.449 -0.6946  0.4062  0.6172
13848SOL    HW242326   7.008   7.838   4.386 -0.4636  0.8690  0.2791
13849SOL     OW42327   7.872   3.891   3.141  0.5278 -0.0853  0.3179
13849SOL    HW142328   7.905   3.801   3.134 -0.2559 -0.2834 -1.7927
13849SOL    HW242329   7.777   3.882   3.130  0.5802  1.0945 -1.5821
13850SOL     OW42330   3.387   5.874   2.441 -0.4688 -0.0811 -0.2794
13850SOL    HW142331   3.356   5.785   2.423 -0.2865 -0.2723  0.3045
13850SOL    HW242332   3.424   5.868   2.529 -0.5269  0.5949 -0.2061
13851SOL     OW42333   6.780   6.419   7.967  0.4539  0.2148 -0.0467
13851SOL    HW142334   6.701   6.365   7.962 -0.6467  1.2137  3.4889
13851SOL    HW242335   6.758   6.498   7.918  0.7372 -0.9504 -2.1870
13852SOL     OW42336   2.553   2.153   3.333 -0.2716 -0.1582  0.3163
13852SOL    HW142337   2.469   2.114   3.312 -0.5141  0.6538 -0.2851
13852SOL    HW242338   2.570   2.214   3.261  0.0878  0.8406  1.2114
13853SOL     OW42339   8.003   0.919   8.007  0.0295 -0.5884 -0.0889
13853SOL    HW142340   8.060   0.940   7.933  0.5562 -0.6319  0.2968
13853SOL    HW242341   8.063   0.913   8.082 -0.3877 -1.3788  0.1862
13854SOL     OW42342   1.329   7.066   4.383  0.1142  0.0764 -0.2649
13854SOL    HW142343   1.371   7.133   4.328  0.1163  0.0520 -0.2926
13854SOL    HW242344   1.322   7.107   4.469  1.3544 -0.3836  0.0782
13855SOL     OW42345   3.161   5.240   8.106 -0.0655 -0.8845 -0.0776
13855SOL    HW142346   3.183   5.293   8.182 -0.4355 -1.6092  0.5444
13855SOL    HW242347   3.236   5.182   8.094  1.1710  0.9649 -1.8748
13856SOL     OW42348   5.066   3.662   4.523  0.3752  0.2774  0.0319
13856SOL    HW142349   5.030   3.624   4.603 -0.1131  1.1381  0.2422
13856SOL    HW242350   5.153   3.694   4.548  0.4590  0.0215  0.0660
13857SOL     OW42351   7.762   6.765   0.106  0.0183 -0.1130  0.3960
13857SOL    HW142352   7.680   6.815   0.107  0.5796  0.8168  0.3466
13857SOL    HW242353   7.779   6.744   0.198 -0.2699 -0.3043  0.4066
13858SOL     OW42354   5.638   7.672   0.853 -0.3333  0.1109  0.3078
13858SOL    HW142355   5.608   7.751   0.898  1.0662 -0.0684  1.6280
13858SOL    HW242356   5.727   7.692   0.824 -0.6927 -0.2979 -1.1617
13859SOL     OW42357   1.031   4.385   0.662 -0.3036  0.3886 -0.3794
13859SOL    HW142358   0.949   4.353   0.624 -0.2155  1.5925 -1.6722
13859SOL    HW242359   1.088   4.309   0.666 -0.8942 -0.0987 -1.1237
13860SOL     OW42360   8.243   0.533   6.805 -0.1254  0.4074 -0.0838
13860SOL    HW142361   8.252   0.616   6.853  0.4044  0.4628 -0.2706
13860SOL    HW242362   8.207   0.558   6.720 -0.8954  0.3299  0.2157
13861SOL     OW42363   0.590   1.093   3.717  0.7020 -0.4033  0.5499
13861SOL    HW142364   0.592   1.130   3.629  2.1641  0.2245  0.8302
13861SOL    HW242365   0.524   1.024   3.712 -0.6042  0.8664 -0.5265
13862SOL     OW42366   5.465   5.201   6.226 -0.6608 -0.1811 -0.0779
13862SOL    HW142367   5.389   5.217   6.281 -0.3122 -0.9189  0.6606
13862SOL    HW242368   5.534   5.174   6.288  0.8161  2.3650 -0.4720
13863SOL     OW42369   6.088   4.748   5.749  0.0513 -0.0726 -0.7891
13863SOL    HW142370   5.995   4.726   5.759  0.1165  0.7523  3.0096
13863SOL    HW242371   6.089   4.823   5.691 -1.7665  0.3493 -0.3342
13864SOL     OW42372   7.624   6.505   2.842  0.0096  0.6925 -0.7915
13864SOL    HW142373   7.659   6.517   2.754  1.1862  1.8657 -0.1998
13864SOL    HW242374   7.679   6.437   2.881 -0.8908 -0.2596 -1.1334
13865SOL     OW42375   1.288   2.717   1.504 -0.5271 -0.5018 -0.3313
13865SOL    HW142376   1.221   2.654   1.476  1.2764 -1.4947 -2.8939
13865SOL    HW242377   1.358   2.662   1.541  0.6092  0.0023 -1.6150
13866SOL     OW42378   6.484   2.998   6.112 -0.5551 -0.5139  0.0782
13866SOL    HW142379   6.466   2.943   6.188 -2.5547 -1.3664 -0.9523
13866SOL    HW242380   6.458   3.086   6.139 -1.0757 -0.7770  0.4373
13867SOL     OW42381   0.624   4.008   0.433  0.3538 -0.1406  0.4322
13867SOL    HW142382   0.665   4.094   0.432  0.0700 -0.0059  0.3667
13867SOL    HW242383   0.697   3.946   0.424  0.7067  0.0378  1.8451
13868SOL     OW42384   6.260   2.917   7.130 -0.5440  0.0391  0.5524
13868SOL    HW142385   6.301   2.840   7.089 -0.6475  0.9007 -1.2740
13868SOL    HW242386   6.182   2.933   7.077  1.0288  3.1576 -1.0992
13869SOL     OW42387   7.420   4.026   3.396  0.0434  0.2114  0.2192
13869SOL    HW142388   7.348   4.076   3.356  0.0232  0.2344  0.2847
13869SOL    HW242389   7.492   4.089   3.404  1.2837 -0.5974 -3.0311
13870SOL     OW42390   7.164   3.614   7.009 -0.1847  0.2501  0.1966
13870SOL    HW142391   7.098   3.676   7.038 -0.5309 -0.5340  1.1486
13870SOL    HW242392   7.246   3.662   7.011 -0.6731  1.1490 -0.7039
13871SOL     OW42393   5.808   1.733   4.412 -0.4637 -0.2067 -0.4395
13871SOL    HW142394   5.858   1.741   4.331 -2.4821 -0.1894 -1.7469
13871SOL    HW242395   5.766   1.818   4.424 -0.0079 -0.1306  0.7709
13872SOL     OW42396   7.456   2.943   6.555  0.2332  0.1228  0.0764
13872SOL    HW142397   7.544   2.920   6.526  0.9543  1.7693  0.8195
13872SOL    HW242398   7.455   2.919   6.648 -0.3199 -0.4147 -0.0597
13873SOL     OW42399   8.004   2.380   3.836  0.4266 -0.5003 -0.2844
13873SOL    HW142400   8.073   2.365   3.901  0.7175 -1.0410 -0.7000
13873SOL    HW242401   8.032   2.328   3.760  0.4603  0.6495 -1.1002
13874SOL     OW42402   7.192   4.469   0.094 -0.0852 -0.4731  0.2122
13874SOL    HW142403   7.169   4.500   0.006  0.0868  1.4580  0.8006
13874SOL    HW242404   7.109   4.438   0.130 -0.0184 -2.0710 -0.8734
13875SOL     OW42405   5.137   2.861   6.257  0.1635 -0.2744  0.3813
13875SOL    HW142406   5.072   2.925   6.287 -0.1103 -0.1934 -0.3687
13875SOL    HW242407   5.209   2.914   6.225 -0.4046 -0.3001 -1.0129
13876SOL     OW42408   1.988   5.275   8.238 -0.3011  0.5497  0.5392
13876SOL    HW142409   1.975   5.243   8.327  1.7453 -0.7458  0.4440
13876SOL    HW242410   1.932   5.219   8.184  0.0489 -0.0747  0.8139
13877SOL     OW42411   2.592   7.498   3.706 -0.4393 -0.3082  0.4180
13877SOL    HW142412   2.540   7.436   3.656  0.0131  0.0473 -0.5130
13877SOL    HW242413   2.683   7.475   3.687 -0.1181 -2.1645  3.5252
13878SOL     OW42414   2.317   1.491   0.813 -0.1104 -0.4729  0.5161
13878SOL    HW142415   2.375   1.499   0.737 -0.4827  1.7839  0.3890
13878SOL    HW242416   2.312   1.397   0.830  2.5219 -0.8148 -0.2457
13879SOL     OW42417   1.124   2.186   3.499  0.0020  0.0913 -0.2970
13879SOL    HW142418   1.138   2.230   3.583 -1.7291 -0.3238  0.2335
13879SOL    HW242419   1.204   2.205   3.450  0.0922  2.3243  0.5548
13880SOL     OW42420   4.782   0.504   4.328 -0.6080 -0.5862 -0.2329
13880SOL    HW142421   4.737   0.451   4.393  0.3835  0.4675  1.3988
13880SOL    HW242422   4.838   0.563   4.380 -0.4023  0.8765 -2.0065
13881SOL     OW42423   5.217   3.824   1.059 -0.1873 -0.1330 -0.5054
13881SOL    HW142424   5.252   3.832   0.970  0.5905 -0.5146 -0.2450
13881SOL    HW242425   5.180   3.735   1.062  1.3699 -0.8070  0.0690
13882SOL     OW42426   7.725   7.589   6.663 -0.2941  0.1363  0.2445
13882SOL    HW142427   7.646   7.597   6.609 -0.2224 -1.0275 -0.0528
13882SOL    HW242428   7.797   7.597   6.600 -0.2097 -1.2525  0.1454
13883SOL     OW42429   6.458   6.648   3.227 -0.2069 -0.1016 -0.1874
13883SOL    HW142430   6.441   6.722   3.169 -3.0417 -1.1410 -0.8533
13883SOL    HW242431   6.422   6.674   3.312 -0.9235 -0.5717 -0.3398
13884SOL     OW42432   1.117   3.886   6.140 -0.1832 -0.2883  0.1851
13884SOL    HW142433   1.141   3.816   6.080  2.1230 -0.5243  1.3051
13884SOL    HW242434   1.102   3.962   6.083  0.6651 -0.8264 -0.7827
13885SOL     OW42435   7.053   7.836   1.586  0.8319  0.1404 -0.3556
13885SOL    HW142436   7.060   7.796   1.499  0.4119  0.8091 -0.7020
13885SOL    HW242437   7.087   7.924   1.575 -1.0603  0.9250 -0.3398
13886SOL     OW42438   3.119   0.598   1.415  0.0533 -0.1221  0.0623
13886SOL    HW142439   3.065   0.536   1.462 -1.3985  0.2621 -1.0305
13886SOL    HW242440   3.096   0.683   1.451 -0.2545  0.0648 -0.5512
13887SOL     OW42441   0.799   6.490   2.403  0.5139  0.0502 -0.0522
13887SOL    HW142442   0.862   6.556   2.375  0.9889 -0.0231  0.8140
13887SOL    HW242443   0.789   6.505   2.497 -0.5947 -0.0824 -0.1311
13888SOL     OW42444   2.826   6.427   4.994 -0.3959 -0.2016 -0.0484
13888SOL    HW142445   2.912   6.440   5.034 -1.0262  1.1319  0.9748
13888SOL    HW242446   2.793   6.346   5.034  0.2440 -0.5515 -0.2164
13889SOL     OW42447   7.217   2.512   6.507 -0.5095  0.3337  0.2016
13889SOL    HW142448   7.196   2.549   6.422 -0.8772 -1.3355 -0.4781
13889SOL    HW242449   7.306   2.541   6.525 -0.8029  1.5562 -0.2590
13890SOL     OW42450   7.133   4.216   7.872  0.1380  0.2118 -0.0126
13890SOL    HW142451   7.128   4.291   7.932  0.9912  0.2657  0.0055
13890SOL    HW242452   7.189   4.153   7.917 -0.9328 -0.6410  0.1721
13891SOL     OW42453   7.911   4.228   6.412  0.0784 -0.8158 -0.4775
13891SOL    HW142454   8.004   4.208   6.424 -0.2638 -2.6374 -0.5083
13891SOL    HW242455   7.884   4.264   6.497  0.3896 -2.1906  0.2448
13892SOL     OW42456   0.055   4.020   1.024 -0.3732 -0.7606 -0.1645
13892SOL    HW142457   0.045   4.087   1.092 -0.0654 -0.0515 -0.8017
13892SOL    HW242458   0.059   4.070   0.943  0.5912 -1.5232 -0.5928
13893SOL     OW42459   6.891   4.421   3.978 -0.1242  0.1938  0.8310
13893SOL    HW142460   6.953   4.479   4.022  1.3585 -0.9418  0.3271
13893SOL    HW242461   6.946   4.359   3.929 -1.6694 -0.4640 -0.1652
13894SOL     OW42462   2.074   2.866   0.251  0.4233 -0.0461  0.0514
13894SOL    HW142463   2.137   2.857   0.322  1.0287 -1.6393 -0.6354
13894SOL    HW242464   2.020   2.787   0.257 -2.4024  1.8202  1.3839
13895SOL     OW42465   7.630   0.329   3.188  0.0160  0.0425 -0.0794
13895SOL    HW142466   7.620   0.279   3.268 -2.0691 -0.4944 -0.6083
13895SOL    HW242467   7.593   0.273   3.120  0.2052  1.1678 -1.1463
13896SOL     OW42468   4.485   6.741   1.204 -0.2982 -0.1888 -0.6348
13896SOL    HW142469   4.421   6.769   1.138 -1.0029  0.1843  0.1814
13896SOL    HW242470   4.449   6.659   1.237  0.3841 -0.7088 -1.1419
13897SOL     OW42471   0.201   6.715   0.994  0.5719  0.1709 -0.3091
13897SOL    HW142472   0.193   6.730   0.900  1.1175  0.6305 -0.2883
13897SOL    HW242473   0.175   6.623   1.006 -0.8870  0.5089 -0.7051
13898SOL     OW42474   2.634   2.214   4.116  0.4228 -0.6818  0.4427
13898SOL    HW142475   2.650   2.294   4.065  1.9577 -1.7781 -0.8843
13898SOL    HW242476   2.702   2.154   4.088 -0.2795 -2.2403  1.9376
13899SOL     OW42477   8.275   5.171   7.110 -0.2008  0.5524 -0.2782
13899SOL    HW142478   8.198   5.226   7.094 -0.1474  1.0627  1.1416
13899SOL    HW242479   8.253   5.087   7.070 -0.7007  1.2692 -1.5719
13900SOL     OW42480   5.002   4.013   2.035  0.8866 -0.1912 -0.5357
13900SOL    HW142481   5.087   4.047   2.005  1.6177  1.5091  2.8686
13900SOL    HW242482   4.937   4.060   1.984  1.9730  0.0714 -1.7212
13901SOL     OW42483   0.740   3.379   0.285  0.8337 -0.0702  0.1796
13901SOL    HW142484   0.726   3.454   0.226  0.6696  0.9481  1.4798
13901SOL    HW242485   0.784   3.314   0.230  1.8160  1.3227 -0.7469
13902SOL     OW42486   8.193   7.648   0.190 -0.0847  0.5271 -0.0034
13902SOL    HW142487   8.239   7.706   0.252 -0.1571  2.1975 -1.4227
13902SOL    HW242488   8.185   7.700   0.110 -2.5638 -0.4832 -0.5102
13903SOL     OW42489   2.195   2.844   0.477 -0.5394  0.1538  0.3527
13903SOL    HW142490   2.290   2.854   0.473 -0.0146 -3.5748 -0.1879
13903SOL    HW242491   2.179   2.798   0.559 -1.8704  0.5392  0.3325
13904SOL     OW42492   1.000   5.417   0.738 -0.1617  0.1807  0.2732
13904SOL    HW142493   1.061   5.344   0.744  0.7092  0.7964 -0.6582
13904SOL    HW242494   1.049   5.492   0.774 -1.5894  0.0453  2.7136
13905SOL     OW42495   6.932   5.624   6.468  0.1692  0.1954 -0.4184
13905SOL    HW142496   6.846   5.584   6.458  0.5780 -0.6789 -0.5399
13905SOL    HW242497   6.940   5.643   6.561  0.1429 -0.4093 -0.2920
13906SOL     OW42498   2.390   5.543   5.442  0.1565  0.0054 -0.5893
13906SOL    HW142499   2.312   5.557   5.496 -1.0688 -0.7560 -2.0719
13906SOL    HW242500   2.375   5.598   5.365  1.4720  0.4320 -0.5711
13907SOL     OW42501   7.419   4.254   5.436  0.4114  0.3510  0.7103
13907SOL    HW142502   7.350   4.222   5.495  0.4727 -1.7617 -0.2867
13907SOL    HW242503   7.374   4.314   5.377  0.1424  1.6703  2.1926
13908SOL     OW42504   3.223   4.589   4.013 -0.0286 -0.3217  0.5739
13908SOL    HW142505   3.298   4.626   4.059 -0.8200  0.6638  1.1157
13908SOL    HW242506   3.203   4.653   3.944 -0.1347 -0.7742  0.1746
13909SOL     OW42507   2.024   0.971   5.728  0.1321 -0.1210 -0.1832
13909SOL    HW142508   1.943   1.019   5.745 -0.2910 -1.5257  2.1869
13909SOL    HW242509   2.029   0.906   5.798  3.1810 -0.2812 -0.4085
13910SOL     OW42510   5.939   6.388   5.805 -0.2594 -0.0797  0.4775
13910SOL    HW142511   6.008   6.426   5.859 -1.1201  1.1455  0.7453
13910SOL    HW242512   5.869   6.367   5.868 -0.8245  0.3235 -0.0126
13911SOL     OW42513   1.335   1.116   1.056  0.3447 -0.0621  0.0147
13911SOL    HW142514   1.250   1.156   1.039  1.1294  0.7637 -2.2711
13911SOL    HW242515   1.360   1.150   1.142 -1.2693  0.2753  0.3808
13912SOL     OW42516   6.791   0.882   2.494  0.7581  0.0124  0.2067
13912SOL    HW142517   6.775   0.830   2.572  0.5828  0.2544  0.3347
13912SOL    HW242518   6.746   0.835   2.424  0.6805 -0.0593  0.3045
13913SOL     OW42519   1.604   6.163   5.176  0.1314 -0.2353  0.0946
13913SOL    HW142520   1.655   6.084   5.159 -1.8824 -1.3482 -1.1735
13913SOL    HW242521   1.638   6.195   5.260  1.4768 -2.0415  0.3178
13914SOL     OW42522   7.516   5.714   3.643 -0.8266  0.2967 -0.8885
13914SOL    HW142523   7.447   5.780   3.650 -0.1122  1.0126 -0.5169
13914SOL    HW242524   7.595   5.763   3.624  0.4210  0.0057  2.7280
13915SOL     OW42525   0.094   0.913   7.654  0.0310  0.8991 -0.0166
13915SOL    HW142526   0.147   0.967   7.713  0.4953 -1.6890  2.1308
13915SOL    HW242527   0.158   0.868   7.599 -0.2196  1.0788 -0.4561
13916SOL     OW42528   0.084   2.677   6.565 -0.6806  0.0807 -0.3964
13916SOL    HW142529   0.112   2.749   6.622  0.9711 -1.3317  0.7041
13916SOL    HW242530  -0.007   2.662   6.589  0.1008 -0.8635  2.4875
13917SOL     OW42531   6.278   2.008   2.676  0.0034  0.2692 -0.6010
13917SOL    HW142532   6.355   2.061   2.697  0.3473  0.6071 -2.5347
13917SOL    HW242533   6.305   1.956   2.601 -0.9930 -1.2008  0.0138
13918SOL     OW42534   2.839   4.979   3.010  0.0552 -0.2259 -0.4317
13918SOL    HW142535   2.878   5.053   3.057  0.7307  0.2715 -1.7267
13918SOL    HW242536   2.805   4.922   3.079  0.1206  0.9606  0.6176
13919SOL     OW42537   1.993   5.266   0.987 -0.3773  0.5706  0.2318
13919SOL    HW142538   1.943   5.299   1.061  0.8166  0.3119  1.2032
13919SOL    HW242539   1.998   5.171   1.001 -0.8949  0.3968 -0.6758
13920SOL     OW42540   1.737   0.486   5.895 -0.2873 -0.2672  0.2406
13920SOL    HW142541   1.662   0.432   5.868 -0.3933 -0.9326  1.7432
13920SOL    HW242542   1.797   0.483   5.821  0.1065 -3.2259  0.5513
13921SOL     OW42543   4.603   5.083   6.902  0.9671 -0.1892 -0.7155
13921SOL    HW142544   4.580   5.019   6.835  0.2400  0.0684 -0.7244
13921SOL    HW242545   4.699   5.087   6.900  1.0181 -1.1138 -0.8607
13922SOL     OW42546   4.246   5.073   0.896 -0.2370 -0.3825 -0.2136
13922SOL    HW142547   4.208   5.161   0.893 -0.5271 -0.4894  0.2007
13922SOL    HW242548   4.182   5.018   0.849 -1.5117 -0.8786  1.9627
13923SOL     OW42549   5.011   3.642   7.334 -0.4408 -0.4373 -0.2176
13923SOL    HW142550   4.996   3.550   7.355  1.3342 -0.6916  0.0883
13923SOL    HW242551   5.081   3.641   7.268 -2.1794  0.6034 -2.2268
13924SOL     OW42552   7.707   6.509   5.213  0.4514 -0.2379  0.6381
13924SOL    HW142553   7.759   6.430   5.198  1.1888  0.4027 -0.2753
13924SOL    HW242554   7.650   6.515   5.136  0.1103 -0.0999  0.8999
13925SOL     OW42555   6.045   1.888   2.780 -0.5659  0.1492 -0.3555
13925SOL    HW142556   6.127   1.927   2.752  0.4498 -2.8721 -2.1418
13925SOL    HW242557   6.015   1.942   2.853  1.2016  3.3733 -1.8369
13926SOL     OW42558   3.877   2.075   7.472  0.3156 -0.8861  0.4803
13926SOL    HW142559   3.844   2.147   7.526  0.1864 -0.9127  0.4362
13926SOL    HW242560   3.961   2.051   7.513  0.5732 -0.4208  0.2418
13927SOL     OW42561   6.529   6.816   6.931 -0.0978  0.3100 -0.1971
13927SOL    HW142562   6.580   6.793   6.854  0.1929  0.1125  0.0519
13927SOL    HW242563   6.551   6.907   6.949 -0.7849  0.6068 -0.8224
13928SOL     OW42564   1.709   1.410   5.609  0.2755  0.0477  0.2337
13928SOL    HW142565   1.655   1.483   5.578 -0.1061 -0.5341 -0.4859
13928SOL    HW242566   1.651   1.363   5.670 -0.0251 -0.5528 -0.5067
13929SOL     OW42567   8.024   5.797   6.311 -0.2220  0.0179  0.8408
13929SOL    HW142568   8.078   5.769   6.237 -0.1971  0.1215  0.8194
13929SOL    HW242569   8.079   5.783   6.388 -0.0727  0.3522  0.7966
13930SOL     OW42570   8.007   3.358   2.520  0.9172  0.4018  0.0262
13930SOL    HW142571   7.934   3.347   2.582  0.0764 -0.3661 -1.0673
13930SOL    HW242572   7.992   3.292   2.453  2.0247  0.9733 -0.8209
13931SOL     OW42573   3.918   1.246   7.626  0.2931  0.1532  0.9061
13931SOL    HW142574   3.856   1.312   7.657  1.1427  0.6264  1.6604
13931SOL    HW242575   3.966   1.290   7.555 -0.6473 -0.4301 -0.1190
13932SOL     OW42576   7.592   4.144   6.443  0.0335 -0.7615 -0.3713
13932SOL    HW142577   7.513   4.197   6.432  0.6108  0.6273  1.5921
13932SOL    HW242578   7.642   4.158   6.363 -1.1619 -0.7250 -1.1318
13933SOL     OW42579   7.868   2.434   7.140  0.6653 -0.3477  0.0489
13933SOL    HW142580   7.883   2.352   7.094  0.1801  0.2903 -1.2825
13933SOL    HW242581   7.805   2.412   7.209 -1.1906 -0.6840 -1.6760
13934SOL     OW42582   4.497   3.338   7.534 -0.0487 -0.0668  0.2909
13934SOL    HW142583   4.496   3.311   7.442 -0.2426  0.5286  0.1192
13934SOL    HW242584   4.453   3.422   7.536 -2.6683 -1.3564  1.3386
13935SOL     OW42585   1.325   5.986   5.988 -0.1702  0.3554  0.0409
13935SOL    HW142586   1.384   6.040   6.040  2.2031 -0.3692 -1.7083
13935SOL    HW242587   1.296   5.917   6.048  2.3148 -0.3498  0.5457
13936SOL     OW42588   2.563   8.282   4.186  0.1193 -0.4308 -0.5153
13936SOL    HW142589   2.495   8.319   4.129  1.4000 -0.0696 -1.8756
13936SOL    HW242590   2.552   8.188   4.179 -0.0561 -0.3805 -0.9642
13937SOL     OW42591   2.212   7.322   3.675  0.3431 -0.2361  0.3126
13937SOL    HW142592   2.221   7.347   3.767 -1.1676  0.4096  0.3128
13937SOL    HW242593   2.140   7.260   3.673 -0.2874  0.5007 -0.5567
13938SOL     OW42594   1.848   4.926   6.870 -0.0936 -0.2813 -0.0152
13938SOL    HW142595   1.785   4.945   6.940  1.7674  1.2089  1.3291
13938SOL    HW242596   1.863   4.832   6.877  0.6577 -0.0540  2.1692
13939SOL     OW42597   4.506   0.960   1.575 -0.3439  0.0392  0.5993
13939SOL    HW142598   4.570   0.988   1.641  0.4179  0.4977 -0.3035
13939SOL    HW242599   4.424   0.999   1.603 -0.2798 -0.6931  1.8774
13940SOL     OW42600   3.245   3.738   3.659  0.4251 -0.3806 -0.0523
13940SOL    HW142601   3.268   3.671   3.724  1.0612 -0.5877 -0.4776
13940SOL    HW242602   3.151   3.729   3.648  0.3874 -0.6970  0.4521
13941SOL     OW42603   3.220   5.942   5.081  0.3533 -0.6547  0.1140
13941SOL    HW142604   3.140   5.975   5.123  0.2315 -0.1590 -0.4894
13941SOL    HW242605   3.280   6.016   5.082  0.4102 -0.6871 -0.4203
13942SOL     OW42606   2.254   2.005   4.132 -0.4512  0.3021  0.7083
13942SOL    HW142607   2.312   2.080   4.122  0.4130  0.3674  4.5638
13942SOL    HW242608   2.295   1.953   4.201 -3.0214 -1.7020  0.8564
13943SOL     OW42609   5.509   0.174   2.639 -0.1398  0.5742  0.0157
13943SOL    HW142610   5.450   0.239   2.600 -0.4435  0.0292 -0.4549
13943SOL    HW242611   5.476   0.090   2.608  0.2934  0.1952  0.5577
13944SOL     OW42612   7.760   3.204   5.423  0.0950  0.1004  0.4905
13944SOL    HW142613   7.761   3.114   5.391 -0.2517  0.2112  0.1697
13944SOL    HW242614   7.668   3.225   5.434  0.2001 -0.3611  2.7809
13945SOL     OW42615   2.810   7.912   0.659  0.2554  0.0563  0.1686
13945SOL    HW142616   2.899   7.909   0.693  0.0388  0.3379  0.7679
13945SOL    HW242617   2.754   7.898   0.735 -0.2198 -0.0271 -0.1883
13946SOL     OW42618   3.095   5.315   7.333  0.4381  0.7795  1.0006
13946SOL    HW142619   3.081   5.340   7.241 -1.7572 -1.0334  0.7526
13946SOL    HW242620   3.014   5.341   7.377  0.5667 -0.3534  1.9533
13947SOL     OW42621   2.668   2.767   1.214 -0.1421 -0.4830  0.1389
13947SOL    HW142622   2.735   2.785   1.148  0.4641 -0.1235  0.8335
13947SOL    HW242623   2.611   2.843   1.213 -1.1195 -1.1858 -1.1035
13948SOL     OW42624   4.543   5.961   7.642  0.6761 -0.1862 -0.0290
13948SOL    HW142625   4.600   5.937   7.714 -1.0027 -2.7413  0.6142
13948SOL    HW242626   4.583   6.038   7.603  2.5383  0.2774  2.5733
13949SOL     OW42627   6.836   2.260   2.270 -0.1927 -0.1547 -0.2867
13949SOL    HW142628   6.785   2.180   2.283 -0.8389  0.3923  0.6545
13949SOL    HW242629   6.910   2.232   2.217 -1.5508 -0.9392 -1.8919
13950SOL     OW42630   0.481   4.452   0.873  0.3212 -0.1251 -0.0709
13950SOL    HW142631   0.456   4.486   0.787  0.3803  0.1874  0.0327
13950SOL    HW242632   0.573   4.477   0.882  0.7929 -1.5653 -0.5976
13951SOL     OW42633   2.092   3.110   1.640  0.1232  0.3831  0.0910
13951SOL    HW142634   2.158   3.179   1.644  1.5637 -0.9767  0.9763
13951SOL    HW242635   2.011   3.155   1.616  0.9450  2.4140  0.9268
13952SOL     OW42636   0.968   0.153   0.478  0.2373 -0.3716  0.6756
13952SOL    HW142637   0.963   0.228   0.537 -1.2356  0.5654 -0.5444
13952SOL    HW242638   0.884   0.109   0.489 -1.0857  1.1310 -2.2458
13953SOL     OW42639   6.150   1.333   5.937  0.7272 -0.0218  0.5880
13953SOL    HW142640   6.085   1.365   6.000 -0.6677  0.2506 -0.9348
13953SOL    HW242641   6.212   1.282   5.990  0.4305  1.3984  2.3805
13954SOL     OW42642   5.520   2.767   6.038  0.0054 -0.2828 -0.4568
13954SOL    HW142643   5.468   2.812   5.972  0.2148  1.6511  0.6307
13954SOL    HW242644   5.459   2.707   6.080 -0.8950  0.6337 -0.4247
13955SOL     OW42645   5.385   8.131   7.692 -0.4585  0.4296  0.6180
13955SOL    HW142646   5.382   8.059   7.629 -2.2000  0.6839  0.3622
13955SOL    HW242647   5.460   8.110   7.748  0.0138 -0.7530 -0.3935
13956SOL     OW42648   3.739   0.474   4.825 -0.1526 -0.1333  0.0409
13956SOL    HW142649   3.688   0.395   4.808 -2.3824  1.1873  0.2034
13956SOL    HW242650   3.796   0.482   4.749  0.1272 -1.8852  0.0230
13957SOL     OW42651   0.982   6.665   0.822  0.0146  0.3379 -0.3313
13957SOL    HW142652   0.943   6.751   0.804  0.6397  1.1520  1.9442
13957SOL    HW242653   1.064   6.684   0.866  0.3872 -1.4384 -0.1741
13958SOL     OW42654   7.347   6.686   4.347  0.1167 -0.2158 -0.4720
13958SOL    HW142655   7.269   6.739   4.363 -1.0959 -2.4061  1.4842
13958SOL    HW242656   7.337   6.654   4.257  0.3626  1.8827 -1.3211
13959SOL     OW42657   1.541   2.753   4.838 -0.3130 -0.0964 -0.3534
13959SOL    HW142658   1.449   2.770   4.857  0.2398  2.4308  0.4087
13959SOL    HW242659   1.539   2.703   4.756 -2.3259  0.8340 -0.9498
13960SOL     OW42660   2.096   0.222   0.132 -0.1506  0.2419  0.0472
13960SOL    HW142661   2.137   0.169   0.063  0.4705  0.7521  0.0109
13960SOL    HW242662   2.147   0.303   0.133  2.1001 -0.9894  3.3527
13961SOL     OW42663   1.865   6.470   3.205  0.3600  0.5036 -0.4666
13961SOL    HW142664   1.866   6.385   3.250 -0.5205  0.6931 -0.0708
13961SOL    HW242665   1.904   6.531   3.267 -1.2025  0.8412  0.2490
13962SOL     OW42666   0.794   3.711   6.418  0.0830 -0.0480 -0.4934
13962SOL    HW142667   0.884   3.724   6.390 -0.1829  0.5761 -1.0921
13962SOL    HW242668   0.799   3.709   6.514  0.7927 -0.5385 -0.5340
13963SOL     OW42669   1.277   5.817   0.468  0.1376 -0.0101 -0.0952
13963SOL    HW142670   1.241   5.728   0.471 -0.7788  0.3845  1.4533
13963SOL    HW242671   1.356   5.811   0.522  1.2265 -0.3283 -1.6449
13964SOL     OW42672   0.621   3.486   8.168  0.0513  0.1878  0.0908
13964SOL    HW142673   0.608   3.406   8.116 -1.6391 -0.3449  1.2332
13964SOL    HW242674   0.610   3.557   8.105  1.7401 -0.4426 -0.9763
13965SOL     OW42675   0.467   0.824   3.012 -0.2358  1.0064  0.1893
13965SOL    HW142676   0.528   0.758   3.044  0.3061  1.3426 -0.1343
13965SOL    HW242677   0.429   0.787   2.932  0.9234  1.5449 -0.6330
13966SOL     OW42678   1.001   6.687   1.697  0.0785 -0.6005  0.5290
13966SOL    HW142679   0.915   6.707   1.734 -0.3804 -0.7417 -0.4310
13966SOL    HW242680   0.985   6.615   1.637  0.6614  0.1256 -0.5163
13967SOL     OW42681   4.064   2.864   4.648 -0.3202  0.2325 -0.5988
13967SOL    HW142682   4.117   2.944   4.647 -0.2053  0.2395  1.3249
13967SOL    HW242683   4.127   2.794   4.629 -0.0984  0.4648 -0.7320
13968SOL     OW42684   0.729   1.790   0.690  0.5396  0.3741  0.0666
13968SOL    HW142685   0.777   1.765   0.611  1.4788  0.3549  0.6260
13968SOL    HW242686   0.798   1.817   0.751 -0.2894  2.4881  0.1438
13969SOL     OW42687   6.079   7.173   7.963 -0.3580  0.4366  0.5373
13969SOL    HW142688   6.112   7.210   7.881  0.3844  1.7211  1.3779
13969SOL    HW242689   6.081   7.246   8.025  0.8897 -0.9112  2.2016
13970SOL     OW42690   4.588   4.302   5.058  0.4473 -0.6752 -0.2326
13970SOL    HW142691   4.565   4.276   4.968 -0.2872 -0.8970  0.0131
13970SOL    HW242692   4.581   4.398   5.057  0.0064 -0.7061 -0.2988
13971SOL     OW42693   3.209   1.921   2.428 -0.0740  0.0705 -0.6720
13971SOL    HW142694   3.302   1.921   2.450 -0.1016  1.0542 -0.5190
13971SOL    HW242695   3.174   2.000   2.469 -1.1093 -0.6048 -0.2148
13972SOL     OW42696   4.274   5.361   7.860  0.1019  0.4162  0.1432
13972SOL    HW142697   4.187   5.357   7.900  0.6892  1.4420  1.6321
13972SOL    HW242698   4.281   5.281   7.808 -0.6044 -1.2429  2.4355
13973SOL     OW42699   5.655   2.562   1.434  0.2203 -0.0754 -0.2038
13973SOL    HW142700   5.744   2.527   1.443 -0.4298 -1.6284  0.6313
13973SOL    HW242701   5.648   2.589   1.343  2.1073  1.7737  0.1010
13974SOL     OW42702   4.644   1.290   4.049 -0.0471  0.1532  0.0480
13974SOL    HW142703   4.660   1.384   4.042 -0.7500  0.1961 -1.0568
13974SOL    HW242704   4.572   1.273   3.989  0.9003 -1.3056 -0.7177
13975SOL     OW42705   5.009   1.209   4.167  0.1383  0.0230 -0.1159
13975SOL    HW142706   5.105   1.204   4.166  0.1067 -2.8777  1.3999
13975SOL    HW242707   4.985   1.227   4.076  2.0811 -1.1081 -0.9239
13976SOL     OW42708   1.235   2.180   5.338 -0.2296 -0.3099  0.1797
13976SOL    HW142709   1.228   2.237   5.414  0.5384  1.2990 -0.9043
13976SOL    HW242710   1.155   2.195   5.288  0.0577 -0.0299 -0.2028
13977SOL     OW42711   5.211   1.927   2.558 -0.1878 -0.3814  0.1250
13977SOL    HW142712   5.200   2.011   2.515 -0.9940 -0.6214 -0.1567
13977SOL    HW242713   5.299   1.899   2.534 -0.0745  0.1792 -0.1303
13978SOL     OW42714   5.259   3.711   3.468 -0.0500 -0.1002  0.2527
13978SOL    HW142715   5.300   3.695   3.383  3.8084  0.8862  1.7193
13978SOL    HW242716   5.279   3.633   3.520  0.5252  0.6241  1.1663
13979SOL     OW42717   3.585   5.411   4.320  0.7408 -0.0652 -0.3869
13979SOL    HW142718   3.663   5.445   4.277 -0.2308 -1.5003 -3.5645
13979SOL    HW242719   3.616   5.383   4.406  3.1191  1.7683 -0.5380
13980SOL     OW42720   7.718   6.017   5.473 -0.1601 -0.1756  0.3193
13980SOL    HW142721   7.654   6.077   5.434  0.0432 -1.0308 -1.3983
13980SOL    HW242722   7.796   6.071   5.487 -0.7139  0.4913  0.9420
13981SOL     OW42723   3.141   0.259   1.624 -0.0052  0.4483 -0.7133
13981SOL    HW142724   3.069   0.315   1.594 -0.2468 -1.0120 -3.2152
13981SOL    HW242725   3.098   0.178   1.651  0.6092 -0.0192 -1.1248
13982SOL     OW42726   4.157   1.928   0.092  0.4335  0.5824 -0.1875
13982SOL    HW142727   4.245   1.911   0.058  0.6024  1.0678 -0.0067
13982SOL    HW242728   4.158   2.021   0.115  1.2040 -0.1758  3.5895
13983SOL     OW42729   2.700   1.864   0.794  0.9643 -0.0039 -0.4870
13983SOL    HW142730   2.654   1.933   0.745 -1.3780 -1.5330 -0.6135
13983SOL    HW242731   2.682   1.884   0.886  0.1507 -0.4789 -0.5290
13984SOL     OW42732   0.513   4.936   6.994  0.5290  0.0408  0.0260
13984SOL    HW142733   0.426   4.944   7.033  0.4068  0.4796 -0.3291
13984SOL    HW242734   0.536   4.844   7.007  0.8211  0.3380  1.7922
13985SOL     OW42735   3.411   5.088   2.241  0.1205 -0.3597  0.4106
13985SOL    HW142736   3.473   5.015   2.243  1.1416  0.3023 -2.1832
13985SOL    HW242737   3.333   5.054   2.284  1.4852 -2.0073  1.7486
13986SOL     OW42738   6.588   7.455   5.614  0.0823  0.2385 -0.0908
13986SOL    HW142739   6.508   7.403   5.619  1.1177 -1.3819  0.6284
13986SOL    HW242740   6.632   7.438   5.698  2.3524 -0.9519 -1.4288
13987SOL     OW42741   1.140   0.495   8.028  0.3437  0.2457 -0.2593
13987SOL    HW142742   1.123   0.542   7.947 -1.1067  0.1104 -0.0621
13987SOL    HW242743   1.064   0.439   8.040  1.1927 -0.8019  0.4638
13988SOL     OW42744   5.977   3.253   0.736  0.5256 -0.1356 -0.3704
13988SOL    HW142745   6.014   3.220   0.818  1.5090 -1.4542 -1.3086
13988SOL    HW242746   5.885   3.224   0.739  0.6901 -0.6356  0.0389
13989SOL     OW42747   6.466   2.001   1.742  0.1054  0.0795  0.3046
13989SOL    HW142748   6.406   2.049   1.799  0.3266 -0.3445  0.9116
13989SOL    HW242749   6.538   2.062   1.726 -1.0613  1.0517 -1.4719
13990SOL     OW42750   0.957   2.778   4.618 -0.7090  0.2922  0.2592
13990SOL    HW142751   0.993   2.801   4.704  0.5155 -0.2275 -0.0938
13990SOL    HW242752   0.974   2.855   4.563  1.0314 -0.4162 -0.2353
13991SOL     OW42753   5.510   3.761   7.308  0.1838 -0.0302 -0.1070
13991SOL    HW142754   5.549   3.724   7.229 -0.8831  2.2769 -1.8444
13991SOL    HW242755   5.566   3.835   7.331  1.6443 -1.7801  2.6352
13992SOL     OW42756   1.679   7.219   4.116  0.1096 -0.3332  0.3794
13992SOL    HW142757   1.768   7.254   4.114 -0.5835  1.6320  0.8614
13992SOL    HW242758   1.655   7.211   4.024  0.8704 -1.1553  0.2420
13993SOL     OW42759   4.093   7.568   0.102  0.1412 -0.0484  0.3883
13993SOL    HW142760   4.000   7.555   0.122  0.0806 -1.3408 -0.5950
13993SOL    HW242761   4.094   7.610   0.016  0.4720  0.3464  0.5791
13994SOL     OW42762   2.418   2.260   1.215  0.5241 -0.3645 -0.1648
13994SOL    HW142763   2.507   2.269   1.181  0.8188  0.7476  0.8391
13994SOL    HW242764   2.393   2.348   1.242 -0.6185 -0.7855  0.2159
13995SOL     OW42765   6.548   6.540   6.504 -0.1531 -0.3144 -0.3091
13995SOL    HW142766   6.542   6.480   6.429  2.3447 -0.3434 -0.5936
13995SOL    HW242767   6.620   6.505   6.556 -0.3203  1.0225  0.8786
13996SOL     OW42768   0.501   6.618   7.092 -0.3093 -0.6688 -0.1344
13996SOL    HW142769   0.595   6.627   7.078 -0.3517  1.8058  0.6071
13996SOL    HW242770   0.468   6.708   7.089 -2.9898 -1.5972 -2.3952
13997SOL     OW42771   7.886   3.681   2.757  0.3134  0.1786 -0.5398
13997SOL    HW142772   7.912   3.722   2.674 -0.8728  0.3236 -0.8585
13997SOL    HW242773   7.835   3.748   2.803  2.2945  0.6764  1.0685
13998SOL     OW42774   1.592   4.002   4.995  0.3562 -0.7900 -0.5536
13998SOL    HW142775   1.589   4.067   4.924 -0.0653 -0.9586 -0.6966
13998SOL    HW242776   1.514   4.021   5.048 -0.4454 -1.9255 -1.2776
13999SOL     OW42777   8.083   7.714   5.844  0.3961 -0.1552  0.1882
13999SOL    HW142778   8.149   7.647   5.827  0.4902  0.0116 -0.1080
13999SOL    HW242779   8.053   7.742   5.757  0.3967  0.2231  0.3064
14000SOL     OW42780   7.511   5.847   3.229 -0.3654  0.3539 -0.0272
14000SOL    HW142781   7.598   5.812   3.249 -1.1301 -0.0202  3.2984
14000SOL    HW242782   7.451   5.795   3.283 -2.4579  1.8129 -0.7973
14001SOL     OW42783   0.295   1.548   6.383 -0.4734 -0.3556  0.2063
14001SOL    HW142784   0.355   1.578   6.451 -2.3647  0.7952  1.4776
14001SOL    HW242785   0.327   1.462   6.357  1.1988 -0.1296  1.4206
14002SOL     OW42786   7.347   3.464   5.175 -0.5070  0.2366 -0.0114
14002SOL    HW142787   7.317   3.486   5.263 -0.3109  1.1494 -0.1695
14002SOL    HW242788   7.266   3.453   5.125 -0.6562 -1.4534  0.5365
14003SOL     OW42789   0.507   6.349   4.626  0.1677 -0.4920 -0.0518
14003SOL    HW142790   0.564   6.353   4.549  0.5328 -1.4113  0.1571
14003SOL    HW242791   0.566   6.340   4.700 -0.2069 -0.2589  0.2770
14004SOL     OW42792   3.585   2.324   4.745  0.3651  0.2056 -0.1660
14004SOL    HW142793   3.559   2.332   4.653  1.2271  0.0499 -0.4350
14004SOL    HW242794   3.616   2.411   4.769  1.0266  0.0160 -0.3130
14005SOL     OW42795   1.498   7.999   5.311  0.4272  0.0777  0.1687
14005SOL    HW142796   1.559   8.027   5.379  1.0488  1.4694 -0.8953
14005SOL    HW242797   1.553   7.960   5.243  0.1194  0.9099 -0.5895
14006SOL     OW42798   6.995   0.392   3.354 -0.1347  0.2940  0.3546
14006SOL    HW142799   6.957   0.372   3.440  0.8093  2.3701  1.3036
14006SOL    HW242800   6.931   0.449   3.313 -1.4811 -2.1333 -1.1934
14007SOL     OW42801   4.971   2.481   4.394 -0.1011  0.1433 -0.3325
14007SOL    HW142802   4.976   2.484   4.298  1.3036 -0.0752 -0.2816
14007SOL    HW242803   5.005   2.565   4.423  0.8240 -0.3365  0.0037
14008SOL     OW42804   5.733   2.525   7.036 -0.0496  0.3942  0.1567
14008SOL    HW142805   5.737   2.438   7.077  2.0046  0.9514  1.2883
14008SOL    HW242806   5.650   2.525   6.989 -0.0517 -2.2490 -0.0211
14009SOL     OW42807   0.497   5.601   2.609  0.0812 -0.2388  0.4830
14009SOL    HW142808   0.455   5.552   2.680  0.3927 -0.4100  0.5510
14009SOL    HW242809   0.462   5.690   2.617  0.6237 -0.0830  1.2818
14010SOL     OW42810   0.613   6.826   7.771 -0.2505 -0.3430  0.2628
14010SOL    HW142811   0.701   6.806   7.738 -0.3612 -0.2866 -0.0698
14010SOL    HW242812   0.629   6.878   7.850  0.0163  0.1384 -0.0938
14011SOL     OW42813   4.507   0.712   2.345  0.1177  0.0192 -0.7468
14011SOL    HW142814   4.457   0.736   2.267  0.8421 -1.5200 -1.7499
14011SOL    HW242815   4.474   0.626   2.369  1.3760 -0.4656 -0.6673
14012SOL     OW42816   2.356   4.475   0.385 -0.1780  0.0885  0.2390
14012SOL    HW142817   2.276   4.445   0.342  0.5924 -2.7814  0.5742
14012SOL    HW242818   2.361   4.422   0.465  3.3124 -1.8454 -1.0519
14013SOL     OW42819   2.411   1.987   0.232 -0.2050 -0.1583 -0.3041
14013SOL    HW142820   2.504   1.985   0.257  0.1683 -0.8604 -1.6348
14013SOL    HW242821   2.364   1.985   0.316  0.9399  2.2880  0.4896
14014SOL     OW42822   3.507   6.583   0.947  0.3726  0.2869  0.2836
14014SOL    HW142823   3.482   6.617   1.033 -0.0867  0.4435  0.0903
14014SOL    HW242824   3.508   6.660   0.890 -1.5648 -0.1290 -0.3627
14015SOL     OW42825   7.701   6.093   1.782 -0.3375 -0.1169 -0.1364
14015SOL    HW142826   7.605   6.105   1.781 -0.2051  1.1756 -0.0264
14015SOL    HW242827   7.725   6.087   1.690 -0.3453  1.4930 -0.2705
14016SOL     OW42828   6.737   6.037   4.340 -1.0186  0.9974 -0.5874
14016SOL    HW142829   6.803   6.006   4.402 -1.0982  0.5938 -0.6997
14016SOL    HW242830   6.765   6.125   4.317 -0.1270  0.5712 -1.1806
14017SOL     OW42831   2.843   6.251   2.072 -0.0960 -0.2548 -0.2958
14017SOL    HW142832   2.864   6.189   2.141 -2.1559  0.5322  1.1484
14017SOL    HW242833   2.750   6.234   2.053  0.0745  0.4602 -1.9367
14018SOL     OW42834   2.195   5.536   4.583 -0.0126 -0.1246  0.3220
14018SOL    HW142835   2.115   5.588   4.584  0.9473  1.4181  0.7314
14018SOL    HW242836   2.186   5.479   4.507 -1.5639 -0.1183  0.4704
14019SOL     OW42837   1.903   7.159   6.920 -0.1333  0.3366 -0.0458
14019SOL    HW142838   1.836   7.092   6.904  0.1414 -0.0585  0.4120
14019SOL    HW242839   1.971   7.140   6.856  0.6788 -0.8491  1.1198
14020SOL     OW42840   0.168   3.709   7.961 -0.1721 -0.5880 -0.0246
14020SOL    HW142841   0.134   3.704   7.871  3.0331  0.5219 -1.4761
14020SOL    HW242842   0.152   3.799   7.987  0.7580 -0.3158 -0.3587
14021SOL     OW42843   1.267   2.504   3.159 -0.4082  0.4804  0.0915
14021SOL    HW142844   1.192   2.564   3.155 -0.7922  0.0677  0.7930
14021SOL    HW242845   1.233   2.422   3.123 -0.3453  0.2413  0.5762
14022SOL     OW42846   2.860   8.191   7.681  0.0283  0.0969 -0.0962
14022SOL    HW142847   2.820   8.238   7.608  1.2684  1.7745  0.2421
14022SOL    HW242848   2.799   8.203   7.754  0.4044  1.3565  0.0260
14023SOL     OW42849   5.201   4.837   5.567 -0.1120 -0.6425 -0.5123
14023SOL    HW142850   5.146   4.911   5.592  1.4337  0.7562 -1.0300
14023SOL    HW242851   5.260   4.825   5.642  0.6937 -0.2692 -1.0710
14024SOL     OW42852   0.625   4.920   1.430 -0.3764  0.2067 -0.2743
14024SOL    HW142853   0.695   4.856   1.442  1.3257  1.9891 -0.2182
14024SOL    HW242854   0.631   4.977   1.506 -1.9948  0.3407 -0.2183
14025SOL     OW42855   2.840   7.888   5.832 -0.0569  0.1518 -0.0175
14025SOL    HW142856   2.898   7.907   5.758 -1.7056  1.1703 -1.1280
14025SOL    HW242857   2.825   7.973   5.874 -0.7011 -0.0987  0.2777
14026SOL     OW42858   2.143   5.109   4.290  0.4334 -0.7317  0.2419
14026SOL    HW142859   2.056   5.117   4.251  0.9215  0.9258 -0.6297
14026SOL    HW242860   2.189   5.048   4.232  0.9954  1.3232 -1.6201
14027SOL     OW42861   4.380   1.931   3.217  0.3045  0.3069  0.4007
14027SOL    HW142862   4.387   1.836   3.232  1.4104  0.4310  0.7154
14027SOL    HW242863   4.355   1.967   3.302  0.9077  0.4066  0.5362
14028SOL     OW42864   4.564   3.308   1.885  0.1482  0.2425 -0.2201
14028SOL    HW142865   4.582   3.383   1.828 -0.0301 -0.0011 -0.5984
14028SOL    HW242866   4.590   3.232   1.834 -0.7162 -0.0291 -0.2776
14029SOL     OW42867   1.653   4.416   3.041  0.8830  0.4230  0.2507
14029SOL    HW142868   1.594   4.490   3.024 -0.0577 -0.3100  0.2449
14029SOL    HW242869   1.625   4.383   3.126  1.6448  0.3899  0.4884
14030SOL     OW42870   8.056   2.347   5.303  0.6402  0.0697  0.0786
14030SOL    HW142871   8.112   2.287   5.253  0.1441 -0.4424  0.1358
14030SOL    HW242872   8.037   2.418   5.242  0.8352 -0.0701 -0.1485
14031SOL     OW42873   1.276   4.144   2.341 -0.0851  0.1478  0.3904
14031SOL    HW142874   1.359   4.101   2.323  0.5354  1.5933 -0.3812
14031SOL    HW242875   1.231   4.146   2.256  0.8674  2.9258 -0.1550
14032SOL     OW42876   3.737   7.657   5.855 -0.4368 -0.2726  0.2389
14032SOL    HW142877   3.655   7.672   5.902 -0.5268 -0.8778  0.2893
14032SOL    HW242878   3.759   7.742   5.817 -1.1070 -0.1132  0.1909
14033SOL     OW42879   7.108   4.188   0.588 -0.2451 -0.1137  0.4593
14033SOL    HW142880   7.068   4.219   0.506  0.9280  0.9409  0.2418
14033SOL    HW242881   7.147   4.104   0.565  0.5046  0.4001 -0.2353
14034SOL     OW42882   0.693   4.054   6.477 -0.1192  0.2698  1.0007
14034SOL    HW142883   0.775   4.011   6.500 -1.0281 -1.1433  1.7342
14034SOL    HW242884   0.626   4.006   6.525 -1.3212  1.8333  0.9857
14035SOL     OW42885   6.881   0.733   2.998 -0.1868 -0.1965 -0.5160
14035SOL    HW142886   6.844   0.655   3.040  0.5323  0.9152  2.4066
14035SOL    HW242887   6.853   0.726   2.906 -1.1550 -3.2330 -0.1050
14036SOL     OW42888   1.467   1.388   3.333 -0.4196 -0.1187 -0.3310
14036SOL    HW142889   1.458   1.394   3.238  2.5088  0.8569 -0.6153
14036SOL    HW242890   1.456   1.294   3.352 -2.7458 -0.1153 -1.3412
14037SOL     OW42891   4.676   5.460   4.576 -0.2286 -0.1092 -0.5816
14037SOL    HW142892   4.732   5.537   4.569  0.2336 -0.4433 -0.6226
14037SOL    HW242893   4.718   5.394   4.521 -1.7827  0.2619 -2.3410
14038SOL     OW42894   1.905   0.575   5.244 -0.0080  0.2718 -0.1348
14038SOL    HW142895   1.950   0.490   5.244  1.9916  1.2452  1.1860
14038SOL    HW242896   1.952   0.627   5.179 -1.4317  0.3116 -1.1800
14039SOL     OW42897   7.364   6.575   3.694 -0.2996 -0.0677 -0.1292
14039SOL    HW142898   7.365   6.652   3.638  0.4759 -1.2310 -1.7783
14039SOL    HW242899   7.404   6.604   3.776 -0.2254  1.3139 -0.6334
14040SOL     OW42900   0.974   5.443   3.372  0.7902  0.8940 -0.0076
14040SOL    HW142901   0.936   5.366   3.331  0.1000  1.5486 -0.6407
14040SOL    HW242902   1.013   5.491   3.299  1.2820  1.1061  0.3910
14041SOL     OW42903   7.558   7.812   3.946 -0.0761 -0.2511  0.0666
14041SOL    HW142904   7.510   7.743   3.992 -1.2412  0.8900  0.6356
14041SOL    HW242905   7.541   7.891   3.997  0.7304  0.5758 -0.8978
14042SOL     OW42906   1.162   2.989   8.048  0.3070 -0.3038  0.6557
14042SOL    HW142907   1.241   2.958   8.093  0.7994  1.8552  1.3736
14042SOL    HW242908   1.181   3.080   8.026 -1.3188 -0.2561 -0.7827
14043SOL     OW42909   6.264   2.212   5.551  0.0228  0.2917  0.2769
14043SOL    HW142910   6.170   2.197   5.538  0.2272  1.1107 -2.9918
14043SOL    HW242911   6.270   2.307   5.564  0.4406  0.3346 -0.2260
14044SOL     OW42912   1.735   6.036   0.141  0.7913  0.3497  0.1049
14044SOL    HW142913   1.706   6.120   0.106 -2.0638 -0.5318  0.0940
14044SOL    HW242914   1.749   5.981   0.064  0.8231  0.2747  0.1643
14045SOL     OW42915   8.314   2.679   4.162  0.0654 -0.3351  0.7366
14045SOL    HW142916   8.315   2.752   4.223  1.5869 -0.9993  1.5634
14045SOL    HW242917   8.343   2.716   4.079 -1.8200  0.5278  0.4042
14046SOL     OW42918   6.513   3.332   4.425  0.0007  0.6889  0.3268
14046SOL    HW142919   6.496   3.380   4.507 -2.2509 -1.2943  1.1272
14046SOL    HW242920   6.608   3.325   4.421  0.1769  0.3163  3.1477
14047SOL     OW42921   4.432   6.155   3.864 -0.1844 -0.2402 -0.0242
14047SOL    HW142922   4.527   6.146   3.858  0.4420  4.4198 -1.0827
14047SOL    HW242923   4.419   6.227   3.925 -2.8751  0.7361 -1.5785
14048SOL     OW42924   5.285   5.844   3.327  0.1077 -0.0916 -0.5236
14048SOL    HW142925   5.292   5.754   3.359  3.2602  0.6080  1.2691
14048SOL    HW242926   5.309   5.898   3.403 -1.6732  2.3065 -1.5361
14049SOL     OW42927   6.287   3.702   7.817  0.1604 -0.3837  0.4310
14049SOL    HW142928   6.359   3.694   7.880 -0.2326  0.0583  0.9559
14049SOL    HW242929   6.253   3.614   7.807  1.4662 -0.7794 -0.6593
14050SOL     OW42930   3.814   2.991   4.680 -0.3399 -0.0045  0.0578
14050SOL    HW142931   3.887   2.929   4.679  0.0812  0.4863  0.1077
14050SOL    HW242932   3.852   3.073   4.710 -0.8483  0.3380 -0.2139
14051SOL     OW42933   4.592   6.371   4.520  0.3213 -0.1975  0.3845
14051SOL    HW142934   4.497   6.357   4.528  0.1128  1.1681  0.5652
14051SOL    HW242935   4.607   6.373   4.425  0.0839  0.0434  0.3488
14052SOL     OW42936   6.001   3.748   0.999 -0.0012  0.3259  0.0032
14052SOL    HW142937   5.945   3.700   0.938 -0.7062 -1.8378  2.1912
14052SOL    HW242938   5.964   3.836   1.001 -0.2519  0.3347 -2.2243
14053SOL     OW42939   6.398   3.585   6.526  0.6207 -0.5496 -0.4372
14053SOL    HW142940   6.383   3.528   6.601 -0.2558  0.8177  0.4692
14053SOL    HW242941   6.390   3.674   6.561 -1.7857  0.1510 -2.5105
14054SOL     OW42942   4.446   0.850   0.299 -0.2824 -0.1303  0.2972
14054SOL    HW142943   4.488   0.897   0.371 -0.0023  0.4296 -0.2228
14054SOL    HW242944   4.515   0.794   0.262  0.1847  1.1745 -0.8874
14055SOL     OW42945   0.999   4.687   3.403 -0.1803 -0.4054  0.1246
14055SOL    HW142946   0.983   4.664   3.494 -0.9463 -1.3809 -0.2356
14055SOL    HW242947   0.913   4.710   3.368 -0.1335 -1.4764 -0.7314
14056SOL     OW42948   4.585   0.249   2.337 -0.2643  0.0809 -0.1444
14056SOL    HW142949   4.668   0.276   2.376  0.1055 -0.4755 -0.5425
14056SOL    HW242950   4.605   0.236   2.245 -0.6582 -0.6362 -0.1327
14057SOL     OW42951   6.032   1.093   5.433  0.3352 -0.4632  0.0237
14057SOL    HW142952   6.052   1.026   5.499  1.9112 -0.8124 -0.7630
14057SOL    HW242953   5.945   1.069   5.401  0.5217 -1.6654  0.3466
14058SOL     OW42954   7.513   1.489   0.758 -0.3860 -0.1492  0.3628
14058SOL    HW142955   7.496   1.437   0.836  0.9580  0.1614  0.8985
14058SOL    HW242956   7.432   1.537   0.743 -0.4637  0.3009  1.9815
14059SOL     OW42957   1.840   8.265   3.172  0.1871  0.1548 -0.0662
14059SOL    HW142958   1.903   8.201   3.139 -1.9532 -0.6529 -3.0659
14059SOL    HW242959   1.783   8.215   3.230 -0.3548 -0.2857 -0.9430
14060SOL     OW42960   4.861   4.402   3.109 -0.2276 -0.4661  0.2375
14060SOL    HW142961   4.815   4.352   3.042 -1.2323 -0.4606  0.9063
14060SOL    HW242962   4.892   4.481   3.064  0.2742 -1.0937 -0.5224
14061SOL     OW42963   5.530   0.335   8.159  0.0261 -0.4124  0.3577
14061SOL    HW142964   5.446   0.325   8.205 -0.2110  0.3240  0.0995
14061SOL    HW242965   5.564   0.419   8.188  0.6813 -0.7090  0.4601
14062SOL     OW42966   1.313   4.201   7.567 -0.3355  0.9385 -0.0679
14062SOL    HW142967   1.271   4.118   7.590 -0.3581  1.4384  1.8772
14062SOL    HW242968   1.254   4.240   7.503 -1.5125  0.4469  0.6804
14063SOL     OW42969   2.985   7.603   2.827 -0.1724 -0.2378  0.2803
14063SOL    HW142970   3.056   7.586   2.764 -2.8466 -0.3532 -3.0123
14063SOL    HW242971   2.966   7.697   2.817 -0.1040 -0.0695  1.5956
14064SOL     OW42972   2.327   6.397   2.957 -0.4071  0.0226 -0.4638
14064SOL    HW142973   2.348   6.489   2.976 -1.7743  0.2776 -0.0830
14064SOL    HW242974   2.283   6.367   3.036 -0.9931 -0.6293 -1.0353
14065SOL     OW42975   2.038   6.040   4.309  0.2506  0.4193  0.1583
14065SOL    HW142976   2.072   5.983   4.378 -0.0189 -0.1370 -0.1678
14065SOL    HW242977   1.999   6.114   4.357 -1.6444 -0.8586  0.7251
14066SOL     OW42978   3.399   1.423   7.401 -0.0825 -0.0281 -0.6628
14066SOL    HW142979   3.375   1.482   7.330 -2.4576  0.3091  0.3290
14066SOL    HW242980   3.316   1.387   7.432  0.8484 -0.2447  1.8576
14067SOL     OW42981   0.407   2.375   3.779 -0.0618 -0.4428  0.4303
14067SOL    HW142982   0.381   2.437   3.711 -0.2889 -2.2319 -1.2053
14067SOL    HW242983   0.373   2.291   3.749  0.8994 -1.5162  2.1730
14068SOL     OW42984   2.211   1.105   2.903  0.4347  0.2575  0.1062
14068SOL    HW142985   2.222   1.065   2.989  1.9001  1.0146  0.2900
14068SOL    HW242986   2.254   1.046   2.842  0.3262  0.2604  0.0248
14069SOL     OW42987   7.414   1.816   2.707 -0.1442 -0.3741 -0.0303
14069SOL    HW142988   7.432   1.825   2.613  1.0511  2.3618  0.3836
14069SOL    HW242989   7.318   1.823   2.713 -0.1678  0.2836 -0.9724
14070SOL     OW42990   1.051   0.542   6.188 -0.2304  0.5699 -0.3135
14070SOL    HW142991   1.011   0.519   6.105 -3.6221 -0.6065  1.4651
14070SOL    HW242992   1.105   0.466   6.211  0.3627  0.7167 -1.1834
14071SOL     OW42993   0.476   5.794   6.226  0.2941 -0.2752  0.2300
14071SOL    HW142994   0.480   5.737   6.149 -2.4114 -0.3337  0.0104
14071SOL    HW242995   0.524   5.873   6.201  0.9582 -0.9881 -0.8343
14072SOL     OW42996   5.746   5.611   7.255 -0.4335  0.3759  0.2281
14072SOL    HW142997   5.680   5.671   7.290 -0.0777  0.7494  0.2649
14072SOL    HW242998   5.734   5.531   7.306 -0.3545  0.6975  0.7550
14073SOL     OW42999   2.772   2.778   1.465  0.0546 -0.4190  0.3974
14073SOL    HW143000   2.688   2.792   1.508  0.0348  0.4667  0.0984
14073SOL    HW243001   2.749   2.749   1.376  0.0829 -1.2683  0.6631
14074SOL     OW43002   0.706   7.959   6.296 -0.0516 -0.3343  0.5280
14074SOL    HW143003   0.642   7.987   6.361  0.8340 -1.4485  1.9637
14074SOL    HW243004   0.791   7.974   6.339  0.8169  2.5597 -1.8827
14075SOL     OW43005   2.408   1.694   7.543 -0.2816  0.1168  0.9157
14075SOL    HW143006   2.484   1.751   7.532  0.4783 -1.0563 -0.1095
14075SOL    HW243007   2.353   1.713   7.467  0.2415 -0.8925  0.2684
14076SOL     OW43008   5.664   4.014   1.082  0.1215  0.4213  0.2786
14076SOL    HW143009   5.573   4.030   1.104  0.4118  0.7376  1.2997
14076SOL    HW243010   5.671   3.918   1.077 -0.4534  0.4140 -0.7231
14077SOL     OW43011   7.373   1.398   3.430 -0.1144 -0.2478  0.5357
14077SOL    HW143012   7.391   1.370   3.520  0.0061 -1.2035  0.2222
14077SOL    HW243013   7.424   1.339   3.375 -0.7885 -0.1642 -0.1976
14078SOL     OW43014   0.261   3.136   8.092  0.0851  0.0466 -0.2909
14078SOL    HW143015   0.298   3.047   8.092 -0.2023 -0.0766 -0.2527
14078SOL    HW243016   0.181   3.128   8.146  0.6352  0.5731  0.6278
14079SOL     OW43017   8.215   1.024   7.799 -0.0913  0.0590 -0.3009
14079SOL    HW143018   8.261   1.012   7.881  1.8104  0.8353 -1.1948
14079SOL    HW243019   8.284   1.043   7.735 -1.4768 -0.7024 -2.1247
14080SOL     OW43020   0.463   5.836   3.327 -0.2025 -0.0727  0.4964
14080SOL    HW143021   0.517   5.885   3.390 -1.3614  0.3089  1.2193
14080SOL    HW243022   0.374   5.864   3.345 -0.8093 -1.7411  0.2561
14081SOL     OW43023   4.868   1.034   6.527 -0.1111  0.6881 -0.3329
14081SOL    HW143024   4.815   0.990   6.460  1.6082 -1.6872 -0.3109
14081SOL    HW243025   4.948   1.059   6.481  1.5860 -1.9827  0.8960
14082SOL     OW43026   6.228   2.752   4.830  0.1849 -0.7731  0.6762
14082SOL    HW143027   6.170   2.818   4.870 -0.8928 -1.9676  1.1558
14082SOL    HW243028   6.315   2.772   4.865  0.4875  2.1349 -1.3806
14083SOL     OW43029   3.154   3.139   2.585  0.7653 -0.3720  0.1854
14083SOL    HW143030   3.166   3.065   2.644 -0.0537 -0.9634 -0.3693
14083SOL    HW243031   3.148   3.099   2.498  1.1206  0.4187 -0.2100
14084SOL     OW43032   7.153   1.955   0.343 -0.0632 -0.2311 -0.3725
14084SOL    HW143033   7.123   2.046   0.332  0.7333  0.0316 -0.4053
14084SOL    HW243034   7.204   1.937   0.264 -2.0733 -1.4866 -1.4638
14085SOL     OW43035   5.484   6.541   3.377 -0.5971  0.2768  0.9368
14085SOL    HW143036   5.428   6.468   3.406 -1.5871  0.8304  0.4677
14085SOL    HW243037   5.455   6.559   3.287  0.2501  0.6728  0.7341
14086SOL     OW43038   5.884   4.770   1.080  0.0184 -0.5840  0.0410
14086SOL    HW143039   5.893   4.841   1.143  0.5350  1.3178 -2.0686
14086SOL    HW243040   5.973   4.740   1.064 -0.2402 -2.2193  1.3874
14087SOL     OW43041   7.137   1.023   0.697  0.5620 -0.7829 -0.1655
14087SOL    HW143042   7.215   1.022   0.752 -0.7083  1.0323  1.8410
14087SOL    HW243043   7.093   0.940   0.718  0.8261 -0.7764  0.4541
14088SOL     OW43044   5.648   7.316   1.574 -0.3230 -0.4284 -0.4071
14088SOL    HW143045   5.641   7.374   1.650  0.0843 -0.5332 -0.2890
14088SOL    HW243046   5.590   7.355   1.509 -2.1246 -1.2991  0.5669
14089SOL     OW43047   7.082   0.553   6.089  0.4912  0.6289  0.1055
14089SOL    HW143048   7.173   0.551   6.117  0.3204 -1.8745  0.7898
14089SOL    HW243049   7.036   0.502   6.156 -1.3246  1.3380 -0.5303
14090SOL     OW43050   0.202   6.041   5.795  0.5554  0.3110 -0.0223
14090SOL    HW143051   0.241   6.124   5.768 -1.0231  1.0650 -0.1138
14090SOL    HW243052   0.108   6.060   5.804  0.1532 -1.4542 -0.0094
14091SOL     OW43053   1.009   1.754   3.294 -0.2161  0.4216 -0.3098
14091SOL    HW143054   0.997   1.831   3.349  0.1116  1.1757 -1.2809
14091SOL    HW243055   0.988   1.783   3.206 -0.3491 -0.6760 -0.6576
14092SOL     OW43056   2.791   7.898   6.985  0.0850  0.0724  0.6996
14092SOL    HW143057   2.823   7.808   6.989 -2.2050 -0.9330 -1.1560
14092SOL    HW243058   2.711   7.897   7.037  0.2097  1.1135  0.9207
14093SOL     OW43059   6.514   0.401   2.592 -0.2472  0.6258 -0.1789
14093SOL    HW143060   6.500   0.348   2.670 -0.6598  0.1030 -0.6007
14093SOL    HW243061   6.441   0.379   2.534  0.4324  0.4669 -1.0015
14094SOL     OW43062   2.580   1.683   5.515 -0.2477  0.2605  0.9665
14094SOL    HW143063   2.643   1.615   5.539 -1.2475 -1.5102 -1.1318
14094SOL    HW243064   2.628   1.765   5.530  2.6023 -0.9764 -0.4659
14095SOL     OW43065   1.478   4.584   3.580 -0.0636  0.1302  0.4812
14095SOL    HW143066   1.511   4.628   3.659  1.0657 -0.1610  0.1927
14095SOL    HW243067   1.541   4.607   3.512  0.2930 -1.5207  0.2158
14096SOL     OW43068   6.552   0.265   6.607 -0.4191  0.1192  0.4821
14096SOL    HW143069   6.521   0.228   6.689  0.1892 -0.4184  0.4754
14096SOL    HW243070   6.517   0.354   6.606 -2.5675 -0.6608  0.1490
14097SOL     OW43071   3.119   5.294   0.195 -0.0508  0.0630 -0.2430
14097SOL    HW143072   3.110   5.386   0.171  1.4921  0.5316  0.8529
14097SOL    HW243073   3.044   5.251   0.152 -1.3149  1.9376 -0.0367
14098SOL     OW43074   6.822   1.390   4.995 -0.0907 -0.4908 -0.0025
14098SOL    HW143075   6.904   1.365   5.038 -0.1673  1.1502  1.1541
14098SOL    HW243076   6.839   1.372   4.902  1.0066 -1.6304  0.3767
14099SOL     OW43077   4.145   1.561   6.116  0.6451 -0.3068 -0.1189
14099SOL    HW143078   4.121   1.469   6.128  0.2941 -0.3053 -0.7289
14099SOL    HW243079   4.105   1.606   6.190  1.9774 -0.8231  0.9421
14100SOL     OW43080   4.926   6.136   5.391 -0.2968 -0.5634  0.7930
14100SOL    HW143081   4.916   6.055   5.441 -1.7444 -0.1643  1.2086
14100SOL    HW243082   4.838   6.154   5.357  0.7194 -1.2614 -2.6618
14101SOL     OW43083   1.432   7.986   4.478  0.6678  0.2186  0.2061
14101SOL    HW143084   1.345   8.014   4.504  1.1513  0.0681  2.1182
14101SOL    HW243085   1.427   7.890   4.475  0.7095  0.2194  0.0888
14102SOL     OW43086   4.096   0.238   6.851 -0.2104 -0.0921  0.3241
14102SOL    HW143087   4.143   0.197   6.925  0.5271 -0.1005 -0.1344
14102SOL    HW243088   4.165   0.281   6.801 -0.2604 -2.3281 -1.8661
14103SOL     OW43089   3.725   6.529   2.696  0.5692 -0.7596 -0.1109
14103SOL    HW143090   3.728   6.438   2.726 -1.1799 -0.7051  0.2936
14103SOL    HW243091   3.637   6.540   2.660  0.7656  0.7805 -0.1878
14104SOL     OW43092   5.659   1.558   1.002 -0.1733  0.3958 -0.2256
14104SOL    HW143093   5.649   1.646   0.963 -1.0338  0.3150 -0.1878
14104SOL    HW243094   5.572   1.519   0.997 -0.1402  0.1012  1.1319
14105SOL     OW43095   7.681   1.271   8.160 -0.2993 -0.3725  0.6473
14105SOL    HW143096   7.589   1.291   8.180 -0.8276 -0.7329 -1.2733
14105SOL    HW243097   7.684   1.264   8.065  1.7484 -0.3304  0.6692
14106SOL     OW43098   1.960   2.365   7.855 -0.8696 -0.2619  0.1412
14106SOL    HW143099   2.039   2.312   7.857 -0.6158  0.1074  0.0109
14106SOL    HW243100   1.990   2.455   7.872 -1.0330  0.1384 -1.4861
14107SOL     OW43101   3.526   4.160   4.733 -0.7733  0.0327  0.6043
14107SOL    HW143102   3.537   4.204   4.649 -1.1736  0.2342  0.6531
14107SOL    HW243103   3.592   4.091   4.733 -0.1860  0.5820  0.4862
14108SOL     OW43104   4.739   7.184   4.948  0.0423 -0.2274 -0.2487
14108SOL    HW143105   4.720   7.104   4.899 -0.7066 -1.1347  1.4485
14108SOL    HW243106   4.660   7.201   5.000  0.5265  1.1007  0.1110
14109SOL     OW43107   6.033   1.735   4.201  0.2489  0.0629  0.5111
14109SOL    HW143108   5.983   1.814   4.180  1.4233  0.3571 -1.3937
14109SOL    HW243109   6.017   1.676   4.128  1.0806 -0.6350  0.8736
14110SOL     OW43110   7.880   3.275   1.674 -0.8086 -0.3849 -0.2459
14110SOL    HW143111   7.793   3.312   1.688 -1.1562 -1.3915  0.3564
14110SOL    HW243112   7.925   3.287   1.757  1.0252  3.5453 -1.5767
14111SOL     OW43113   3.182   2.023   0.043 -0.0196  0.2711  0.0740
14111SOL    HW143114   3.222   2.088  -0.014  0.7877 -0.3127 -0.0364
14111SOL    HW243115   3.169   1.946  -0.013 -2.0450  0.6839 -0.1193
14112SOL     OW43116   7.159   6.806   3.852  0.4449  0.6111 -0.2814
14112SOL    HW143117   7.193   6.884   3.894  0.6501  1.0234 -1.1764
14112SOL    HW243118   7.143   6.833   3.761 -0.3605 -0.1266 -0.3731
14113SOL     OW43119   5.118   1.047   4.431 -0.9480 -0.2623 -0.3755
14113SOL    HW143120   5.166   0.967   4.408 -1.9213 -1.1472  0.5454
14113SOL    HW243121   5.042   1.047   4.373 -1.7111 -0.7975  0.5962
14114SOL     OW43122   2.732   3.996   3.357  0.3503  0.5615  0.9914
14114SOL    HW143123   2.766   3.911   3.385  1.7778  0.8831  0.3057
14114SOL    HW243124   2.809   4.044   3.326 -0.4507  2.0604  1.2400
14115SOL     OW43125   6.445   4.084   7.518 -0.2011  0.1219  0.3798
14115SOL    HW143126   6.411   4.049   7.600  1.2218 -1.5027  0.3335
14115SOL    HW243127   6.427   4.178   7.522 -0.2566  0.0546  2.4969
14116SOL     OW43128   3.901   0.897   6.949  0.2030  0.2370 -1.2772
14116SOL    HW143129   3.969   0.845   6.906 -0.3760 -2.2096  0.5345
14116SOL    HW243130   3.829   0.835   6.964 -1.2069  1.9892 -0.4337
14117SOL     OW43131   6.451   1.032   1.214 -0.0346 -0.0856 -0.5695
14117SOL    HW143132   6.508   1.073   1.149 -0.1449 -0.0747 -0.6591
14117SOL    HW243133   6.440   1.098   1.282  0.6831 -0.3590 -0.1776
14118SOL     OW43134   1.379   5.429   7.676 -0.1497 -0.5308  0.1955
14118SOL    HW143135   1.320   5.418   7.751 -1.7744 -2.2847 -1.2187
14118SOL    HW243136   1.356   5.356   7.618  1.3681  0.5021 -1.7917
14119SOL     OW43137   5.288   4.815   7.254  0.3131 -1.3799  0.0081
14119SOL    HW143138   5.318   4.852   7.337 -0.9193  0.9286 -0.4920
14119SOL    HW243139   5.349   4.851   7.189  0.8916 -2.6735 -0.1904
14120SOL     OW43140   3.529   0.436   5.715  0.1694  0.2503 -0.6084
14120SOL    HW143141   3.531   0.454   5.809 -2.7257  0.0936 -0.4383
14120SOL    HW243142   3.552   0.343   5.708  0.0013  0.1584 -0.0251
14121SOL     OW43143   0.747   4.524   0.942 -0.2505 -0.1091 -0.1309
14121SOL    HW143144   0.704   4.609   0.938 -0.3124 -0.1084  0.5022
14121SOL    HW243145   0.837   4.543   0.967 -0.7380 -0.3560  1.9576
14122SOL     OW43146   5.550   5.773   7.372 -0.1358  0.2427 -0.2888
14122SOL    HW143147   5.511   5.758   7.458 -0.8521  1.4215 -0.3869
14122SOL    HW243148   5.558   5.868   7.365  2.4062  0.0831 -0.4631
14123SOL     OW43149   5.887   2.461   1.760 -0.4872 -0.0136 -0.7797
14123SOL    HW143150   5.945   2.412   1.818 -0.6373 -1.5204 -1.8501
14123SOL    HW243151   5.805   2.469   1.809 -0.1064  0.1896 -0.1524
14124SOL     OW43152   1.359   7.780   6.625  0.3014  0.6108 -0.3510
14124SOL    HW143153   1.311   7.710   6.582 -2.2357  2.2132 -0.3456
14124SOL    HW243154   1.424   7.736   6.678 -0.1720 -1.6412 -1.5195
14125SOL     OW43155   5.016   8.240   4.656  0.7887  0.1935  0.1641
14125SOL    HW143156   4.960   8.206   4.726 -0.9133  1.8553 -0.3093
14125SOL    HW243157   5.003   8.179   4.583 -0.4235  0.5184  0.0824
14126SOL     OW43158   4.827   2.896   5.959 -0.2511  0.4614 -0.1570
14126SOL    HW143159   4.902   2.952   5.980  0.2754 -0.3348  0.1408
14126SOL    HW243160   4.857   2.844   5.884 -0.6098  0.3298 -0.2115
14127SOL     OW43161   6.993   6.316   3.208  0.1937  0.1386  0.6375
14127SOL    HW143162   6.962   6.258   3.139  0.4258  0.2105  0.4695
14127SOL    HW243163   7.041   6.385   3.161  0.9195 -0.1737  0.9194
14128SOL     OW43164   0.543   4.265   3.259 -0.0473  0.6443 -0.2306
14128SOL    HW143165   0.482   4.198   3.290  1.8247 -0.8793  0.3349
14128SOL    HW243166   0.552   4.248   3.165  0.2764  0.2115 -0.1238
14129SOL     OW43167   1.014   2.466   4.968  0.4487  0.1205  0.3299
14129SOL    HW143168   0.973   2.381   4.983  0.8112 -0.4505 -1.5878
14129SOL    HW243169   1.082   2.449   4.903  1.2986  1.6934  0.7412
14130SOL     OW43170   6.022   5.693   6.286 -0.6316  0.4638 -0.1892
14130SOL    HW143171   5.955   5.660   6.226 -1.1551  0.0870  0.5972
14130SOL    HW243172   6.081   5.743   6.230 -0.5563 -0.7043 -1.2066
14131SOL     OW43173   3.939   6.059   6.440  0.4142  0.0294  0.1159
14131SOL    HW143174   3.928   6.055   6.535 -0.4162  4.1176  0.3791
14131SOL    HW243175   4.024   6.101   6.427  0.3621 -0.1632 -0.9894
14132SOL     OW43176   3.723   1.750   7.308 -0.0008  0.3964  0.1398
14132SOL    HW143177   3.678   1.706   7.236  0.7903  2.0777 -1.5023
14132SOL    HW243178   3.715   1.691   7.382 -0.5023 -1.6414 -1.4454
14133SOL     OW43179   6.800   8.058   7.254  0.1628 -0.4910 -0.0196
14133SOL    HW143180   6.839   8.027   7.172 -0.3565 -1.3216  0.0325
14133SOL    HW243181   6.720   8.006   7.263  0.0736 -0.2094  0.8755
14134SOL     OW43182   3.879   0.009   3.180 -0.0079  0.6171  0.1730
14134SOL    HW143183   3.970   0.039   3.181  0.5081 -0.8607  0.5522
14134SOL    HW243184   3.854   0.011   3.087  0.6670  0.3338 -0.0220
14135SOL     OW43185   0.202   7.597   5.100  0.1318  0.0943 -0.5868
14135SOL    HW143186   0.158   7.587   5.184 -0.7427  0.3922 -0.9874
14135SOL    HW243187   0.287   7.634   5.121  1.1175 -2.5179  0.4031
14136SOL     OW43188   1.723   7.993   2.866 -0.1323 -0.6650 -0.1309
14136SOL    HW143189   1.698   8.054   2.796 -0.5356 -0.6115  0.0573
14136SOL    HW243190   1.809   8.024   2.895 -0.8173  0.5449  0.7447
14137SOL     OW43191   7.287   6.153   0.137 -0.3644 -0.0742 -0.3499
14137SOL    HW143192   7.231   6.229   0.122 -0.3040  0.1744  0.5938
14137SOL    HW243193   7.327   6.134   0.052 -1.5848 -0.0248 -0.9441
14138SOL     OW43194   0.907   4.521   4.445  0.2485 -0.0987  0.1750
14138SOL    HW143195   0.984   4.466   4.459  0.0098 -0.2741  0.8365
14138SOL    HW243196   0.865   4.525   4.531  0.1359  0.9299  0.0856
14139SOL     OW43197   4.459   5.094   1.534  0.4994  0.0642 -0.1644
14139SOL    HW143198   4.396   5.095   1.606  2.4044  1.4457  1.6167
14139SOL    HW243199   4.409   5.125   1.458 -1.2450 -0.0879  0.8710
14140SOL     OW43200   3.247   3.251   4.861 -0.2638  0.5025  0.2673
14140SOL    HW143201   3.186   3.206   4.919 -0.4606  0.0975 -0.2460
14140SOL    HW243202   3.232   3.212   4.775  3.6200 -2.7093  0.7362
14141SOL     OW43203   2.116   7.047   4.920 -0.1025  0.2594  0.0128
14141SOL    HW143204   2.051   6.977   4.913  0.4609 -0.2281 -0.4621
14141SOL    HW243205   2.072   7.116   4.970 -1.1582  0.1400 -0.7149
14142SOL     OW43206   3.208   5.399   3.262  0.1785  0.5084 -0.4002
14142SOL    HW143207   3.131   5.420   3.209 -0.2538 -0.0280 -0.0043
14142SOL    HW243208   3.269   5.471   3.246 -0.4070  0.9446 -0.7196
14143SOL     OW43209   3.043   7.104   7.588 -0.1475 -0.0968 -0.5139
14143SOL    HW143210   2.975   7.036   7.585 -0.2868 -0.0582  1.0485
14143SOL    HW243211   3.119   7.060   7.626 -0.4189  0.7203  1.0867
14144SOL     OW43212   3.378   6.177   6.812 -0.0316  0.0267  0.5834
14144SOL    HW143213   3.350   6.145   6.726 -0.6332 -2.3319  1.5681
14144SOL    HW243214   3.321   6.252   6.829 -0.5282 -0.0323 -0.6918
14145SOL     OW43215   8.156   7.658   2.811 -0.1796 -0.1615  0.2360
14145SOL    HW143216   8.148   7.569   2.845 -2.1087 -0.8254 -1.7198
14145SOL    HW243217   8.104   7.712   2.870 -2.5888 -1.1158 -0.8795
14146SOL     OW43218   6.624   1.165   6.861  0.4338 -0.6153  0.2673
14146SOL    HW143219   6.546   1.118   6.831  0.0896 -0.9922  1.6805
14146SOL    HW243220   6.619   1.250   6.818 -1.3735 -0.2151  1.1874
14147SOL     OW43221   3.035   5.706   3.356 -0.8257  0.4952  0.7597
14147SOL    HW143222   2.986   5.718   3.437  0.1737  0.9270  1.3075
14147SOL    HW243223   3.007   5.620   3.324 -1.9691  0.7469  1.0294
14148SOL     OW43224   0.815   5.607   4.924  0.4823  0.0284 -0.3629
14148SOL    HW143225   0.796   5.588   4.832 -1.5945 -0.3785  0.1094
14148SOL    HW243226   0.761   5.684   4.944 -0.6479 -1.0703  1.0102
14149SOL     OW43227   5.742   8.191   4.895  0.1175 -0.1594 -0.0277
14149SOL    HW143228   5.807   8.262   4.898  0.7480 -0.6795 -0.8572
14149SOL    HW243229   5.669   8.228   4.845 -0.2458  0.4354  0.9228
14150SOL     OW43230   5.329   1.645   7.550  0.1947 -0.0399  0.4082
14150SOL    HW143231   5.355   1.557   7.525  0.7200  0.8973 -2.8551
14150SOL    HW243232   5.411   1.690   7.570 -0.0438 -0.1742  1.7561
14151SOL     OW43233   2.222   6.266   4.270  0.5224 -0.5809 -0.4359
14151SOL    HW143234   2.179   6.196   4.320 -0.4669  0.5155  0.2786
14151SOL    HW243235   2.199   6.248   4.179  1.0483 -1.7060 -0.3657
14152SOL     OW43236   6.486   6.638   2.341  0.3338  0.0638 -0.3873
14152SOL    HW143237   6.400   6.680   2.338  0.0336 -0.6037 -1.3622
14152SOL    HW243238   6.547   6.710   2.361 -0.3754  0.6426 -0.2605
14153SOL     OW43239   0.249   1.565   0.445 -0.3164 -0.2250 -0.2659
14153SOL    HW143240   0.196   1.644   0.435  0.6287  0.6337  1.1190
14153SOL    HW243241   0.212   1.503   0.382 -0.3988  1.6606 -2.2105
14154SOL     OW43242   4.302   6.174   3.469 -0.5015  0.0336 -0.0274
14154SOL    HW143243   4.212   6.155   3.442 -0.2736 -0.6855 -0.2851
14154SOL    HW243244   4.334   6.093   3.507  0.1524  0.1821 -0.2427
14155SOL     OW43245   6.995   1.294   2.772 -0.8518  0.6979  0.6999
14155SOL    HW143246   6.908   1.334   2.766 -1.3649 -0.5173 -1.3581
14155SOL    HW243247   6.977   1.200   2.776  0.3669  0.4958  2.3364
14156SOL     OW43248   5.182   2.876   3.618 -0.3753 -0.7659 -0.3304
14156SOL    HW143249   5.244   2.825   3.670 -0.8919  0.3924  1.5227
14156SOL    HW243250   5.142   2.937   3.681 -0.5555  1.1888 -2.2248
14157SOL     OW43251   5.467   0.190   7.137 -0.0103 -0.9346  0.0438
14157SOL    HW143252   5.457   0.251   7.065  0.6467  0.4767  1.1093
14157SOL    HW243253   5.505   0.242   7.208 -0.5683 -2.2860  1.3910
14158SOL     OW43254   1.479   5.428   4.565 -0.0099  0.4797  0.2474
14158SOL    HW143255   1.442   5.362   4.506 -0.3142  1.5933 -0.8720
14158SOL    HW243256   1.555   5.385   4.605 -1.8564 -1.5182  1.8281
14159SOL     OW43257   0.231   8.239   3.717  0.1335 -0.1265 -0.4475
14159SOL    HW143258   0.153   8.292   3.705  0.6192  0.3416 -1.6293
14159SOL    HW243259   0.272   8.275   3.796 -0.5215  0.0125 -0.1645
14160SOL     OW43260   5.342   2.508   0.313  0.5281  0.3678 -0.6403
14160SOL    HW143261   5.407   2.568   0.276  1.1152 -0.5346 -1.1240
14160SOL    HW243262   5.257   2.549   0.294  0.9201  1.1544 -0.7389
14161SOL     OW43263   5.565   5.471   5.121 -0.2920  0.9727 -0.3290
14161SOL    HW143264   5.576   5.393   5.066  2.1413  1.1976 -0.2752
14161SOL    HW243265   5.518   5.533   5.065  0.2339  0.4372 -1.3991
14162SOL     OW43266   4.002   4.916   2.082 -0.3410  0.2644 -0.2852
14162SOL    HW143267   3.960   4.946   2.001  0.4552 -0.7610 -1.1017
14162SOL    HW243268   4.050   4.838   2.056 -1.3958 -1.0569  1.5315
14163SOL     OW43269   2.725   7.085   1.119  0.1648 -0.1898  0.4697
14163SOL    HW143270   2.743   7.042   1.036  1.1724  3.6371 -1.5048
14163SOL    HW243271   2.635   7.060   1.140 -0.0451 -1.4086 -1.6216
14164SOL     OW43272   8.247   6.000   1.820  0.2023  0.4266  0.3419
14164SOL    HW143273   8.223   6.090   1.797 -1.5561 -0.4721 -1.7764
14164SOL    HW243274   8.167   5.962   1.856  0.4501 -0.7091 -0.2481
14165SOL     OW43275   1.719   1.252   1.753 -0.5091 -0.3073  0.3934
14165SOL    HW143276   1.690   1.208   1.673  2.2706 -0.5841 -0.5717
14165SOL    HW243277   1.743   1.181   1.812  1.0163 -0.1277  0.0150
14166SOL     OW43278   4.157   2.780   7.601 -0.3286 -0.2079 -0.2840
14166SOL    HW143279   4.122   2.780   7.512 -0.7917 -2.1884 -0.1496
14166SOL    HW243280   4.249   2.802   7.591  0.2462 -2.8426 -1.5913
14167SOL     OW43281   4.213   0.575   0.854 -0.3990  0.5287 -0.4073
14167SOL    HW143282   4.292   0.621   0.885 -0.5993 -0.1450  1.2307
14167SOL    HW243283   4.184   0.524   0.930 -0.7103 -1.5972 -1.8679
14168SOL     OW43284   1.200   6.492   0.436 -0.2216  0.8205 -0.3941
14168SOL    HW143285   1.273   6.457   0.385 -1.5032 -1.5690 -0.7593
14168SOL    HW243286   1.134   6.516   0.371 -0.8852  0.1403  0.0050
14169SOL     OW43287   4.650   0.599   6.985  0.6139 -0.2875  0.1177
14169SOL    HW143288   4.616   0.681   7.020 -3.4038 -2.2101  1.3269
14169SOL    HW243289   4.715   0.571   7.050  0.1346  0.7152  1.0738
14170SOL     OW43290   4.225   0.085   5.098  0.2092 -0.1859 -0.4508
14170SOL    HW143291   4.159   0.141   5.057 -0.3578  0.4441  1.2592
14170SOL    HW243292   4.307   0.135   5.090 -0.0252  0.2394 -0.2136
14171SOL     OW43293   7.923   5.737   0.134  0.1001 -0.6819  0.2622
14171SOL    HW143294   7.984   5.782   0.076  0.4072 -0.4730  0.7507
14171SOL    HW243295   7.853   5.707   0.075  0.3597 -0.3883 -0.2024
14172SOL     OW43296   5.487   0.872   6.767 -0.2212  0.1855  0.0599
14172SOL    HW143297   5.514   0.786   6.737  2.0673  1.1576 -0.9649
14172SOL    HW243298   5.393   0.874   6.754 -0.0863 -1.5160 -1.6518
14173SOL     OW43299   7.189   0.160   1.395  0.2926  0.0215  0.0133
14173SOL    HW143300   7.201   0.235   1.337 -1.2419  0.3026  0.0005
14173SOL    HW243301   7.271   0.113   1.391  1.2481  1.6217 -0.1055
14174SOL     OW43302   5.170   2.151   6.145 -0.1997  1.1369 -0.2664
14174SOL    HW143303   5.230   2.153   6.070 -0.1491  1.4966 -0.2162
14174SOL    HW243304   5.180   2.063   6.182 -0.1990  0.9696 -0.6596
14175SOL     OW43305   7.015   5.313   4.891  0.4544  0.6399 -0.0606
14175SOL    HW143306   6.986   5.398   4.859  0.6260  0.7071 -0.0347
14175SOL    HW243307   6.941   5.281   4.944  0.5031  0.8969  0.1621
14176SOL     OW43308   5.232   2.400   3.211  0.6873 -0.3151 -0.5664
14176SOL    HW143309   5.191   2.321   3.247 -0.5068  0.7317  0.4594
14176SOL    HW243310   5.161   2.447   3.168  0.9169  1.1732  0.6006
14177SOL     OW43311   1.135   5.554   0.465  0.5282 -0.6079  0.1787
14177SOL    HW143312   1.092   5.543   0.550  0.4054 -0.5553  0.1244
14177SOL    HW243313   1.102   5.481   0.412  0.1950 -0.3424  0.0134
14178SOL     OW43314   1.581   8.189   1.282  0.1481 -0.0822 -0.0552
14178SOL    HW143315   1.631   8.153   1.210  1.5397 -1.6350  1.5822
14178SOL    HW243316   1.640   8.251   1.325 -1.0438  1.6764 -0.8270
14179SOL     OW43317   2.131   4.284   1.407  0.1147 -0.6097 -0.0441
14179SOL    HW143318   2.103   4.319   1.492 -0.3967 -0.4861 -0.2594
14179SOL    HW243319   2.221   4.256   1.421  0.9439  1.7543 -0.1079
14180SOL     OW43320   0.987   6.094   6.411  0.0695  0.0156 -0.2565
14180SOL    HW143321   0.943   6.124   6.332  0.5105 -0.8284 -0.8367
14180SOL    HW243322   1.080   6.112   6.395 -0.0097  1.7219  0.9248
14181SOL     OW43323   5.411   1.244   1.778 -0.1212  0.1381 -0.2226
14181SOL    HW143324   5.379   1.189   1.706  0.4604  0.3093 -0.6172
14181SOL    HW243325   5.452   1.319   1.735 -0.3298  0.5630  0.3022
14182SOL     OW43326   3.005   1.352   3.963  0.3715  0.4492  0.0959
14182SOL    HW143327   2.986   1.437   3.923 -0.4200  2.8347  4.7760
14182SOL    HW243328   3.098   1.357   3.987  0.0574  0.5637  1.3778
14183SOL     OW43329   6.827   6.315   0.073 -0.2596  0.4328 -0.4975
14183SOL    HW143330   6.785   6.385   0.123  1.5669  1.4920 -0.3489
14183SOL    HW243331   6.761   6.246   0.068 -1.5407  1.4987  0.7797
14184SOL     OW43332   3.938   4.055   2.884  0.2702  0.3841  0.5981
14184SOL    HW143333   3.996   4.028   2.955  0.4330  2.1869  1.2190
14184SOL    HW243334   3.971   4.141   2.859 -0.0532 -0.0387 -1.4000
14185SOL     OW43335   2.565   0.459   4.472 -0.5572 -0.0736  0.4659
14185SOL    HW143336   2.654   0.434   4.450 -0.2089  1.9666 -0.6822
14185SOL    HW243337   2.553   0.545   4.431 -2.3390  0.6762  2.3614
14186SOL     OW43338   1.567   1.872   1.346  0.1344  0.2929 -0.5670
14186SOL    HW143339   1.505   1.838   1.410  0.3646 -1.0383 -1.0287
14186SOL    HW243340   1.515   1.930   1.290 -0.4354  0.0994 -0.2371
14187SOL     OW43341   5.568   6.123   4.746 -0.5066  0.1720 -0.5197
14187SOL    HW143342   5.562   6.176   4.666 -0.1579  0.9197 -0.0634
14187SOL    HW243343   5.516   6.172   4.810  1.1196  0.8175  0.3485
14188SOL     OW43344   0.830   2.660   4.053 -0.3050 -0.3597  0.2557
14188SOL    HW143345   0.783   2.710   3.986  1.8242 -0.6151 -1.5571
14188SOL    HW243346   0.762   2.615   4.102 -2.0289  0.9025 -0.8731
14189SOL     OW43347   3.617   3.499   6.806  0.0219  0.0514 -0.8145
14189SOL    HW143348   3.620   3.563   6.734  2.1373  1.2937  0.2707
14189SOL    HW243349   3.702   3.455   6.802  0.0312 -0.1060  0.6792
14190SOL     OW43350   2.450   4.647   7.271 -0.7720  0.1948 -0.1281
14190SOL    HW143351   2.455   4.657   7.176  0.6361  1.1059 -0.0086
14190SOL    HW243352   2.468   4.735   7.304  0.7422 -0.4891  0.9839
14191SOL     OW43353   6.592   4.500   4.743 -0.5876  0.4330 -0.7102
14191SOL    HW143354   6.634   4.436   4.686  0.1029  0.7794 -0.5990
14191SOL    HW243355   6.664   4.546   4.785 -1.0763 -0.2298  0.9328
14192SOL     OW43356   6.969   5.725   6.985  0.5251  0.4157 -0.4997
14192SOL    HW143357   6.960   5.818   7.009  0.2820 -0.1720  1.9634
14192SOL    HW243358   7.063   5.708   6.988  0.5565  0.5315 -0.7833
14193SOL     OW43359   0.255   3.911   6.689 -0.6632  0.7517 -0.2579
14193SOL    HW143360   0.213   3.888   6.772  0.2199  0.7867  0.2103
14193SOL    HW243361   0.183   3.922   6.628 -1.3804  1.3749  0.6657
14194SOL     OW43362   0.665   8.269   1.486 -0.0530  0.4773  0.0994
14194SOL    HW143363   0.716   8.349   1.480 -0.8269  0.8548 -1.9945
14194SOL    HW243364   0.725   8.199   1.461  0.7280  0.2733  2.2748
14195SOL     OW43365   4.451   2.148   0.093 -0.1979  0.2042 -0.7064
14195SOL    HW143366   4.363   2.185   0.100 -0.2336  0.7493 -3.2133
14195SOL    HW243367   4.459   2.123   0.001  2.4832  0.7372 -0.6950
14196SOL     OW43368   7.062   4.236   5.304  0.2991  0.3776  0.3323
14196SOL    HW143369   7.039   4.152   5.343 -0.7274  0.0337 -0.9390
14196SOL    HW243370   6.988   4.257   5.246  2.3740  0.0301 -2.6824
14197SOL     OW43371   1.541   5.965   4.892 -0.2567  0.6629  0.4770
14197SOL    HW143372   1.489   5.947   4.814 -2.4963  0.8845  1.8406
14197SOL    HW243373   1.561   5.879   4.928 -1.2490  0.5929  0.8949
14198SOL     OW43374   5.735   0.768   6.094 -0.2164 -0.2567 -0.2706
14198SOL    HW143375   5.723   0.813   6.010 -0.0528 -1.8985 -1.2071
14198SOL    HW243376   5.735   0.839   6.158 -0.6704  1.0240 -1.6075
14199SOL     OW43377   2.537   6.298   1.709  0.4399 -0.0466 -0.0391
14199SOL    HW143378   2.589   6.361   1.660 -1.0011  1.4688  0.2954
14199SOL    HW243379   2.503   6.347   1.784  0.0232 -1.4737  0.7544
14200SOL     OW43380   4.835   3.995   4.233 -0.4913 -0.2308  0.0271
14200SOL    HW143381   4.788   4.074   4.205  0.5450 -0.6452 -3.2157
14200SOL    HW243382   4.809   3.927   4.171  1.2233 -1.5346  0.6398
14201SOL     OW43383   5.079   2.673   0.261 -0.0379 -0.2929 -0.0498
14201SOL    HW143384   5.134   2.732   0.209  0.1905 -1.0434 -0.6766
14201SOL    HW243385   4.993   2.716   0.263 -0.5634 -1.0289 -2.5593
14202SOL     OW43386   1.517   4.360   5.248  0.0994 -0.3457  0.0690
14202SOL    HW143387   1.589   4.322   5.299 -1.6137  0.9805  3.7701
14202SOL    HW243388   1.456   4.287   5.235 -0.4508 -0.2391  1.9101
14203SOL     OW43389   8.134   4.463   5.739  0.4608 -1.0211  0.2543
14203SOL    HW143390   8.174   4.546   5.714  0.6465 -1.2213 -0.1246
14203SOL    HW243391   8.111   4.421   5.657 -2.1276 -0.1776  0.4749
14204SOL     OW43392   3.033   4.589   0.529  0.0830 -0.0817 -0.2352
14204SOL    HW143393   2.944   4.553   0.532  0.8927 -2.2135 -0.2132
14204SOL    HW243394   3.066   4.563   0.443  0.7925  0.4722 -0.1356
14205SOL     OW43395   1.824   6.903   8.229  0.3197 -0.0110 -0.4938
14205SOL    HW143396   1.883   6.901   8.304  0.1483 -0.4836 -0.3646
14205SOL    HW243397   1.880   6.920   8.154  0.6017 -0.3232 -0.3546
14206SOL     OW43398   6.418   1.213   3.814  0.2197  0.5541  0.1829
14206SOL    HW143399   6.336   1.261   3.822 -1.0706 -1.6254  0.9657
14206SOL    HW243400   6.462   1.226   3.898 -0.5157 -0.2366  0.7104
14207SOL     OW43401   0.315   1.789   7.537 -0.6625 -0.0499 -0.3977
14207SOL    HW143402   0.334   1.828   7.452 -0.8655 -0.6456 -0.7248
14207SOL    HW243403   0.380   1.826   7.596 -1.2868  1.3180 -0.5374
14208SOL     OW43404   0.562   6.127   7.390  0.0831  0.7055 -0.2189
14208SOL    HW143405   0.495   6.080   7.439 -0.8352  2.0412 -0.1389
14208SOL    HW243406   0.563   6.215   7.428  3.7883  0.0662  1.6194
14209SOL     OW43407   8.195   4.938   6.961 -0.2756  0.4362  0.0805
14209SOL    HW143408   8.109   4.900   6.978 -0.4007  0.4216 -0.5463
14209SOL    HW243409   8.248   4.864   6.929  0.1016  0.3515  0.8727
14210SOL     OW43410   8.004   7.786   3.551  0.3486  0.1506  0.1908
14210SOL    HW143411   8.037   7.874   3.535  0.7882  0.0966  0.7718
14210SOL    HW243412   8.076   7.740   3.594  0.3821 -0.7187 -0.7597
14211SOL     OW43413   2.104   3.716   7.248 -0.4201 -0.0499 -0.2522
14211SOL    HW143414   2.192   3.739   7.218  0.1374  0.7429  1.8340
14211SOL    HW243415   2.101   3.621   7.243  1.0157 -0.1832  0.7243
14212SOL     OW43416   1.815   3.047   5.680 -0.5094 -0.0577 -0.1924
14212SOL    HW143417   1.908   3.031   5.695 -1.4357 -5.0334  2.6231
14212SOL    HW243418   1.791   3.115   5.743  0.9483  0.3833 -0.0828
14213SOL     OW43419   1.264   6.953   3.497  0.6474 -0.2109 -0.3069
14213SOL    HW143420   1.249   6.897   3.421  2.0768 -1.0629 -0.0143
14213SOL    HW243421   1.181   6.954   3.544  0.7545 -2.7016  0.0463
14214SOL     OW43422   0.064   1.125   6.702  0.0109 -0.1064  0.3392
14214SOL    HW143423   0.016   1.108   6.783  1.5304 -1.0304  1.1086
14214SOL    HW243424   0.103   1.040   6.679 -3.2522 -0.8432 -3.4255
14215SOL     OW43425   2.542   2.216   0.906 -0.4194  0.4016 -0.7847
14215SOL    HW143426   2.454   2.179   0.908  0.6163 -2.2926  0.5588
14215SOL    HW243427   2.597   2.150   0.948  2.0697  2.5312 -0.3969
14216SOL     OW43428   0.745   1.728   4.521 -0.0092  0.0600 -0.3766
14216SOL    HW143429   0.708   1.719   4.609 -0.8834  1.2819 -0.5984
14216SOL    HW243430   0.822   1.671   4.522  0.4968  0.6919  1.4595
14217SOL     OW43431   2.958   1.251   2.534 -0.4475 -0.0553 -0.2997
14217SOL    HW143432   3.022   1.308   2.492 -1.4552 -0.2399 -2.2216
14217SOL    HW243433   2.898   1.310   2.580 -0.9873  0.4184 -1.5618
14218SOL     OW43434   3.988   2.827   1.607 -0.0902  0.0979  0.0715
14218SOL    HW143435   4.043   2.818   1.530 -0.8346 -0.7672 -0.3804
14218SOL    HW243436   3.965   2.920   1.610 -0.8438 -0.0071 -1.3290
14219SOL     OW43437   4.713   5.459   7.417 -0.3722  0.5657  0.4790
14219SOL    HW143438   4.757   5.538   7.385 -0.2947  0.4987  0.4206
14219SOL    HW243439   4.725   5.394   7.348 -0.8493  0.6433  0.3207
14220SOL     OW43440   1.431   1.808   3.752 -0.0638  0.3837 -0.0815
14220SOL    HW143441   1.415   1.785   3.661  1.4948 -1.0852 -0.0248
14220SOL    HW243442   1.363   1.872   3.773 -1.1002 -0.0518 -1.9445
14221SOL     OW43443   0.782   2.498   6.539  0.0852 -0.2068 -0.3337
14221SOL    HW143444   0.792   2.485   6.633  0.7513 -0.6002 -0.4539
14221SOL    HW243445   0.871   2.495   6.504 -0.1803 -0.3978 -1.0192
14222SOL     OW43446   1.554   0.261   1.610  0.1087  0.5296 -0.4695
14222SOL    HW143447   1.538   0.274   1.517 -3.2338 -0.1205 -0.1041
14222SOL    HW243448   1.639   0.218   1.614  0.1180  0.1016 -3.2625
14223SOL     OW43449   4.330   5.219   0.442 -0.0093  0.1418  0.1119
14223SOL    HW143450   4.342   5.162   0.518 -0.6167 -1.1902 -0.7494
14223SOL    HW243451   4.410   5.271   0.438  0.4058 -0.3911  1.1467
14224SOL     OW43452   3.617   7.814   3.759  0.0584  0.1985  0.1855
14224SOL    HW143453   3.680   7.822   3.687 -2.0907 -0.8323 -1.9513
14224SOL    HW243454   3.616   7.900   3.799  0.2076  1.3553 -2.0995
14225SOL     OW43455   4.613   7.756   0.653  0.4280 -0.1575 -0.3084
14225SOL    HW143456   4.648   7.761   0.742  0.3019 -0.7799 -0.2251
14225SOL    HW243457   4.616   7.847   0.622  1.0020 -0.0196  0.1241
14226SOL     OW43458   3.404   5.735   2.085 -0.2601  0.2775 -0.8456
14226SOL    HW143459   3.440   5.767   2.002  2.3668  2.3955  0.9200
14226SOL    HW243460   3.469   5.671   2.115  0.6760  2.0368  1.0807
14227SOL     OW43461   0.299   1.480   3.849  0.2448 -0.1180 -0.8972
14227SOL    HW143462   0.332   1.437   3.771  4.0512  1.9293 -0.6487
14227SOL    HW243463   0.358   1.555   3.863 -1.6744  1.0092  2.6031
14228SOL     OW43464   2.638   7.624   5.063  0.0074 -0.6822 -0.2792
14228SOL    HW143465   2.628   7.528   5.061 -1.6094 -0.6033  1.4346
14228SOL    HW243466   2.692   7.640   5.140  1.8846 -0.2738 -1.6331
14229SOL     OW43467   3.066   7.677   6.627  0.3686  0.4890 -0.3661
14229SOL    HW143468   3.109   7.648   6.547 -0.2366 -0.3971 -0.3967
14229SOL    HW243469   3.066   7.772   6.622  1.2093  0.4654 -0.9439
14230SOL     OW43470   2.171   6.041   2.973 -0.3576 -0.0874  0.5748
14230SOL    HW143471   2.183   5.980   2.900  0.8111  0.1595  0.5258
14230SOL    HW243472   2.078   6.037   2.994 -0.4612 -1.1796 -0.0387
14231SOL     OW43473   1.210   5.643   7.415  0.0980 -0.4413 -0.3458
14231SOL    HW143474   1.164   5.567   7.451  2.0005 -1.1222  0.7985
14231SOL    HW243475   1.241   5.614   7.329  0.1459 -0.6963 -0.2430
14232SOL     OW43476   8.282   2.480   2.244 -0.0959 -0.2685  0.7680
14232SOL    HW143477   8.254   2.418   2.311 -1.1255  0.3147  0.9092
14232SOL    HW243478   8.200   2.518   2.212  0.5156  1.7912  1.4463
14233SOL     OW43479   0.260   1.288   6.281  0.1003 -0.1383  0.0057
14233SOL    HW143480   0.166   1.272   6.269 -0.3954  1.7195  1.0552
14233SOL    HW243481   0.281   1.246   6.364 -0.3807  1.3469  0.9334
14234SOL     OW43482   0.804   0.502   6.282 -1.1893 -0.1303 -0.1093
14234SOL    HW143483   0.892   0.507   6.245 -0.9207 -2.0711  0.1555
14234SOL    HW243484   0.815   0.454   6.365 -2.3977  0.1878  0.2615
14235SOL     OW43485   0.430   0.737   0.635 -0.4533  0.5194 -0.4250
14235SOL    HW143486   0.521   0.707   0.623 -0.7135 -1.0419  1.0889
14235SOL    HW243487   0.390   0.727   0.549  0.7515  1.0666 -1.0750
14236SOL     OW43488   3.373   7.091   6.383  0.1386  0.1876  0.1484
14236SOL    HW143489   3.464   7.089   6.356  0.3171  0.3543  0.7135
14236SOL    HW243490   3.376   7.103   6.478 -0.4689  0.1354  0.1829
14237SOL     OW43491   4.867   1.366   0.197  0.5160 -0.5313 -0.4927
14237SOL    HW143492   4.888   1.370   0.104  1.1983 -0.2002 -0.3293
14237SOL    HW243493   4.935   1.418   0.240 -0.4695  0.3468  0.0828
14238SOL     OW43494   1.683   2.142   6.794 -0.2768 -0.4302 -0.0389
14238SOL    HW143495   1.670   2.053   6.824 -0.9436 -0.9822 -1.8145
14238SOL    HW243496   1.701   2.193   6.873 -0.5142 -2.0142  1.0616
14239SOL     OW43497   6.956   5.303   1.183  0.3563 -0.0088 -0.2748
14239SOL    HW143498   6.941   5.211   1.162 -2.4035  0.3212 -0.1345
14239SOL    HW243499   6.880   5.349   1.148 -0.1640  1.7066  2.6963
14240SOL     OW43500   4.539   2.241   1.522 -0.7365 -0.3290  0.1684
14240SOL    HW143501   4.559   2.151   1.495  0.6542  0.5758 -2.1706
14240SOL    HW243502   4.445   2.249   1.510 -0.7721 -1.2661 -0.3472
14241SOL     OW43503   7.811   3.283   6.810 -0.3136  0.0643 -0.0531
14241SOL    HW143504   7.777   3.364   6.771  0.5156 -0.6244 -2.4364
14241SOL    HW243505   7.869   3.313   6.880 -2.1857  1.3892  1.0158
14242SOL     OW43506   1.696   3.360   3.255  0.2506  0.0212  0.1617
14242SOL    HW143507   1.738   3.274   3.260  1.1184  0.5092  2.0202
14242SOL    HW243508   1.709   3.398   3.342 -2.4497  0.9591  0.2474
14243SOL     OW43509   5.804   2.838   3.370 -0.2272  0.2739  0.6138
14243SOL    HW143510   5.734   2.871   3.314 -0.0308 -1.8831 -1.0552
14243SOL    HW243511   5.855   2.916   3.392 -2.0300  1.6195  0.2881
14244SOL     OW43512   4.617   4.846   5.039  0.0530 -0.1882 -0.4971
14244SOL    HW143513   4.681   4.905   5.079  0.4411 -0.4471 -0.7277
14244SOL    HW243514   4.561   4.904   4.987 -0.4083  0.1387  0.3540
14245SOL     OW43515   7.149   7.476   0.999  0.0871  0.0157 -0.7318
14245SOL    HW143516   7.123   7.540   0.933 -0.7606 -1.8076 -2.2319
14245SOL    HW243517   7.168   7.396   0.950  1.3414 -0.8638  1.0568
14246SOL     OW43518   4.191   7.461   3.349  0.4605  0.1856 -0.0249
14246SOL    HW143519   4.160   7.520   3.418  0.7598 -1.1559  1.3312
14246SOL    HW243520   4.174   7.507   3.268 -0.6440  1.5093  0.9128
14247SOL     OW43521   6.838   0.931   5.206  0.8973 -0.3878  0.3069
14247SOL    HW143522   6.902   0.875   5.162 -0.1063 -2.4789  1.3396
14247SOL    HW243523   6.857   0.921   5.299 -0.3490 -0.3515  0.5885
14248SOL     OW43524   0.790   5.595   4.385  0.2271  0.0513  0.3621
14248SOL    HW143525   0.884   5.604   4.368  0.2454 -1.7807 -0.8227
14248SOL    HW243526   0.785   5.540   4.463  0.1731 -0.8787 -0.2775
14249SOL     OW43527   6.055   6.680   7.928  0.4470 -0.4544  0.4104
14249SOL    HW143528   6.092   6.769   7.926 -0.7903  0.1900 -3.7050
14249SOL    HW243529   5.992   6.683   7.999  0.7721  1.8330  0.6985
14250SOL     OW43530   5.223   3.028   6.651  0.5656 -0.0448 -0.3489
14250SOL    HW143531   5.181   2.954   6.696 -3.2574  1.7759 -0.5406
14250SOL    HW243532   5.278   3.068   6.718  0.5819 -1.5112  0.5530
14251SOL     OW43533   0.663   6.331   4.848  0.0835  0.2502 -0.1326
14251SOL    HW143534   0.653   6.339   4.943  0.5548 -1.4758  0.1040
14251SOL    HW243535   0.751   6.364   4.830 -0.9848  3.2649 -0.4282
14252SOL     OW43536   5.030   0.937   1.327 -0.1378  0.3649  0.7478
14252SOL    HW143537   4.952   0.993   1.322  0.5965  1.3003 -1.1321
14252SOL    HW243538   5.017   0.872   1.258  1.6977  1.9301 -1.2443
14253SOL     OW43539   0.216   1.075   7.863 -0.3557 -0.0600 -0.1842
14253SOL    HW143540   0.311   1.090   7.869 -0.2047 -1.2523  0.6706
14253SOL    HW243541   0.178   1.163   7.870  0.6334  0.3106  0.8395
14254SOL     OW43542   6.824   6.440   5.063 -0.3268 -0.4199 -0.3236
14254SOL    HW143543   6.870   6.427   5.146  0.1374  2.5942  0.0073
14254SOL    HW243544   6.886   6.409   4.997  0.3268 -0.5362  0.3222
14255SOL     OW43545   7.544   7.115   0.576  0.1369 -0.1386  0.2294
14255SOL    HW143546   7.501   7.120   0.490 -0.3231 -1.4479  0.3654
14255SOL    HW243547   7.638   7.120   0.556  0.1179 -2.1072 -0.5313
14256SOL     OW43548   2.013   1.228   0.433 -0.7427  0.1093  0.3530
14256SOL    HW143549   2.014   1.184   0.347 -2.7236 -0.2672  0.4791
14256SOL    HW243550   2.032   1.158   0.496  0.0398  0.2532  0.2892
14257SOL     OW43551   0.219   5.878   3.459 -0.0923  0.0962 -0.4775
14257SOL    HW143552   0.201   5.809   3.523 -1.1772  1.6232  0.9468
14257SOL    HW243553   0.133   5.905   3.428  0.2787  1.1642 -0.6251
14258SOL     OW43554   3.533   3.755   2.419 -0.3002  0.1638  0.3968
14258SOL    HW143555   3.488   3.818   2.476  0.8884  1.8118 -0.4042
14258SOL    HW243556   3.606   3.723   2.472 -0.6592 -0.2393  0.6562
14259SOL     OW43557   3.836   4.705   6.283  0.2376  0.0637 -0.5163
14259SOL    HW143558   3.801   4.785   6.244  1.9328  0.6777 -0.8393
14259SOL    HW243559   3.765   4.672   6.339 -0.0314  2.4994  0.6903
14260SOL     OW43560   2.842   5.159   3.380 -0.2844 -0.4541  0.0843
14260SOL    HW143561   2.837   5.250   3.410 -0.5099 -0.4239 -0.0457
14260SOL    HW243562   2.874   5.165   3.289 -0.2157 -0.5109  0.1038
14261SOL     OW43563   1.764   5.954   5.643 -0.4142 -0.5234  0.7050
14261SOL    HW143564   1.693   5.902   5.606 -0.9468  0.1633  0.7370
14261SOL    HW243565   1.769   6.031   5.586 -0.1327 -0.2547  1.0860
14262SOL     OW43566   6.390   2.634   3.784  0.2341 -0.4306 -0.1858
14262SOL    HW143567   6.460   2.583   3.744  0.0029 -1.0714  0.2132
14262SOL    HW243568   6.376   2.594   3.869  1.5470  1.6622  1.0910
14263SOL     OW43569   4.350   6.463   6.898  0.6996 -0.0103  0.1088
14263SOL    HW143570   4.273   6.421   6.859  0.0224  1.6130 -0.4071
14263SOL    HW243571   4.411   6.473   6.825  0.0832  1.5731 -0.2209
14264SOL     OW43572   4.043   7.258   0.744 -0.0541 -0.0416  0.4635
14264SOL    HW143573   4.058   7.244   0.837  0.1164 -0.7745  0.3250
14264SOL    HW243574   4.117   7.313   0.716  0.0025  0.0106  0.7121
14265SOL     OW43575   2.364   5.482   7.297 -0.2808 -0.0853  0.7352
14265SOL    HW143576   2.316   5.424   7.356 -0.5196 -2.0575 -1.3023
14265SOL    HW243577   2.325   5.568   7.312 -2.4836 -1.1070  1.2099
14266SOL     OW43578   5.609   0.423   0.488 -0.0494 -0.0589  0.0280
14266SOL    HW143579   5.642   0.372   0.562 -1.4628  3.0905  3.1658
14266SOL    HW243580   5.519   0.392   0.475  0.6106 -1.5062 -1.3757
14267SOL     OW43581   1.461   6.398   3.808  0.3584 -0.2284 -0.4393
14267SOL    HW143582   1.550   6.390   3.774  0.5664 -0.0703  0.0663
14267SOL    HW243583   1.405   6.379   3.733  0.8210 -1.9654 -0.3777
14268SOL     OW43584   7.615   6.103   7.844  0.0769  0.0192  0.1383
14268SOL    HW143585   7.633   6.010   7.851 -0.6729 -0.1039  0.5335
14268SOL    HW243586   7.656   6.130   7.762  2.3163 -0.1624  1.1325
14269SOL     OW43587   0.694   3.109   3.538 -0.0417 -0.4108 -0.3053
14269SOL    HW143588   0.784   3.082   3.558  0.3260  1.2854  0.5330
14269SOL    HW243589   0.644   3.087   3.616  0.4430  1.9632  0.7635
14270SOL     OW43590   4.994   8.021   3.199  0.2156  0.0222  0.5408
14270SOL    HW143591   4.915   8.044   3.149  1.2484  0.1474 -1.0972
14270SOL    HW243592   5.030   8.105   3.227 -0.1343 -0.0278  1.1591
14271SOL     OW43593   4.161   2.066   7.949  0.1254 -0.3073  0.1312
14271SOL    HW143594   4.181   2.100   7.862 -2.4919  1.2809  0.0387
14271SOL    HW243595   4.092   2.001   7.933 -0.6807  0.3068  1.0250
14272SOL     OW43596   2.551   0.946   3.474 -0.0830 -0.1717 -0.0555
14272SOL    HW143597   2.534   0.874   3.535  3.3030  0.3202  1.6919
14272SOL    HW243598   2.595   1.013   3.527 -0.0389  1.7534 -2.3581
14273SOL     OW43599   8.286   5.535   1.834 -0.2418  0.3345  0.4617
14273SOL    HW143600   8.233   5.456   1.832 -1.5047  1.1644 -0.3880
14273SOL    HW243601   8.272   5.575   1.748  1.0540  1.0485  0.5575
14274SOL     OW43602   3.049   5.814   6.257  0.4080 -0.5799  0.0202
14274SOL    HW143603   2.956   5.817   6.278  0.3546 -1.9654  0.0275
14274SOL    HW243604   3.065   5.894   6.207 -0.2902  0.8447  1.9677
14275SOL     OW43605   0.890   4.442   7.927  0.3734 -0.7509 -0.5703
14275SOL    HW143606   0.913   4.425   7.836 -1.2374  0.2839 -1.2325
14275SOL    HW243607   0.846   4.362   7.957 -0.6258 -0.4944 -1.2865
14276SOL     OW43608   4.390   8.297   1.990  0.4826  0.2639  0.0217
14276SOL    HW143609   4.351   8.212   1.968  2.0631 -0.4971  0.0466
14276SOL    HW243610   4.395   8.298   2.086  0.1218  0.5491  0.0392
14277SOL     OW43611   1.380   3.635   4.742  0.1105  0.1928  0.3233
14277SOL    HW143612   1.463   3.594   4.718 -0.4231 -0.5508 -0.2736
14277SOL    HW243613   1.394   3.728   4.725  0.3495 -0.0982 -1.1720
14278SOL     OW43614   5.610   1.090   3.035  0.5986  0.5426  0.2300
14278SOL    HW143615   5.528   1.041   3.024 -0.2645  2.3204 -2.3947
14278SOL    HW243616   5.607   1.121   3.126 -0.7904 -0.8313  0.7047
14279SOL     OW43617   4.897   4.707   0.996 -0.0770  0.2577  0.3538
14279SOL    HW143618   4.826   4.715   1.060 -0.4727  0.9931 -0.1720
14279SOL    HW243619   4.976   4.729   1.045 -0.1334 -1.0197  1.0625
14280SOL     OW43620   0.466   3.798   5.554  0.1831 -0.1643  0.2711
14280SOL    HW143621   0.552   3.781   5.594 -0.5138 -2.2915  1.0365
14280SOL    HW243622   0.479   3.782   5.461  0.8080  0.4292  0.2475
14281SOL     OW43623   7.705   2.460   3.352 -0.3461 -0.1675 -0.0736
14281SOL    HW143624   7.675   2.550   3.363  1.0006  0.6297 -2.2337
14281SOL    HW243625   7.647   2.424   3.285  1.1721  0.2468 -1.6851
14282SOL     OW43626   3.152   8.006   6.052  0.1076  0.3312 -0.2146
14282SOL    HW143627   3.059   7.997   6.074 -0.3457  1.2960 -1.5985
14282SOL    HW243628   3.173   8.097   6.074  0.8770 -0.0137  0.5512
14283SOL     OW43629   0.531   5.413   2.985 -0.0664 -0.1307  0.1784
14283SOL    HW143630   0.499   5.485   3.039 -0.1002  0.5735 -0.7498
14283SOL    HW243631   0.461   5.398   2.921  0.5003 -0.0769 -0.4705
14284SOL     OW43632   2.115   6.362   0.717 -0.3420  0.0705 -0.7211
14284SOL    HW143633   2.121   6.296   0.786 -1.5211  0.7786  0.0869
14284SOL    HW243634   2.071   6.317   0.644 -0.5633 -0.2115 -0.4165
14285SOL     OW43635   0.640   7.975   8.282 -0.3643  0.0078  0.3586
14285SOL    HW143636   0.588   8.019   8.349  0.3823  1.0390  0.2870
14285SOL    HW243637   0.611   8.013   8.199 -0.4621 -0.4105  0.1991
14286SOL     OW43638   5.276   5.907   7.893  0.2961  0.4552  0.3510
14286SOL    HW143639   5.331   5.918   7.971  0.5289 -1.6390  0.5179
14286SOL    HW243640   5.327   5.849   7.836 -1.0976 -0.3081 -0.1440
14287SOL     OW43641   0.505   2.713   3.833 -0.3251 -0.6297 -0.1252
14287SOL    HW143642   0.434   2.679   3.779 -0.0345 -2.2151  0.4183
14287SOL    HW243643   0.465   2.732   3.917 -0.4493  0.2674 -0.3724
14288SOL     OW43644   6.264   0.706   3.465  0.1285  0.2881  0.1055
14288SOL    HW143645   6.351   0.735   3.493  0.4400 -0.7664  0.2814
14288SOL    HW243646   6.229   0.780   3.415  0.7687  1.0596  0.7729
14289SOL     OW43647   7.943   3.875   2.079  0.1818  0.8106 -0.2588
14289SOL    HW143648   7.987   3.791   2.095  1.4079  1.7270  1.5420
14289SOL    HW243649   7.850   3.853   2.083  0.4695 -0.5150 -0.1297
14290SOL     OW43650   0.025   0.828   6.579 -0.0911  0.2716 -0.0098
14290SOL    HW143651  -0.045   0.769   6.553 -0.1014  1.0135 -1.7820
14290SOL    HW243652   0.082   0.834   6.502  1.4211  0.4306  1.0703
14291SOL     OW43653   3.518   6.596   2.106 -0.0761  0.0807 -0.1315
14291SOL    HW143654   3.484   6.654   2.175  1.3972  0.5718  0.2066
14291SOL    HW243655   3.565   6.527   2.152 -1.1739 -1.0028 -0.5693
14292SOL     OW43656   3.207   6.093   2.299  0.0893  0.0137  0.8206
14292SOL    HW143657   3.228   6.149   2.223 -3.8314 -1.0313 -1.2907
14292SOL    HW243658   3.255   6.012   2.282  0.4988  0.3556  0.2869
14293SOL     OW43659   5.099   1.537   2.652  0.3624  0.1638  0.5648
14293SOL    HW143660   5.055   1.621   2.651  0.0211 -0.0156  0.3077
14293SOL    HW243661   5.056   1.486   2.583  1.2694  0.1404 -0.0078
14294SOL     OW43662   1.260   1.271   2.396 -0.1723  0.1167  0.1517
14294SOL    HW143663   1.249   1.344   2.335  0.8785 -0.1586 -0.3935
14294SOL    HW243664   1.199   1.290   2.467 -2.4065 -0.1702 -1.5375
14295SOL     OW43665   5.327   0.236   1.189  0.2627  0.3490  0.1204
14295SOL    HW143666   5.286   0.306   1.241  0.8483  0.3709  0.5658
14295SOL    HW243667   5.255   0.198   1.138 -0.6770 -0.8078  2.1934
14296SOL     OW43668   1.712   4.312   7.373 -0.1279 -0.4942 -0.3371
14296SOL    HW143669   1.682   4.357   7.452  0.1579 -0.0461 -0.4784
14296SOL    HW243670   1.631   4.282   7.330 -0.2990 -0.4585 -0.0420
14297SOL     OW43671   3.117   4.422   3.508 -0.1459 -0.5938  0.4205
14297SOL    HW143672   3.158   4.481   3.570 -1.8569 -1.1267  2.1511
14297SOL    HW243673   3.094   4.477   3.434  1.9026  0.0634  0.2046
14298SOL     OW43674   1.767   3.483   0.608 -0.3366 -0.0874 -0.1119
14298SOL    HW143675   1.843   3.433   0.578 -0.8699 -0.9816 -0.0091
14298SOL    HW243676   1.745   3.540   0.534  1.1242  1.0195  0.2728
14299SOL     OW43677   3.509   0.014   4.860 -0.1604 -0.4389 -0.4615
14299SOL    HW143678   3.516   0.003   4.954  0.7003  1.3184 -0.2725
14299SOL    HW243679   3.488  -0.073   4.827  2.9323 -1.9377  1.0394
14300SOL     OW43680   1.693   0.378   3.384 -0.0331  0.8299  0.3075
14300SOL    HW143681   1.695   0.336   3.470 -1.5108 -0.7521 -0.3616
14300SOL    HW243682   1.620   0.335   3.339  1.9927  0.0332 -2.4884
14301SOL     OW43683   4.096   0.800   3.655  0.2272  0.5489  0.2134
14301SOL    HW143684   4.023   0.858   3.676 -0.9530 -0.4468 -0.9429
14301SOL    HW243685   4.154   0.806   3.731 -0.8259  1.7221  0.9623
14302SOL     OW43686   7.613   1.507   3.482 -0.4431  0.3407 -0.3480
14302SOL    HW143687   7.564   1.539   3.405  1.6337  3.7379 -0.4720
14302SOL    HW243688   7.668   1.437   3.447 -1.3104  0.1379 -1.3842
14303SOL     OW43689   3.941   5.553   3.765 -0.0836  0.1090 -0.5810
14303SOL    HW143690   3.963   5.550   3.858 -1.4185 -0.7694 -0.2637
14303SOL    HW243691   3.872   5.619   3.759 -0.9084 -0.7412 -0.7128
14304SOL     OW43692   2.719   6.744   6.759  0.1630  0.4303  0.2748
14304SOL    HW143693   2.794   6.786   6.716  1.0197 -1.9732 -0.7685
14304SOL    HW243694   2.673   6.700   6.688 -0.8701 -0.1278  1.2638
14305SOL     OW43695   1.434   3.711   2.532 -0.4260  0.0391 -0.3070
14305SOL    HW143696   1.492   3.669   2.596  0.3694  0.8636 -0.4755
14305SOL    HW243697   1.398   3.787   2.579 -3.2448 -1.7094  0.6091
14306SOL     OW43698   4.342   4.296   1.727 -0.0396  0.4808  0.1816
14306SOL    HW143699   4.289   4.224   1.762 -2.4400  1.7342 -0.6235
14306SOL    HW243700   4.337   4.285   1.632 -0.7657  1.8573  0.0280
14307SOL     OW43701   5.741   2.673   6.657 -0.2820 -0.1679  0.2725
14307SOL    HW143702   5.711   2.631   6.576 -2.1581  1.3498  0.1349
14307SOL    HW243703   5.663   2.679   6.712  0.5959  0.4350  1.5015
14308SOL     OW43704   6.543   2.520   4.699 -0.6494  0.0353  0.4880
14308SOL    HW143705   6.588   2.486   4.622  0.2287  0.1801  0.9278
14308SOL    HW243706   6.553   2.615   4.694 -0.2015  0.0222  1.0023
14309SOL     OW43707   6.260   6.468   0.065  0.0691  0.5703 -0.0750
14309SOL    HW143708   6.247   6.390   0.120 -0.3966  0.6630 -0.0443
14309SOL    HW243709   6.247   6.436  -0.024  0.6578  0.4539 -0.1209
14310SOL     OW43710   0.138   2.953   4.306 -0.3437 -0.0388 -0.0887
14310SOL    HW143711   0.210   2.984   4.360 -0.6504 -0.1931  0.4147
14310SOL    HW243712   0.180   2.916   4.228  0.0511  1.1629 -0.4715
14311SOL     OW43713   0.703   7.045   7.927 -0.2559  0.0633 -0.3656
14311SOL    HW143714   0.636   7.113   7.939  1.4681  1.8972 -0.4896
14311SOL    HW243715   0.764   7.060   7.999  0.3629 -1.1453 -0.6216
14312SOL     OW43716   1.994   0.025   8.141 -0.8540 -0.5442  0.2176
14312SOL    HW143717   1.928   0.047   8.206 -0.5083 -0.7690  0.6533
14312SOL    HW243718   1.991   0.097   8.078  0.1044  0.6511  1.4933
14313SOL     OW43719   4.562   6.446   0.016  0.0294 -0.1468 -0.7029
14313SOL    HW143720   4.622   6.460   0.089  0.6136 -0.5728 -1.0958
14313SOL    HW243721   4.541   6.534  -0.015 -1.0142  0.0849  0.6029
14314SOL     OW43722   4.361   5.725   7.670 -0.4080 -0.1748 -0.4384
14314SOL    HW143723   4.372   5.637   7.634 -0.0436  0.3400 -1.6292
14314SOL    HW243724   4.447   5.766   7.661 -0.2166 -0.1216  1.3389
14315SOL     OW43725   3.850   2.254   2.602  0.3934 -0.0574  0.2368
14315SOL    HW143726   3.776   2.204   2.636  0.3037 -1.3240 -1.7114
14315SOL    HW243727   3.923   2.192   2.599  0.1018 -0.3645 -2.8642
14316SOL     OW43728   5.644   1.573   3.857 -0.4094  0.0837 -0.2287
14316SOL    HW143729   5.642   1.482   3.886  0.5799  0.5278  1.3965
14316SOL    HW243730   5.724   1.608   3.897 -0.4203  1.4885 -1.3764
14317SOL     OW43731   1.548   4.037   3.189 -0.4298 -0.4315  0.3768
14317SOL    HW143732   1.588   4.076   3.112 -2.1139  0.6354  0.0006
14317SOL    HW243733   1.618   4.037   3.255  0.3483  0.8067 -0.4175
14318SOL     OW43734   0.664   3.990   6.202 -0.0387 -0.0291  0.1987
14318SOL    HW143735   0.704   4.025   6.281 -0.0970  0.8529 -0.1385
14318SOL    HW243736   0.731   3.936   6.161  0.0769 -0.2754  0.7147
14319SOL     OW43737   5.724   4.825   0.713  0.2412 -0.0707  0.3570
14319SOL    HW143738   5.696   4.827   0.804  0.0156  1.1793  0.2853
14319SOL    HW243739   5.643   4.824   0.662  0.3634 -1.0432  0.1540
14320SOL     OW43740   1.648   0.462   2.726  0.0207 -0.3250 -0.7059
14320SOL    HW143741   1.669   0.554   2.745 -0.9736 -0.4142  1.0532
14320SOL    HW243742   1.555   0.464   2.703 -0.4785 -1.0692  1.0991
14321SOL     OW43743   4.161   4.065   4.250 -0.1926 -0.1275 -0.1681
14321SOL    HW143744   4.150   4.022   4.165 -0.2736  0.8207 -0.6510
14321SOL    HW243745   4.098   4.021   4.307 -1.5583  0.5347 -1.1187
14322SOL     OW43746   6.947   3.576   1.570 -0.4376  0.2484  0.5494
14322SOL    HW143747   6.933   3.670   1.564  0.5760  0.4246  0.8336
14322SOL    HW243748   6.917   3.553   1.658 -1.5856  0.1234  0.1492
14323SOL     OW43749   0.747   8.080   4.738  0.2185 -0.4157 -0.7459
14323SOL    HW143750   0.805   8.005   4.743  1.6547  0.6324 -1.1055
14323SOL    HW243751   0.673   8.050   4.684  1.3005 -1.2313 -1.8262
14324SOL     OW43752   2.673   1.070   1.137 -0.2156  0.2742  0.3918
14324SOL    HW143753   2.669   1.133   1.065 -1.1774  1.4320  1.4149
14324SOL    HW243754   2.585   1.033   1.142 -0.3735  0.7718  1.4529
14325SOL     OW43755   6.683   7.449   5.879 -0.0424  0.2532  0.6186
14325SOL    HW143756   6.658   7.381   5.942 -1.5967 -0.0905 -0.3113
14325SOL    HW243757   6.609   7.510   5.879  1.0704  1.6437  0.9865
14326SOL     OW43758   3.370   6.567   1.517 -0.4458  0.5987 -0.1859
14326SOL    HW143759   3.386   6.632   1.585  0.7423 -0.8647  0.9954
14326SOL    HW243760   3.406   6.485   1.552 -1.4696 -0.6166 -1.8064
14327SOL     OW43761   5.441   3.632   2.373  0.4280  0.6119  0.0252
14327SOL    HW143762   5.377   3.688   2.416  0.9639  0.7136  0.7186
14327SOL    HW243763   5.439   3.551   2.423  0.0748  0.2206 -0.6151
14328SOL     OW43764   2.626   7.523   0.707 -0.0065 -0.1010  0.6458
14328SOL    HW143765   2.650   7.588   0.773 -0.3292  0.3536  0.3196
14328SOL    HW243766   2.584   7.453   0.758  0.4795 -0.1310  1.0161
14329SOL     OW43767   8.121   6.994   7.597  0.2938  0.0280  0.0328
14329SOL    HW143768   8.193   6.950   7.552  0.1005 -0.0986 -0.1597
14329SOL    HW243769   8.087   7.055   7.531  0.7454  0.6784  0.3940
14330SOL     OW43770   0.218   4.550   3.295 -0.4165  0.4087  0.2614
14330SOL    HW143771   0.229   4.550   3.390  1.0238  0.4049  0.1168
14330SOL    HW243772   0.173   4.468   3.276 -0.1763  0.1259  0.8896
14331SOL     OW43773   2.234   1.406   2.261 -0.5037  0.3095  0.8437
14331SOL    HW143774   2.184   1.475   2.305  2.3894  1.7473  2.1241
14331SOL    HW243775   2.244   1.337   2.326 -1.3743 -0.3031  0.3485
14332SOL     OW43776   2.695   5.721   5.573  0.1995 -0.2051 -0.1017
14332SOL    HW143777   2.740   5.656   5.628 -0.0089 -0.0097  0.2978
14332SOL    HW243778   2.607   5.727   5.610  1.2076  2.9086  2.1455
14333SOL     OW43779   5.323   1.679   0.580  0.2290  0.1508 -0.1733
14333SOL    HW143780   5.298   1.660   0.671 -1.0983  1.4223 -0.2394
14333SOL    HW243781   5.388   1.612   0.560  2.0128  0.9770  2.3297
14334SOL     OW43782   5.698   6.921   3.165  0.3177 -0.2930  0.7632
14334SOL    HW143783   5.681   6.935   3.072 -0.2711  0.8452  1.0111
14334SOL    HW243784   5.667   7.002   3.206  1.2167 -0.4948  1.8709
14335SOL     OW43785   7.572   6.985   3.715 -0.2646 -0.5650  0.1309
14335SOL    HW143786   7.620   6.993   3.633  0.0805 -0.0687  0.3739
14335SOL    HW243787   7.628   6.930   3.770  1.0510  1.6397  1.1308
14336SOL     OW43788   3.253   4.243   0.601 -0.3467  0.2642  0.4642
14336SOL    HW143789   3.231   4.336   0.595 -0.6078  0.1608 -0.3812
14336SOL    HW243790   3.171   4.200   0.623 -0.2657  0.2115  0.6676
14337SOL     OW43791   1.966   3.628   0.971 -0.5247 -0.0645 -0.2734
14337SOL    HW143792   2.046   3.577   0.984 -1.6134 -1.8132 -0.1419
14337SOL    HW243793   1.945   3.663   1.058 -0.3158 -0.2214 -0.1594
14338SOL     OW43794   7.103   5.393   0.352  0.3370 -0.3370  0.7033
14338SOL    HW143795   7.113   5.298   0.356  2.5382 -0.2292 -0.8129
14338SOL    HW243796   7.192   5.427   0.344 -0.5394  1.6496 -1.9800
14339SOL     OW43797   1.929   0.566   7.892 -0.4378 -0.2864  0.1701
14339SOL    HW143798   1.856   0.564   7.829 -1.0640  3.7355  0.5199
14339SOL    HW243799   2.007   0.576   7.837 -0.7912  1.2019 -0.1098
14340SOL     OW43800   8.224   0.051   2.043  0.6687  0.6801  0.6715
14340SOL    HW143801   8.192   0.137   2.017  1.5771  1.7096  2.7428
14340SOL    HW243802   8.154  -0.010   2.019  0.2036  1.8773 -1.2666
14341SOL     OW43803   0.240   4.260   1.909 -0.1540 -0.2521  0.3107
14341SOL    HW143804   0.145   4.251   1.920 -0.1757 -1.2792 -0.5998
14341SOL    HW243805   0.265   4.328   1.972 -1.5890  0.5005  0.1028
14342SOL     OW43806   3.885   2.633   7.428  0.1406 -0.6734 -0.0159
14342SOL    HW143807   3.827   2.560   7.411 -0.6865 -0.0826  0.2278
14342SOL    HW243808   3.871   2.655   7.520 -0.7853  0.7730 -0.4752
14343SOL     OW43809   0.008   7.251   6.824 -0.4109  0.6150 -0.0194
14343SOL    HW143810   0.087   7.275   6.872 -0.3009  0.8867 -0.3355
14343SOL    HW243811  -0.037   7.334   6.809 -1.0306  0.4115  0.6294
14344SOL     OW43812   1.656   5.802   7.053  0.3624  0.2129 -1.0790
14344SOL    HW143813   1.623   5.856   6.981 -0.1315 -0.2331 -1.1917
14344SOL    HW243814   1.718   5.742   7.011  0.6756  0.4782 -1.0024
14345SOL     OW43815   4.629   1.391   0.298  0.7703  0.3983 -0.0714
14345SOL    HW143816   4.710   1.375   0.249  0.2358 -2.9459 -0.0772
14345SOL    HW243817   4.632   1.328   0.370 -0.4370  2.3493  1.7906
14346SOL     OW43818   2.240   7.626   0.926 -0.8300  0.4342  0.1459
14346SOL    HW143819   2.182   7.683   0.875 -0.7844  0.7797  0.4783
14346SOL    HW243820   2.196   7.616   1.010 -0.3697  0.7752  0.4343
14347SOL     OW43821   1.258   5.185   6.905 -0.3005 -0.0915  0.0960
14347SOL    HW143822   1.307   5.116   6.859 -0.2219 -0.1610  0.2845
14347SOL    HW243823   1.182   5.201   6.849 -0.9962 -1.2247  0.6687
14348SOL     OW43824   4.210   5.966   7.624 -0.1100  0.3932  0.3145
14348SOL    HW143825   4.273   6.035   7.602 -1.4369  1.0209 -1.7443
14348SOL    HW243826   4.257   5.884   7.606  0.0494  0.8535 -1.5413
14349SOL     OW43827   6.044   5.479   2.247 -0.4393 -0.2837 -0.4070
14349SOL    HW143828   6.069   5.439   2.164  0.2135 -2.5741  0.8245
14349SOL    HW243829   6.039   5.406   2.309  0.1795  1.4715  1.8426
14350SOL     OW43830   2.361   3.150   1.323  0.8649  0.1499 -0.4674
14350SOL    HW143831   2.266   3.141   1.337  0.9037 -0.4336 -0.5670
14350SOL    HW243832   2.368   3.204   1.244  0.6195  0.4307 -0.2994
14351SOL     OW43833   6.511   8.003   6.225  0.6650 -0.5875 -0.0326
14351SOL    HW143834   6.550   7.929   6.271 -1.5537 -1.1437  1.0885
14351SOL    HW243835   6.441   7.964   6.173 -2.0211  0.8467  2.2589
14352SOL     OW43836   8.022   5.020   3.875  0.3728 -0.2709 -0.1000
14352SOL    HW143837   8.026   4.956   3.805  0.1538 -0.2800 -0.1065
14352SOL    HW243838   7.944   5.072   3.855  0.7846  0.2710 -0.3318
14353SOL     OW43839   1.731   0.756   4.764  0.7969 -0.4206  0.1015
14353SOL    HW143840   1.639   0.741   4.742  0.3263  0.1673  1.5257
14353SOL    HW243841   1.780   0.709   4.697 -0.5461 -1.1723 -0.3926
14354SOL     OW43842   1.359   7.015   3.866  0.4308  0.2069 -0.4241
14354SOL    HW143843   1.313   7.094   3.838  0.5953 -0.4882 -2.8973
14354SOL    HW243844   1.295   6.966   3.917 -0.6373  0.5972 -1.3618
14355SOL     OW43845   5.702   4.346   3.668 -0.4397 -0.1163  0.0486
14355SOL    HW143846   5.675   4.424   3.619  2.3638  0.3883 -0.8803
14355SOL    HW243847   5.742   4.381   3.748 -1.0997 -0.7476  0.6775
14356SOL     OW43848   1.738   2.671   3.849 -0.3804 -0.0578 -0.2024
14356SOL    HW143849   1.658   2.720   3.867  0.3072  1.0648 -0.1460
14356SOL    HW243850   1.808   2.722   3.890  0.9490  1.3928 -3.8137
14357SOL     OW43851   0.912   4.723   3.671  0.3304  0.3531 -0.1862
14357SOL    HW143852   0.823   4.733   3.705 -0.0077  1.0911 -1.2376
14357SOL    HW243853   0.959   4.675   3.740 -1.3051 -1.5554 -0.3284
14358SOL     OW43854   7.607   4.018   4.589  0.3104  0.0795  0.3756
14358SOL    HW143855   7.614   3.961   4.512 -0.5596  0.0501  0.3056
14358SOL    HW243856   7.560   3.965   4.653 -0.6154  0.7431  0.2683
14359SOL     OW43857   7.503   5.345   4.271  0.6111 -0.1431 -0.4095
14359SOL    HW143858   7.544   5.425   4.304  0.2364  0.5867 -1.6262
14359SOL    HW243859   7.533   5.338   4.180 -0.0935 -0.8796 -0.6045
14360SOL     OW43860   2.541   5.470   6.472 -0.5979  0.5977 -0.1415
14360SOL    HW143861   2.459   5.510   6.443 -1.2432 -1.8013 -1.9607
14360SOL    HW243862   2.515   5.383   6.504  1.1104  0.2201  0.3233
14361SOL     OW43863   0.055   5.016   2.474 -0.4576  0.2954  0.9964
14361SOL    HW143864   0.078   4.945   2.534  1.0165  0.4428  0.6588
14361SOL    HW243865   0.137   5.036   2.429 -1.3491  0.6871 -0.5378
14362SOL     OW43866   5.444   7.405   0.906 -0.2173 -1.4282 -0.3774
14362SOL    HW143867   5.380   7.464   0.865  0.8102 -0.1397 -0.2170
14362SOL    HW243868   5.446   7.433   0.998  0.6378 -1.3721 -0.4046
14363SOL     OW43869   4.411   0.619   1.203 -0.2467 -0.4438 -0.1572
14363SOL    HW143870   4.321   0.615   1.171 -0.1710  0.2377 -0.4593
14363SOL    HW243871   4.418   0.545   1.263 -1.3070  0.0799  0.6448
14364SOL     OW43872   8.293   5.923   7.936  0.0683  0.4607 -0.0315
14364SOL    HW143873   8.288   5.850   7.875 -0.5971 -1.3911  2.0897
14364SOL    HW243874   8.233   5.989   7.900 -2.3122 -1.6028 -0.1318
14365SOL     OW43875   3.755   8.137   8.007  0.3835  0.7072 -0.2268
14365SOL    HW143876   3.787   8.185   8.083 -2.0812  2.8951 -0.4363
14365SOL    HW243877   3.785   8.187   7.931 -1.5600  1.6308 -0.4666
14366SOL     OW43878   1.824   6.361   0.435  0.3251 -0.6578  0.0353
14366SOL    HW143879   1.810   6.430   0.370  0.6080  0.1730  0.8272
14366SOL    HW243880   1.749   6.367   0.493  0.1429 -1.3019 -0.1259
14367SOL     OW43881   0.186   3.784   1.200  0.4403  0.8179  0.3086
14367SOL    HW143882   0.139   3.716   1.247  1.1752  0.3835  0.4227
14367SOL    HW243883   0.170   3.864   1.251  0.2948  0.5665  0.6575
14368SOL     OW43884   0.291   1.233   6.594  0.2457 -0.8991 -0.2319
14368SOL    HW143885   0.209   1.199   6.630  0.4576 -1.6398 -0.4299
14368SOL    HW243886   0.288   1.327   6.612 -0.3910 -1.0059  0.2586
14369SOL     OW43887   6.314   5.673   6.584  0.1269  0.0786  0.0340
14369SOL    HW143888   6.367   5.727   6.525  0.4238 -0.0024  0.2267
14369SOL    HW243889   6.223   5.691   6.557  0.1515  1.6044  0.8814
14370SOL     OW43890   3.941   2.113   3.620  0.4261 -0.7015 -0.1879
14370SOL    HW143891   3.970   2.070   3.701 -1.3268 -1.4097  0.1052
14370SOL    HW243892   4.017   2.107   3.561  1.7077 -0.2582  1.3288
14371SOL     OW43893   4.828   0.968   7.547 -0.4593 -0.0838  0.1957
14371SOL    HW143894   4.875   0.909   7.487  0.0818 -0.7425  1.2226
14371SOL    HW243895   4.803   0.912   7.621 -1.2410  0.6721  0.5222
14372SOL     OW43896   3.228   1.486   6.886  0.4520  0.3897 -0.8272
14372SOL    HW143897   3.253   1.489   6.794 -0.1862 -1.2581 -1.0787
14372SOL    HW243898   3.276   1.412   6.922 -1.2521 -0.5889 -0.4656
14373SOL     OW43899   8.025   5.051   7.579 -0.3912 -0.0357  0.2311
14373SOL    HW143900   8.014   5.071   7.672  0.4803 -1.1970  0.6076
14373SOL    HW243901   8.119   5.060   7.564 -0.4165 -0.6549 -0.3379
14374SOL     OW43902   6.239   8.097   3.301 -0.2716 -0.4615 -0.0010
14374SOL    HW143903   6.272   8.058   3.220 -0.8053  2.2416 -1.6418
14374SOL    HW243904   6.151   8.060   3.310  0.4577 -2.2095  0.4565
14375SOL     OW43905   2.298   4.411   4.464 -0.1917  0.8411  0.3629
14375SOL    HW143906   2.226   4.442   4.409 -0.0796  2.9175  1.2885
14375SOL    HW243907   2.288   4.460   4.546  2.2079  1.1450  0.5436
14376SOL     OW43908   2.432   1.597   7.203  0.6162  0.2088  0.9532
14376SOL    HW143909   2.524   1.588   7.229  1.2352  0.1413 -1.1175
14376SOL    HW243910   2.435   1.624   7.111 -1.4532 -0.7120  0.5585
14377SOL     OW43911   1.127   3.203   7.821  0.0631 -0.3008  0.2509
14377SOL    HW143912   1.134   3.220   7.914  1.3201 -1.2632  0.3613
14377SOL    HW243913   1.034   3.212   7.801  0.0617  2.1775  1.1168
14378SOL     OW43914   6.960   3.589   0.546  0.3653 -0.2846 -0.0468
14378SOL    HW143915   7.008   3.506   0.552 -0.9489 -1.0087  1.1654
14378SOL    HW243916   6.869   3.562   0.532 -0.2694  0.8960  1.5538
14379SOL     OW43917   1.010   6.844   2.841  0.7183  0.0296  0.9178
14379SOL    HW143918   1.036   6.771   2.785 -1.5989 -0.6182  0.5818
14379SOL    HW243919   0.930   6.814   2.885  0.4412  1.8697  1.7744
14380SOL     OW43920   7.404   6.555   2.262 -0.1616  0.0982 -0.2257
14380SOL    HW143921   7.478   6.591   2.214 -0.9465  1.2309 -0.6503
14380SOL    HW243922   7.442   6.490   2.322  1.5089  2.3761  1.3620
14381SOL     OW43923   0.796   7.608   1.225  0.7796 -0.0399 -0.1843
14381SOL    HW143924   0.873   7.561   1.257  1.0291  1.1050  0.9675
14381SOL    HW243925   0.775   7.670   1.294 -0.4633  0.4951 -1.0075
14382SOL     OW43926   1.254   2.896   5.516  0.1744 -0.3970  0.1829
14382SOL    HW143927   1.291   2.814   5.547 -0.4705 -1.5805 -1.9582
14382SOL    HW243928   1.170   2.871   5.476 -1.5890  1.7562  2.2214
14383SOL     OW43929   0.542   3.823   7.529  0.2004  0.0420 -0.1210
14383SOL    HW143930   0.457   3.846   7.565 -1.0266 -0.9255 -2.2419
14383SOL    HW243931   0.560   3.891   7.464 -1.3652 -2.2489 -3.2074
14384SOL     OW43932   4.997   1.684   3.525  0.1426 -0.6150 -0.0019
14384SOL    HW143933   4.982   1.669   3.432  0.7525  0.2964 -0.2610
14384SOL    HW243934   5.005   1.779   3.533  0.2687 -0.6931  0.9596
14385SOL     OW43935   3.242   3.222   8.166  0.5139  0.0335 -0.2811
14385SOL    HW143936   3.212   3.311   8.183 -0.4860 -0.5894  1.4215
14385SOL    HW243937   3.307   3.205   8.234  1.7405 -0.1000 -1.4318
14386SOL     OW43938   4.701   3.124   1.604 -0.3122 -0.5536 -0.3254
14386SOL    HW143939   4.733   3.043   1.645  0.1624 -0.5579 -0.6936
14386SOL    HW243940   4.634   3.094   1.542 -0.5076 -0.6168 -0.0819
14387SOL     OW43941   7.810   3.790   4.918 -0.2932  0.4398  0.3495
14387SOL    HW143942   7.755   3.864   4.941  0.4505  0.7039  1.3541
14387SOL    HW243943   7.887   3.829   4.876  0.4231  0.3038  1.5160
14388SOL     OW43944   1.118   5.051   3.783  0.3026  0.3491  0.2257
14388SOL    HW143945   1.071   5.038   3.700  0.4554 -0.5087  0.2595
14388SOL    HW243946   1.209   5.030   3.761  0.3681  0.2729  0.5738
14389SOL     OW43947   6.395   7.192   0.964 -0.2368 -0.3705 -0.3938
14389SOL    HW143948   6.431   7.147   1.040 -0.8030 -0.8286 -0.3879
14389SOL    HW243949   6.301   7.175   0.969 -0.5347  1.2471 -0.1033
14390SOL     OW43950   4.353   0.161   3.822 -0.2331 -0.6294  0.5553
14390SOL    HW143951   4.314   0.184   3.738  1.2317  2.0163  0.5025
14390SOL    HW243952   4.289   0.190   3.887  0.3128  1.0087  0.4002
14391SOL     OW43953   1.246   6.969   2.753  0.2231 -0.5916  0.3432
14391SOL    HW143954   1.265   6.892   2.700  1.4518 -1.4524  1.9501
14391SOL    HW243955   1.169   6.945   2.805 -0.3500 -0.1269 -0.2642
14392SOL     OW43956   4.802   2.181   0.042  0.2958  0.0840 -0.5207
14392SOL    HW143957   4.879   2.182   0.098 -0.2662 -0.2050  0.2682
14392SOL    HW243958   4.733   2.222   0.094  0.0707  0.9602 -1.4642
14393SOL     OW43959   6.094   3.832   4.168  0.0014  0.5203  0.2303
14393SOL    HW143960   6.133   3.809   4.084  0.9075 -0.5176  0.9043
14393SOL    HW243961   6.002   3.846   4.149  0.3553  1.1605 -1.0809
14394SOL     OW43962   5.299   6.305   2.169  0.4432  0.6519 -0.0096
14394SOL    HW143963   5.370   6.257   2.212 -0.2510 -0.5349 -0.1581
14394SOL    HW243964   5.341   6.385   2.137  1.5546  0.3109  0.5189
14395SOL     OW43965   1.140   3.630   5.995  0.3104 -0.0038 -0.3052
14395SOL    HW143966   1.222   3.583   5.987  1.1428  0.4285  3.7931
14395SOL    HW243967   1.096   3.591   6.070 -1.9948  1.5509 -0.7246
14396SOL     OW43968   7.371   1.667   1.799  0.1023 -0.6182  0.7710
14396SOL    HW143969   7.455   1.713   1.792  0.8559 -1.8274  1.5980
14396SOL    HW243970   7.384   1.586   1.750 -1.2790  0.0558 -0.8372
14397SOL     OW43971   2.165   1.456   1.786 -0.0495 -0.3838 -0.3986
14397SOL    HW143972   2.082   1.461   1.737 -1.0452 -1.1071  1.1217
14397SOL    HW243973   2.142   1.407   1.865  1.4744  0.8680  0.8585
14398SOL     OW43974   1.826   1.547   4.209  0.7742 -0.1076 -0.0682
14398SOL    HW143975   1.841   1.552   4.304 -0.9318 -1.2008  0.3155
14398SOL    HW243976   1.747   1.599   4.195  1.4316  0.6424 -1.0154
14399SOL     OW43977   5.884   2.286   8.275  0.1351  0.3999 -0.5696
14399SOL    HW143978   5.973   2.309   8.300  0.0823  0.0957 -0.0995
14399SOL    HW243979   5.860   2.353   8.210  0.0178  1.6170  0.6897
14400SOL     OW43980   4.884   7.617   4.912 -0.1066 -0.0067 -0.0676
14400SOL    HW143981   4.975   7.634   4.888  0.9241 -2.1693  1.8356
14400SOL    HW243982   4.863   7.534   4.870 -1.2904  0.5552 -0.6233
14401SOL     OW43983   2.290   1.227   2.447 -0.3021  0.0924 -0.4510
14401SOL    HW143984   2.348   1.161   2.409 -0.9092  0.1408 -1.4754
14401SOL    HW243985   2.220   1.176   2.488  0.2141  0.0509  0.4140
14402SOL     OW43986   4.110   5.112   2.236 -0.0801 -0.5857 -0.0796
14402SOL    HW143987   4.082   5.041   2.177 -0.5605 -0.1564 -0.3856
14402SOL    HW243988   4.156   5.173   2.179 -3.4049  1.5220 -0.8147
14403SOL     OW43989   7.000   7.683   6.122  0.4589  0.2976 -0.1190
14403SOL    HW143990   7.085   7.661   6.161 -0.2591  0.1428  1.4634
14403SOL    HW243991   6.983   7.611   6.061  1.8004  0.7432 -1.0676
14404SOL     OW43992   5.231   5.704   4.573  0.0239  0.5578  0.2490
14404SOL    HW143993   5.160   5.762   4.547  0.1606  0.3065 -0.7526
14404SOL    HW243994   5.204   5.618   4.540  0.4234  0.3111  0.5646
14405SOL     OW43995   8.047   5.309   5.719  0.2650 -0.5376 -0.2773
14405SOL    HW143996   8.006   5.299   5.633  0.9472 -0.3590 -0.6241
14405SOL    HW243997   7.994   5.254   5.776 -0.1521 -0.7167 -0.8218
14406SOL     OW43998   0.670   5.916   3.171 -1.2240  0.2275  0.4087
14406SOL    HW143999   0.654   6.010   3.173 -0.5099  0.3592  0.3215
14406SOL    HW244000   0.588   5.876   3.199 -2.0230  0.8170 -0.9889
14407SOL     OW44001   0.881   4.642   1.770 -0.5806 -0.2027  0.0722
14407SOL    HW144002   0.803   4.593   1.796 -0.5270 -0.8133 -0.8717
14407SOL    HW244003   0.930   4.654   1.851 -1.2321 -0.5822  0.5303
14408SOL     OW44004   3.277   5.457   6.985 -0.1310 -0.5882  0.2817
14408SOL    HW144005   3.278   5.472   6.891  0.9245  0.0323  0.3731
14408SOL    HW244006   3.357   5.406   7.002  0.1191  0.0004  0.9288
14409SOL     OW44007   5.730   7.858   3.871 -0.1471 -0.3703 -0.0087
14409SOL    HW144008   5.672   7.798   3.919  0.4643  0.1929  1.5264
14409SOL    HW244009   5.671   7.917   3.825 -0.8704  0.3539  1.7274
14410SOL     OW44010   0.285   1.675   4.206  0.2122 -0.1806  0.0383
14410SOL    HW144011   0.201   1.631   4.217 -0.8381  1.9585  1.1808
14410SOL    HW244012   0.348   1.618   4.249 -0.3658 -2.4037 -1.7963
14411SOL     OW44013   6.621   5.738   3.132 -0.6239 -0.2565 -0.8389
14411SOL    HW144014   6.631   5.834   3.137 -2.1868 -0.1120 -0.1020
14411SOL    HW244015   6.616   5.720   3.039  0.1995  0.3128 -1.0088
14412SOL     OW44016   8.041   5.992   0.319 -0.1120 -0.0619  0.1092
14412SOL    HW144017   7.965   5.934   0.315 -0.8464  0.9369 -1.2376
14412SOL    HW244018   8.044   6.021   0.410  0.2042 -2.0582  0.8002
14413SOL     OW44019   8.116   2.085   2.109 -0.3471  0.7685  0.2360
14413SOL    HW144020   8.193   2.120   2.064 -0.5572  1.8584  0.6836
14413SOL    HW244021   8.151   2.025   2.174  0.1509  1.3818  0.5480
14414SOL     OW44022   8.002   3.060   1.584 -0.2600 -0.0095  0.0123
14414SOL    HW144023   7.915   3.019   1.585 -0.0385 -0.4879  0.0617
14414SOL    HW244024   7.988   3.145   1.626 -0.7343 -0.0177 -0.1168
14415SOL     OW44025   1.997   8.116   0.544 -0.0517  0.3103 -0.1374
14415SOL    HW144026   1.996   8.195   0.598  0.2907  0.1618  0.0939
14415SOL    HW244027   2.090   8.095   0.534 -0.1416 -0.0942 -0.1548
14416SOL     OW44028   2.149   4.591   6.611 -0.4282  0.0217 -0.1273
14416SOL    HW144029   2.149   4.518   6.673 -0.3715 -1.4923 -1.8083
14416SOL    HW244030   2.189   4.663   6.659 -0.2643 -1.1116  1.5388
14417SOL     OW44031   4.275   7.814   3.632  0.3250  0.1179 -0.3712
14417SOL    HW144032   4.188   7.854   3.627 -0.6545 -1.7642  0.3780
14417SOL    HW244033   4.332   7.885   3.661 -0.7062  1.6975 -1.9584
14418SOL     OW44034   4.336   6.517   2.473 -0.4474 -0.4468 -0.3984
14418SOL    HW144035   4.343   6.434   2.521 -1.1931 -0.7405 -0.7864
14418SOL    HW244036   4.427   6.540   2.452 -0.2631 -1.4963 -0.8366
14419SOL     OW44037   3.056   1.154   5.596 -0.4798 -0.6322 -0.4385
14419SOL    HW144038   2.970   1.196   5.586 -1.1214 -1.6250  0.6315
14419SOL    HW244039   3.070   1.110   5.513 -0.5668  0.3078 -0.9661
14420SOL     OW44040   7.094   1.133   6.994 -0.2940  0.1744  0.5207
14420SOL    HW144041   7.010   1.097   7.024 -0.4832 -0.4110 -0.6136
14420SOL    HW244042   7.160   1.084   7.043 -0.5967 -0.4564  0.3167
14421SOL     OW44043   2.983   1.362   3.602 -0.5052 -0.5853  0.3863
14421SOL    HW144044   2.980   1.430   3.668  0.5561 -1.6235  1.5589
14421SOL    HW244045   2.894   1.358   3.567 -1.0159  0.1779  1.5475
14422SOL     OW44046   7.001   0.565   1.750  1.2765  0.0052 -0.1770
14422SOL    HW144047   7.091   0.579   1.720  0.9817  0.3309 -0.9275
14422SOL    HW244048   6.959   0.520   1.677  0.6450  0.4870 -0.1143
14423SOL     OW44049   6.308   3.238   3.867 -0.3193  0.1210 -0.1427
14423SOL    HW144050   6.341   3.157   3.907  0.2724  1.5424  2.4661
14423SOL    HW244051   6.386   3.281   3.832 -0.2689  0.6086  0.5433
14424SOL     OW44052   5.726   1.733   2.909  0.2660  0.1400 -0.0342
14424SOL    HW144053   5.655   1.677   2.942 -0.5453  0.1141 -1.7325
14424SOL    HW244054   5.763   1.684   2.836 -0.5507  1.8110 -1.6545
14425SOL     OW44055   0.170   6.305   8.028  0.3724  0.0056  0.3530
14425SOL    HW144056   0.187   6.395   8.002  1.6246 -0.3998 -0.3512
14425SOL    HW244057   0.099   6.310   8.091  0.7603  1.5241  0.6931
14426SOL     OW44058   7.444   6.376   3.169  0.2093  0.3640 -0.3669
14426SOL    HW144059   7.507   6.338   3.230  0.1273  2.0122  0.8034
14426SOL    HW244060   7.389   6.432   3.223 -1.8276 -0.4536 -1.4752
14427SOL     OW44061   1.926   7.751   0.115 -0.5275 -0.0013 -0.5471
14427SOL    HW144062   1.911   7.665   0.076 -2.3308  0.9521 -2.1182
14427SOL    HW244063   1.952   7.732   0.205 -1.6390 -2.1935 -0.6163
14428SOL     OW44064   0.732   3.421   6.401 -0.6096  0.8129  0.2466
14428SOL    HW144065   0.810   3.476   6.408  0.1237 -0.1489 -0.2294
14428SOL    HW244066   0.757   3.339   6.442 -0.7072 -0.1913 -1.6058
14429SOL     OW44067   3.921   7.033   0.647  0.0857 -0.0128  0.4055
14429SOL    HW144068   3.989   7.015   0.581 -1.2434  0.9572 -1.2888
14429SOL    HW244069   3.949   7.115   0.688  0.0170  0.3088 -0.1849
14430SOL     OW44070   3.668   7.317   2.454  0.4693 -0.0681 -0.4608
14430SOL    HW144071   3.600   7.350   2.395  1.8236  0.2067 -1.9597
14430SOL    HW244072   3.627   7.243   2.499 -1.2094  0.8840 -0.3476
14431SOL     OW44073   6.381   6.291   5.971  0.1785  0.5627 -0.3094
14431SOL    HW144074   6.462   6.259   6.010 -0.0976 -1.2168 -1.0660
14431SOL    HW244075   6.403   6.304   5.878 -0.5495 -0.6264 -0.6709
14432SOL     OW44076   1.319   2.562   5.882  0.0900 -0.5109  0.4590
14432SOL    HW144077   1.327   2.468   5.872 -0.3867 -0.4352 -0.8131
14432SOL    HW244078   1.229   2.576   5.912  0.6187 -0.5343  2.1746
14433SOL     OW44079   2.567   0.319   0.271  0.1238  0.1230 -0.6193
14433SOL    HW144080   2.602   0.280   0.350  1.3571  0.1022 -1.1543
14433SOL    HW244081   2.597   0.262   0.200  0.2432  0.9238 -1.2282
14434SOL     OW44082   0.242   3.498   7.446  0.2797  0.0726  0.2326
14434SOL    HW144083   0.300   3.510   7.521  0.2829 -0.7354  0.3663
14434SOL    HW244084   0.156   3.479   7.484  0.6797 -2.3015  0.0794
14435SOL     OW44085   2.814   7.231   8.158  0.2563 -0.1380 -0.1613
14435SOL    HW144086   2.755   7.155   8.154 -0.4661  0.4212 -0.2784
14435SOL    HW244087   2.898   7.198   8.125  0.3036 -1.2137  0.9554
14436SOL     OW44088   7.384   3.948   2.915 -0.2603  0.1744 -0.2190
14436SOL    HW144089   7.337   3.935   2.997  1.2755  0.7648  0.8124
14436SOL    HW244090   7.320   3.929   2.847 -1.0069 -2.5233  1.0858
14437SOL     OW44091   8.121   8.144   6.654  0.3114  0.0947 -0.7192
14437SOL    HW144092   8.107   8.054   6.684 -1.6600  0.4403 -0.4613
14437SOL    HW244093   8.112   8.139   6.559 -1.2445  0.2011 -0.6082
14438SOL     OW44094   4.642   4.493   4.765 -0.2003 -0.1560  0.3633
14438SOL    HW144095   4.573   4.527   4.708  0.4812  0.7696  0.0619
14438SOL    HW244096   4.632   4.398   4.761 -0.4927 -0.0854 -0.8800
14439SOL     OW44097   5.216   1.266   4.583  0.2361 -0.0972  0.3006
14439SOL    HW144098   5.214   1.231   4.672  0.8779  0.4084  0.5124
14439SOL    HW244099   5.176   1.197   4.530 -1.1167  0.0241  1.1164
14440SOL     OW44100   6.516   4.290   4.277  0.0305  0.3881  0.2042
14440SOL    HW144101   6.586   4.307   4.214 -0.5871  0.9037 -0.3593
14440SOL    HW244102   6.491   4.377   4.309 -3.0733  0.7252 -2.6108
14441SOL     OW44103   8.244   2.006   7.818  0.5392  0.3278  0.1274
14441SOL    HW144104   8.168   1.989   7.874  0.2995 -0.9694 -0.5453
14441SOL    HW244105   8.313   1.950   7.854  0.1482 -1.1614 -1.3176
14442SOL     OW44106   2.878   6.986   2.686  0.4537 -0.0440  0.6051
14442SOL    HW144107   2.786   7.010   2.696  0.0154  0.2474 -2.9348
14442SOL    HW244108   2.925   7.069   2.697  0.0403  0.2702  0.0669
14443SOL     OW44109   1.502   1.043   2.075  0.3122 -0.4189  0.3588
14443SOL    HW144110   1.559   1.005   2.009 -0.5264 -2.3609  0.6538
14443SOL    HW244111   1.461   1.118   2.032  1.2550 -0.4638 -0.6527
14444SOL     OW44112   6.523   5.075   0.503 -0.3226  0.2714 -0.7908
14444SOL    HW144113   6.599   5.128   0.478 -1.1544  1.1390 -1.5649
14444SOL    HW244114   6.551   5.029   0.582  1.0420  0.4887 -1.1212
14445SOL     OW44115   1.393   7.273   4.580  0.1432 -0.2224  0.0505
14445SOL    HW144116   1.377   7.312   4.666 -2.1275  3.0457 -1.6263
14445SOL    HW244117   1.469   7.322   4.545 -0.3643  0.0940 -0.6385
14446SOL     OW44118   2.385   1.642   0.133 -0.5844  0.5765 -0.6959
14446SOL    HW144119   2.387   1.572   0.199  1.6893 -0.6517 -1.9486
14446SOL    HW244120   2.328   1.709   0.171  0.4850 -0.1232  2.4400
14447SOL     OW44121   6.923   4.012   5.486 -0.4383 -0.0397 -0.5492
14447SOL    HW144122   6.978   3.936   5.508 -0.5122 -0.6568 -2.3385
14447SOL    HW244123   6.870   3.982   5.413 -1.3127  1.3988 -0.5333
14448SOL     OW44124   7.122   5.814   0.848  0.0795 -0.2769  0.9552
14448SOL    HW144125   7.150   5.905   0.851  1.2269 -0.6480  2.8583
14448SOL    HW244126   7.184   5.772   0.788 -0.4295  0.1719  0.1038
14449SOL     OW44127   5.428   6.542   3.118 -0.2526  0.1244  0.3846
14449SOL    HW144128   5.369   6.509   3.050 -0.6504 -0.6707  1.0982
14449SOL    HW244129   5.515   6.536   3.079 -0.5593  0.5076 -0.3715
14450SOL     OW44130   3.164   4.834   7.159  0.0456  0.0391 -0.2190
14450SOL    HW144131   3.196   4.856   7.071 -1.5418 -1.1116 -1.1333
14450SOL    HW244132   3.100   4.765   7.144 -2.5589  1.9077  1.5630
14451SOL     OW44133   1.523   7.008   7.361  0.7226 -0.3169 -0.3004
14451SOL    HW144134   1.590   7.069   7.393  0.1010  0.0776  0.2775
14451SOL    HW244135   1.450   7.065   7.333  0.0234 -0.7971  0.5099
14452SOL     OW44136   8.161   5.651   4.828  0.1063  0.1597 -0.2879
14452SOL    HW144137   8.206   5.679   4.749 -0.9182 -0.0483 -0.9613
14452SOL    HW244138   8.205   5.570   4.854  0.4404  0.2258 -0.6480
14453SOL     OW44139   1.655   2.905   3.421 -0.3763  0.4815 -1.3993
14453SOL    HW144140   1.692   2.841   3.482 -3.0377  0.3664  0.2519
14453SOL    HW244141   1.666   2.865   3.335  1.5235 -0.3530 -0.8462
14454SOL     OW44142   0.015   0.557   7.525 -0.3838 -0.1653 -0.0417
14454SOL    HW144143   0.089   0.527   7.579  0.1537  0.5901 -0.3438
14454SOL    HW244144   0.056   0.590   7.445 -0.9259  1.6379  0.3858
14455SOL     OW44145   1.910   0.088   0.467  0.0106  1.0872 -0.8418
14455SOL    HW144146   1.958   0.035   0.403  0.4964 -1.2269  1.2717
14455SOL    HW244147   1.824   0.046   0.473  0.1804  0.8862  0.4234
14456SOL     OW44148   5.811   4.695   4.555  0.5229  0.5220 -0.1785
14456SOL    HW144149   5.718   4.703   4.532  0.5000  1.4754  0.1766
14456SOL    HW244150   5.811   4.644   4.636  0.3528  0.0656 -0.4618
14457SOL     OW44151   0.958   7.199   3.720  0.0052 -0.4619 -0.3054
14457SOL    HW144152   0.920   7.245   3.645 -2.8412 -3.2348 -0.7320
14457SOL    HW244153   0.886   7.193   3.783  1.5774 -0.5442  1.5722
14458SOL     OW44154   4.762   5.549   8.007 -0.1034 -0.3013  0.2815
14458SOL    HW144155   4.805   5.584   7.930 -1.8736  1.8818  0.1977
14458SOL    HW244156   4.715   5.471   7.976 -1.1825  0.8137 -1.0004
14459SOL     OW44157   3.588   5.285   2.667  0.2044  0.0661  0.2501
14459SOL    HW144158   3.671   5.251   2.699 -0.8544 -1.3198  1.7379
14459SOL    HW244159   3.588   5.378   2.692  1.6798  0.3389 -0.6754
14460SOL     OW44160   5.593   4.440   5.794  0.1593 -0.1113  0.3627
14460SOL    HW144161   5.581   4.383   5.870  0.7131 -1.2538 -0.3838
14460SOL    HW244162   5.570   4.527   5.826 -0.7792 -0.7489  1.5145
14461SOL     OW44163   6.513   7.540   6.461  0.0765  0.1134 -0.2466
14461SOL    HW144164   6.589   7.511   6.513  1.5572  0.7438 -1.9690
14461SOL    HW244165   6.521   7.494   6.378  0.3366  2.4547 -1.6111
14462SOL     OW44166   1.924   6.809   2.554 -0.0064 -0.4258  0.5257
14462SOL    HW144167   1.874   6.749   2.610 -0.0274 -0.3602  0.5763
14462SOL    HW244168   1.983   6.751   2.505  0.7343 -0.3912  1.3604
14463SOL     OW44169   5.916   3.001   0.325  0.3714  0.9392 -0.0420
14463SOL    HW144170   5.973   2.927   0.302 -0.6431 -0.0352  0.5118
14463SOL    HW244171   5.968   3.054   0.386  0.9362  0.4355 -0.0813
14464SOL     OW44172   0.772   4.225   0.433 -0.3725  0.3929 -0.1350
14464SOL    HW144173   0.761   4.285   0.507 -1.5405  0.1862 -0.1169
14464SOL    HW244174   0.750   4.279   0.356  1.3966  0.7706 -0.4156
14465SOL     OW44175   0.044   6.408   6.389 -0.0643  0.2514 -1.0746
14465SOL    HW144176  -0.033   6.398   6.333 -0.8545  2.5488 -0.4793
14465SOL    HW244177   0.011   6.399   6.478  0.7496 -0.7629 -0.8512
14466SOL     OW44178   1.055   3.025   6.736 -0.3453  0.0803 -0.4545
14466SOL    HW144179   1.077   2.985   6.820 -0.5618  1.3691  0.2389
14466SOL    HW244180   0.987   3.089   6.757 -0.8924 -0.0473 -1.7267
14467SOL     OW44181   0.509   2.027   2.498  0.2269  0.4053  0.7371
14467SOL    HW144182   0.542   2.017   2.587 -1.2756  0.5234  1.3285
14467SOL    HW244183   0.476   1.940   2.474 -0.6713  0.7058  0.8490
14468SOL     OW44184   1.350   0.364   8.203  0.4869 -0.3010  0.1888
14468SOL    HW144185   1.287   0.411   8.148 -0.2400 -0.4744  0.8584
14468SOL    HW244186   1.427   0.421   8.205  0.2161  0.0936 -0.3370
14469SOL     OW44187   8.132   5.646   1.509 -0.2660  0.5321  0.0247
14469SOL    HW144188   8.082   5.593   1.447  2.6868  0.0290 -2.1739
14469SOL    HW244189   8.120   5.736   1.479 -0.9185  0.5584  0.3569
14470SOL     OW44190   5.558   6.595   1.700  0.5233  0.0774  0.4021
14470SOL    HW144191   5.574   6.684   1.731  2.8317 -0.1132 -0.0942
14470SOL    HW244192   5.570   6.600   1.605  1.1278 -0.8452  0.4189
14471SOL     OW44193   7.951   4.800   5.557 -0.0677  0.0069  0.4945
14471SOL    HW144194   7.888   4.858   5.600 -0.6039 -1.1100  1.2594
14471SOL    HW244195   7.903   4.763   5.483  0.0963  0.0981  0.3401
14472SOL     OW44196   6.006   1.193   6.721 -0.1409  0.2284 -0.5649
14472SOL    HW144197   6.043   1.275   6.687 -1.5424  0.6932 -1.0324
14472SOL    HW244198   5.941   1.221   6.786 -1.9420 -0.3864 -2.0192
14473SOL     OW44199   0.738   2.257   3.238 -0.6721 -0.0125  0.4323
14473SOL    HW144200   0.775   2.282   3.323 -1.0221 -1.4179  1.0368
14473SOL    HW244201   0.792   2.183   3.210 -0.5193  0.4823 -0.6219
14474SOL     OW44202   0.444   8.187   8.132  1.1678 -0.3992  0.0318
14474SOL    HW144203   0.401   8.254   8.078  2.9683  0.1635 -0.7612
14474SOL    HW244204   0.447   8.110   8.075  3.1126  0.2088 -0.7764
14475SOL     OW44205   7.538   2.071   0.778 -0.6271 -0.2002  0.1678
14475SOL    HW144206   7.503   2.160   0.773 -0.1965 -0.0812 -1.1257
14475SOL    HW244207   7.493   2.023   0.708  0.8915 -0.3400 -0.7678
14476SOL     OW44208   3.637   1.346   2.964  0.2652  0.4533  0.1767
14476SOL    HW144209   3.553   1.386   2.939  0.7326  1.1871 -0.2528
14476SOL    HW244210   3.613   1.258   2.993 -0.5859  0.4136 -0.5707
14477SOL     OW44211   0.450   7.723   5.065 -0.6614 -0.0606 -0.5013
14477SOL    HW144212   0.458   7.814   5.095  0.8575  0.3528 -2.0068
14477SOL    HW244213   0.514   7.675   5.117 -1.9735 -0.4483  0.8106
14478SOL     OW44214   1.562   7.475   3.334  0.1379 -0.4444 -0.2856
14478SOL    HW144215   1.650   7.479   3.296  0.3263 -1.8011 -0.0671
14478SOL    HW244216   1.573   7.512   3.422  0.6895 -1.3267  0.0352
14479SOL     OW44217   6.954   3.833   4.920 -0.2269 -0.6592 -0.0321
14479SOL    HW144218   6.981   3.898   4.986 -1.6979 -0.6028  0.5653
14479SOL    HW244219   6.868   3.863   4.892 -0.7927 -2.1869  0.0195
14480SOL     OW44220   6.126   2.944   6.671 -0.4036  0.6114 -0.3417
14480SOL    HW144221   6.112   2.856   6.636 -1.8804  0.1544  1.2603
14480SOL    HW244222   6.038   2.977   6.690  0.1497  2.2646 -0.4618
14481SOL     OW44223   4.729   6.084   3.854 -0.0199  0.4101 -0.0005
14481SOL    HW144224   4.732   6.028   3.931  3.5613  0.4695  0.0744
14481SOL    HW244225   4.747   6.026   3.780 -2.5687  0.4986 -0.7840
14482SOL     OW44226   3.953   1.835   3.021 -0.5823  0.1270 -0.3093
14482SOL    HW144227   3.965   1.817   3.114  0.6522  1.5717 -0.1422
14482SOL    HW244228   4.020   1.900   3.000 -0.6163 -0.4010 -2.2962
14483SOL     OW44229   8.127   5.652   4.471 -0.0704  0.4812 -0.3322
14483SOL    HW144230   8.140   5.735   4.518 -0.4839  0.3524  0.0189
14483SOL    HW244231   8.085   5.678   4.389 -0.3066  0.6171 -0.1730
14484SOL     OW44232   4.682   3.166   7.622 -0.4283  0.1209  0.0274
14484SOL    HW144233   4.756   3.183   7.564 -0.8516  0.1530 -0.5055
14484SOL    HW244234   4.615   3.230   7.595 -0.7474 -0.0837  0.3285
14485SOL     OW44235   5.787   2.495   2.127  0.5476 -0.4558 -0.2295
14485SOL    HW144236   5.790   2.507   2.032 -0.2384 -2.5549 -0.5795
14485SOL    HW244237   5.694   2.499   2.149  0.6864 -0.4928  0.3712
14486SOL     OW44238   3.719   5.598   6.426  0.4196  0.7851 -0.5652
14486SOL    HW144239   3.752   5.680   6.389  3.2791  0.4640  1.0318
14486SOL    HW244240   3.703   5.542   6.349 -1.1840  2.5951 -1.6523
14487SOL     OW44241   5.036   6.033   5.994  0.2492 -0.3217 -0.4248
14487SOL    HW144242   5.057   6.112   5.944  0.8169 -1.1140 -1.4769
14487SOL    HW244243   5.108   6.022   6.055  2.4608 -2.2910 -3.1190
14488SOL     OW44244   1.787   6.663   1.384  0.4688  0.4334  0.2557
14488SOL    HW144245   1.879   6.678   1.361 -0.1766  1.7785 -1.8058
14488SOL    HW244246   1.782   6.571   1.408  1.9527 -0.3355 -2.0511
14489SOL     OW44247   6.578   2.321   1.008 -0.2861  0.2460 -0.1329
14489SOL    HW144248   6.613   2.405   1.035  0.0913  0.1902 -0.4358
14489SOL    HW244249   6.483   2.336   1.000 -0.3624  0.3450  0.8596
14490SOL     OW44250   7.765   5.702   6.210 -0.1872 -0.3532  0.4240
14490SOL    HW144251   7.746   5.617   6.171  0.0630  0.4304 -1.5157
14490SOL    HW244252   7.858   5.699   6.231 -0.0725 -0.3924 -0.0849
14491SOL     OW44253   5.946   5.187   0.375  0.2746 -0.1642 -0.0295
14491SOL    HW144254   5.934   5.120   0.443  1.2188 -1.3393 -0.9840
14491SOL    HW244255   5.953   5.269   0.424  1.5591 -1.0452  1.3595
14492SOL     OW44256   3.704   7.812   2.284  0.3032 -0.0698  0.0832
14492SOL    HW144257   3.740   7.780   2.367  1.1082 -1.9510 -0.9506
14492SOL    HW244258   3.707   7.908   2.293  4.1530 -0.0850  0.7332
14493SOL     OW44259   7.494   5.744   6.490 -0.1186 -0.2225 -0.8544
14493SOL    HW144260   7.566   5.806   6.493 -0.2526 -0.0614 -0.9186
14493SOL    HW244261   7.533   5.660   6.514 -0.2723  0.1954  1.0004
14494SOL     OW44262   4.157   3.441   0.760  0.9812 -0.6907 -0.1992
14494SOL    HW144263   4.137   3.433   0.667  2.5535  1.8117 -0.8381
14494SOL    HW244264   4.250   3.420   0.767  1.3106  0.8374  0.4799
14495SOL     OW44265   7.373   8.015   6.306  0.0221 -0.2476  0.0605
14495SOL    HW144266   7.381   8.088   6.367 -0.2653  0.7474 -1.0663
14495SOL    HW244267   7.286   8.026   6.267 -0.1476 -1.3733  0.0885
14496SOL     OW44268   2.603   5.604   6.205  0.0875  0.5342  0.5536
14496SOL    HW144269   2.512   5.631   6.210  0.0603  0.7863 -0.9483
14496SOL    HW244270   2.600   5.516   6.168  0.5168  1.4039 -1.7223
14497SOL     OW44271   7.216   3.585   4.603  0.4250 -0.1691  0.0550
14497SOL    HW144272   7.244   3.659   4.548 -0.7975 -1.2522 -2.1684
14497SOL    HW244273   7.276   3.514   4.580  1.7472  0.1023  2.3516
14498SOL     OW44274   6.864   0.284   2.886 -0.3316 -0.0954 -0.2828
14498SOL    HW144275   6.838   0.362   2.838  0.8587  0.7520  0.3983
14498SOL    HW244276   6.955   0.269   2.860 -0.3120 -0.8132  0.1627
14499SOL     OW44277   5.317   1.783   5.731  0.3241  0.5046 -0.0520
14499SOL    HW144278   5.307   1.718   5.800  0.1141  1.8474  1.2396
14499SOL    HW244279   5.316   1.732   5.650 -1.2158 -0.9624  0.8202
14500SOL     OW44280   0.186   4.930   1.524 -0.8104  0.0631 -0.5474
14500SOL    HW144281   0.106   4.881   1.544 -0.4817 -0.1718  0.2129
14500SOL    HW244282   0.158   5.022   1.526 -1.2279 -0.0430 -1.0757
14501SOL     OW44283   2.285   6.222   0.036 -0.3053  0.0994 -0.1657
14501SOL    HW144284   2.324   6.291   0.090 -1.1851  1.7735 -1.5395
14501SOL    HW244285   2.205   6.262   0.001  0.1990 -0.8704 -2.6536
14502SOL     OW44286   3.077   2.176   1.256  0.0351 -0.0521  0.1505
14502SOL    HW144287   2.994   2.128   1.260  0.2193 -0.4008 -0.0600
14502SOL    HW244288   3.138   2.113   1.217 -0.2815  1.1116 -2.5026
14503SOL     OW44289   5.837   0.111   6.219 -0.3889 -0.1674  0.3207
14503SOL    HW144290   5.924   0.121   6.258 -0.1356  0.8057 -0.4697
14503SOL    HW244291   5.786   0.068   6.287  1.3076 -2.9924 -0.0296
14504SOL     OW44292   4.386   3.621   8.097 -0.1353 -0.3280  0.3754
14504SOL    HW144293   4.420   3.681   8.163 -0.8183 -2.4188  2.8025
14504SOL    HW244294   4.452   3.552   8.091 -0.1335 -0.2182 -1.0889
14505SOL     OW44295   3.816   7.147   7.405 -0.3229  0.2528 -0.4152
14505SOL    HW144296   3.759   7.206   7.356  1.5296 -1.1226 -4.8249
14505SOL    HW244297   3.772   7.062   7.399  1.2984 -0.5363 -2.6407
14506SOL     OW44298   0.138   5.016   1.789 -0.3513 -0.5033 -0.6623
14506SOL    HW144299   0.199   5.030   1.861  1.2919  0.4075 -2.1587
14506SOL    HW244300   0.177   5.061   1.715 -1.6366 -1.9548 -2.3242
14507SOL     OW44301   2.187   4.844   0.883  0.4059 -0.0404 -0.1562
14507SOL    HW144302   2.114   4.804   0.932 -0.0764  0.2794 -0.5989
14507SOL    HW244303   2.228   4.770   0.838  0.3799 -0.2282  0.1222
14508SOL     OW44304   1.797   0.791   0.232  0.3064 -0.7290  0.2143
14508SOL    HW144305   1.740   0.862   0.263 -0.8438 -1.3269 -0.4883
14508SOL    HW244306   1.851   0.770   0.308 -0.4559 -0.1937  0.9275
14509SOL     OW44307   3.590   6.308   0.963  0.1934 -0.9529 -0.3034
14509SOL    HW144308   3.555   6.394   0.988  2.2305 -0.9499  3.1406
14509SOL    HW244309   3.519   6.247   0.983 -0.4272 -0.3336 -0.5494
14510SOL     OW44310   7.160   6.651   7.549  0.1167  0.5372 -0.1154
14510SOL    HW144311   7.103   6.718   7.511 -1.8224 -0.7853  0.3171
14510SOL    HW244312   7.184   6.687   7.634 -0.4802  0.9357 -0.1048
14511SOL     OW44313   3.692   4.148   1.212  0.3760 -0.3597 -0.4629
14511SOL    HW144314   3.771   4.197   1.191 -1.1193  2.7434  0.4893
14511SOL    HW244315   3.645   4.143   1.129  0.9809 -1.0980 -0.7704
14512SOL     OW44316   3.688   8.209   1.768  0.6527 -0.3550 -0.4632
14512SOL    HW144317   3.782   8.198   1.752  1.0970 -2.0952  2.5206
14512SOL    HW244318   3.655   8.120   1.780 -0.6969  0.3382  1.5615
14513SOL     OW44319   3.823   1.907   4.007  0.0514 -0.1215  0.2819
14513SOL    HW144320   3.756   1.926   3.941  0.1882  1.7033  0.6290
14513SOL    HW244321   3.781   1.844   4.065 -0.8846 -0.0328 -0.2629
14514SOL     OW44322   4.084   3.475   2.821 -0.2823  0.6749 -0.3014
14514SOL    HW144323   4.160   3.418   2.812 -0.3530  0.7472 -1.4646
14514SOL    HW244324   4.021   3.442   2.757 -1.0219  0.9600  0.2630
14515SOL     OW44325   6.558   5.676   3.652  0.0046  0.0120 -1.0034
14515SOL    HW144326   6.649   5.648   3.666  0.0809 -1.0074 -3.0547
14515SOL    HW244327   6.557   5.708   3.562 -1.4638  1.0152 -0.6655
14516SOL     OW44328   6.744   5.679   7.659 -0.5173 -0.5355 -0.0986
14516SOL    HW144329   6.677   5.613   7.644  0.2569 -1.2185 -0.6636
14516SOL    HW244330   6.699   5.749   7.706 -1.4499 -1.2849  0.1580
14517SOL     OW44331   5.660   1.785   0.833 -0.0202 -0.6668  0.1496
14517SOL    HW144332   5.675   1.778   0.738  1.3669 -1.4642  0.3997
14517SOL    HW244333   5.701   1.868   0.857  0.4326 -0.9039  0.1957
14518SOL     OW44334   4.874   6.583   4.087 -0.1744  0.3141  0.0991
14518SOL    HW144335   4.861   6.621   4.000  0.2429 -3.4961 -1.8418
14518SOL    HW244336   4.956   6.535   4.080 -0.0674 -0.0179  2.6908
14519SOL     OW44337   0.520   7.624   7.065  0.2354  0.2150  0.2165
14519SOL    HW144338   0.548   7.551   7.010 -0.5121  0.2811 -0.2797
14519SOL    HW244339   0.493   7.691   7.003  0.1119  0.5874  0.6693
14520SOL     OW44340   6.118   0.509   4.430 -0.2049  0.0073  0.5875
14520SOL    HW144341   6.085   0.550   4.350  0.5960 -0.9262 -0.2499
14520SOL    HW244342   6.138   0.419   4.404  1.1733  0.0099  1.5275
14521SOL     OW44343   0.757   3.153   6.867 -0.6941  0.3040 -0.6415
14521SOL    HW144344   0.731   3.217   6.933  0.8600 -0.5420  0.8689
14521SOL    HW244345   0.756   3.069   6.914  1.5303 -0.1830 -1.3357
14522SOL     OW44346   5.396   7.619   2.470  0.5706  0.0532  0.5581
14522SOL    HW144347   5.358   7.652   2.389 -2.5896 -1.6257  1.1956
14522SOL    HW244348   5.333   7.641   2.538  2.7036  0.6408  2.4958
14523SOL     OW44349   7.768   3.515   7.150 -0.1984 -0.0237  0.5496
14523SOL    HW144350   7.727   3.436   7.114  1.0607 -0.2925 -0.3544
14523SOL    HW244351   7.702   3.552   7.209 -1.6976 -0.5047 -0.7615
14524SOL     OW44352   7.136   0.627   3.106 -0.4753 -0.1691  0.4120
14524SOL    HW144353   7.137   0.550   3.049 -3.0211  0.0604 -0.0901
14524SOL    HW244354   7.063   0.679   3.073 -0.2590  1.3467  2.1807
14525SOL     OW44355   7.259   1.214   4.264  0.4001 -0.2273  0.3981
14525SOL    HW144356   7.306   1.290   4.300 -3.0812  1.6119  1.4833
14525SOL    HW244357   7.269   1.224   4.169  0.9530  0.9319  0.5470
14526SOL     OW44358   6.155   0.514   3.630 -0.0899  0.1472 -0.3211
14526SOL    HW144359   6.071   0.539   3.669  0.7106 -0.5717  2.0270
14526SOL    HW244360   6.181   0.590   3.578 -3.1404 -0.3885 -2.9333
14527SOL     OW44361   7.663   8.123   2.091 -0.1751  0.1409  0.2840
14527SOL    HW144362   7.620   8.105   2.008 -0.4121  1.4210  0.1082
14527SOL    HW244363   7.673   8.219   2.093  3.3864 -0.0836 -0.0754
14528SOL     OW44364   7.703   2.078   0.432  0.0038 -0.5635  0.5761
14528SOL    HW144365   7.783   2.121   0.399  0.9747 -1.4515  1.6842
14528SOL    HW244366   7.735   2.016   0.497 -1.5185 -1.7399  0.2439
14529SOL     OW44367   6.853   5.770   0.888  0.5134  0.3395 -0.2161
14529SOL    HW144368   6.948   5.766   0.877  0.4854  0.5257 -0.5458
14529SOL    HW244369   6.821   5.692   0.841  0.5182  0.1535  0.0874
14530SOL     OW44370   7.547   0.866   2.614 -0.1719  0.6963  0.0676
14530SOL    HW144371   7.514   0.935   2.557  2.3863  1.3061 -0.8505
14530SOL    HW244372   7.574   0.796   2.554 -2.9388 -1.3485  0.9804
14531SOL     OW44373   4.721   0.367   3.740 -0.5014 -0.1924  0.0581
14531SOL    HW144374   4.795   0.326   3.696 -0.3440 -0.1055  0.2413
14531SOL    HW244375   4.724   0.459   3.712 -0.8948 -0.3158 -0.4064
14532SOL     OW44376   7.992   1.878   4.803 -0.3788  0.0631  0.1567
14532SOL    HW144377   8.032   1.925   4.876 -1.1609  1.5871 -0.3398
14532SOL    HW244378   7.999   1.938   4.729 -0.4246 -1.0774 -0.8025
14533SOL     OW44379   1.767   0.702   0.580  0.1885  0.4937 -0.2622
14533SOL    HW144380   1.686   0.693   0.529  0.2279  1.1420 -0.4404
14533SOL    HW244381   1.741   0.745   0.661  0.9035  4.4166 -1.9131
14534SOL     OW44382   4.810   1.959   6.549 -0.2597 -0.2655  0.5891
14534SOL    HW144383   4.770   2.002   6.625  1.5889  0.6899  1.0935
14534SOL    HW244384   4.754   1.985   6.475 -0.8179  0.6479  1.3063
14535SOL     OW44385   0.521   1.061   6.308  0.0150  0.4850  0.0880
14535SOL    HW144386   0.558   1.018   6.230 -1.1831  0.5922 -0.5542
14535SOL    HW244387   0.440   1.101   6.277 -0.2179  0.9668  1.2888
14536SOL     OW44388   6.688   4.625   0.763  0.6124 -0.1456 -0.5017
14536SOL    HW144389   6.700   4.601   0.855 -0.3259  1.2881  0.0327
14536SOL    HW244390   6.712   4.546   0.715  0.5650 -1.1258  0.9935
14537SOL     OW44391   3.342   1.802   5.187 -0.4685  0.1418  0.2007
14537SOL    HW144392   3.401   1.757   5.126  1.4769 -0.9295  2.6654
14537SOL    HW244393   3.260   1.754   5.182  0.0304 -0.6408 -0.7068
14538SOL     OW44394   1.935   0.303   7.203 -0.4594  0.0139 -0.3335
14538SOL    HW144395   1.858   0.353   7.231 -0.5014  0.9509 -1.9963
14538SOL    HW244396   1.992   0.368   7.162  0.4959 -0.9435 -0.5615
14539SOL     OW44397   3.951   5.149   3.105 -0.6940 -0.0651 -0.3434
14539SOL    HW144398   3.969   5.232   3.150  1.4951  0.3318 -1.7735
14539SOL    HW244399   3.865   5.123   3.136  0.3838  0.4273  3.6530
14540SOL     OW44400   3.592   4.368   4.551  0.5033  0.4325 -0.3002
14540SOL    HW144401   3.654   4.437   4.528  0.5255  0.3960 -0.3512
14540SOL    HW244402   3.507   4.411   4.550  0.4059  0.2452 -1.3220
14541SOL     OW44403   1.653   6.945   2.936  0.1807  0.2492  0.1795
14541SOL    HW144404   1.723   6.880   2.926 -0.8707 -0.7090 -1.3824
14541SOL    HW244405   1.699   7.029   2.944  1.5482 -0.0769 -2.7883
14542SOL     OW44406   7.501   2.657   0.487  0.1118 -0.1355 -0.1801
14542SOL    HW144407   7.458   2.738   0.460 -0.8345 -0.6487 -0.2398
14542SOL    HW244408   7.503   2.603   0.408  1.3222  0.0590 -0.3087
14543SOL     OW44409   7.778   4.214   6.877 -0.1918  0.2485  0.0797
14543SOL    HW144410   7.685   4.206   6.855 -0.4649  1.5527  0.6453
14543SOL    HW244411   7.811   4.124   6.877 -1.4820 -0.2420  0.0024
14544SOL     OW44412   7.679   7.692   7.125  0.3290  0.1706 -0.0621
14544SOL    HW144413   7.728   7.763   7.167  0.2081 -0.3556  0.9940
14544SOL    HW244414   7.719   7.612   7.159  1.2745 -0.3247 -2.1550
14545SOL     OW44415   8.279   1.589   5.012 -0.1149 -0.0300 -0.3306
14545SOL    HW144416   8.291   1.681   4.986 -3.3800  0.5325 -0.2904
14545SOL    HW244417   8.284   1.591   5.108 -2.0457  0.5218 -0.2031
14546SOL     OW44418   7.787   3.490   4.087 -0.6870  0.1259 -0.2891
14546SOL    HW144419   7.701   3.472   4.127 -0.6042 -0.4713 -0.3653
14546SOL    HW244420   7.777   3.463   3.996 -0.1854 -0.7146 -0.1068
14547SOL     OW44421   1.505   1.380   2.638  0.1581 -0.5330  0.2738
14547SOL    HW144422   1.514   1.286   2.622  2.3645 -0.5409  1.2468
14547SOL    HW244423   1.544   1.393   2.725  0.3748  1.3521 -0.0758
14548SOL     OW44424   4.897   1.076   5.658  0.5453  0.0066 -0.0536
14548SOL    HW144425   4.975   1.024   5.640 -0.6897 -1.6014 -1.1616
14548SOL    HW244426   4.894   1.083   5.753  0.9093 -1.8140  0.1307
14549SOL     OW44427   5.361   5.591   2.408  0.3067 -0.3682  0.0034
14549SOL    HW144428   5.411   5.664   2.370  0.7766 -0.9406 -0.5138
14549SOL    HW244429   5.274   5.599   2.369  0.3331 -0.0482  0.0029
14550SOL     OW44430   6.046   1.838   4.641 -0.1881  0.2767 -0.4560
14550SOL    HW144431   6.080   1.828   4.553 -0.8328  1.3656 -0.8480
14550SOL    HW244432   5.984   1.910   4.635  1.1855  1.7079  1.2773
14551SOL     OW44433   0.316   4.679   3.871  0.2148  0.1880  0.4715
14551SOL    HW144434   0.363   4.600   3.844 -0.6129  0.0951 -0.7777
14551SOL    HW244435   0.378   4.750   3.853  0.1169  0.0175 -0.6198
14552SOL     OW44436   4.954   1.719   2.953  0.5216 -0.0875 -1.2512
14552SOL    HW144437   5.000   1.672   3.023  0.2649  1.7246  0.2016
14552SOL    HW244438   5.022   1.774   2.913  0.3514 -0.0586 -1.5007
14553SOL     OW44439   0.830   6.282   6.954  0.2825 -0.7026  0.1229
14553SOL    HW144440   0.774   6.276   7.031  1.9073 -1.9892  1.2715
14553SOL    HW244441   0.879   6.363   6.966 -0.6291 -0.0397 -0.4399
14554SOL     OW44442   3.845   4.601   6.663 -0.4022  0.6207  0.3696
14554SOL    HW144443   3.782   4.589   6.592  0.0264  1.4552 -0.1605
14554SOL    HW244444   3.823   4.687   6.700  2.2814  2.3653 -1.7630
14555SOL     OW44445   0.517   2.182   5.577  0.1702  0.3405  0.2383
14555SOL    HW144446   0.521   2.272   5.612 -0.1320  1.0236 -1.3829
14555SOL    HW244447   0.606   2.149   5.586  0.2527  0.7437  0.9905
14556SOL     OW44448   1.760   2.278   7.040  0.1307 -0.0778 -0.2470
14556SOL    HW144449   1.699   2.304   7.109 -0.6343 -0.3983 -0.7920
14556SOL    HW244450   1.782   2.187   7.061  0.3281 -0.0017 -0.1207
14557SOL     OW44451   4.364   1.759   2.632  0.6038  0.1955 -0.0567
14557SOL    HW144452   4.423   1.824   2.595  2.4192 -0.4908  1.4931
14557SOL    HW244453   4.367   1.686   2.570  1.4450  0.1540  0.0175
14558SOL     OW44454   2.081   7.453   6.832 -0.0008 -0.4802  0.5738
14558SOL    HW144455   2.151   7.457   6.766  0.3437 -0.5505  0.9294
14558SOL    HW244456   2.109   7.383   6.892 -0.5576 -0.7589  0.5191
14559SOL     OW44457   4.133   7.846   4.181 -0.1164 -0.1554  0.4933
14559SOL    HW144458   4.127   7.904   4.105  1.2983  0.1107  0.5620
14559SOL    HW244459   4.137   7.906   4.256 -1.1534 -0.4092  0.7701
14560SOL     OW44460   5.228   3.724   5.999  0.2213 -0.3196 -0.3083
14560SOL    HW144461   5.226   3.820   5.997 -2.4849 -0.2982 -2.3017
14560SOL    HW244462   5.288   3.701   5.928 -1.5556  0.0089 -2.0113
14561SOL     OW44463   1.628   1.063   4.614  0.3055  0.0915 -0.3698
14561SOL    HW144464   1.667   1.063   4.527 -0.8998 -0.3653 -0.9397
14561SOL    HW244465   1.560   1.131   4.610  0.0287 -0.1479  0.1086
14562SOL     OW44466   3.351   6.965   1.874 -0.0195 -0.0367 -0.0495
14562SOL    HW144467   3.369   6.875   1.847 -0.5757 -0.1291 -0.1252
14562SOL    HW244468   3.256   6.969   1.883  0.1346 -0.0844  2.1526
14563SOL     OW44469   8.047   2.800   2.443  0.1181 -0.3211 -0.6773
14563SOL    HW144470   8.041   2.810   2.348 -1.2555 -1.3112 -0.7206
14563SOL    HW244471   8.119   2.739   2.457 -0.8727 -1.6519 -1.2136
14564SOL     OW44472   5.151   6.832   3.469  0.1196 -0.4058  0.2497
14564SOL    HW144473   5.182   6.915   3.505 -0.3311  0.6087 -1.5643
14564SOL    HW244474   5.227   6.794   3.425 -0.0084 -0.2298 -0.1368
14565SOL     OW44475   1.315   7.844   5.427  0.1599 -1.1402  0.2027
14565SOL    HW144476   1.360   7.915   5.382 -1.5831 -0.2055 -0.1746
14565SOL    HW244477   1.380   7.808   5.487  0.2970  2.8432  2.7635
14566SOL     OW44478   0.936   2.901   8.303 -0.0792 -0.4687  0.0482
14566SOL    HW144479   0.858   2.886   8.356 -0.4559  1.5314  0.1294
14566SOL    HW244480   0.903   2.929   8.218  0.5317  0.5109  0.1155
14567SOL     OW44481   8.275   4.984   0.527 -0.9710 -0.2844  0.5256
14567SOL    HW144482   8.253   4.911   0.585  0.3847 -1.6777 -0.6403
14567SOL    HW244483   8.345   5.030   0.573 -1.3649 -0.0928  0.9509
14568SOL     OW44484   0.250   8.148   0.664  0.0194 -0.0314  0.5408
14568SOL    HW144485   0.307   8.081   0.702  1.1773  0.7223  0.1963
14568SOL    HW244486   0.195   8.100   0.601  1.5457 -0.5316 -0.4759
14569SOL     OW44487   2.657   2.355   1.381 -0.6923  0.2064  0.4025
14569SOL    HW144488   2.602   2.400   1.317  0.1410  0.6577 -0.0197
14569SOL    HW244489   2.735   2.330   1.331 -0.3897 -0.1636  1.0532
14570SOL     OW44490   3.875   3.111   4.032 -0.4099 -0.2130  0.1516
14570SOL    HW144491   3.838   3.068   4.109 -0.8462 -3.5378 -1.6939
14570SOL    HW244492   3.798   3.134   3.979 -0.0737 -0.5015 -0.4762
14571SOL     OW44493   5.375   8.211   2.921 -0.1875  0.0233 -0.2939
14571SOL    HW144494   5.420   8.272   2.980  0.8239  0.5029 -1.5238
14571SOL    HW244495   5.346   8.140   2.979 -1.0587  1.4484  1.1051
14572SOL     OW44496   7.108   4.576   4.087  1.0930  0.1528 -0.7126
14572SOL    HW144497   7.076   4.520   4.157 -2.4437  2.2973 -0.3949
14572SOL    HW244498   7.103   4.665   4.122  0.6314  1.1706 -3.1454
14573SOL     OW44499   5.945   1.351   1.490 -0.5668 -0.2995  0.4190
14573SOL    HW144500   5.970   1.438   1.519  1.5670 -0.0496 -1.7740
14573SOL    HW244501   5.859   1.363   1.448  0.1314  1.0098 -0.7329
14574SOL     OW44502   6.783   4.423   0.638 -0.1512 -0.1162  0.8896
14574SOL    HW144503   6.694   4.402   0.610 -0.0642 -0.5851  0.9505
14574SOL    HW244504   6.829   4.444   0.557 -0.7718  1.9635  1.0168
14575SOL     OW44505   5.708   4.532   6.307 -0.2454  0.8189  0.5295
14575SOL    HW144506   5.614   4.532   6.329  0.0839  0.0264  2.0185
14575SOL    HW244507   5.730   4.440   6.295  0.0713  1.0825 -1.2249
14576SOL     OW44508   3.877   5.379   7.678 -0.2674  0.0949  0.4430
14576SOL    HW144509   3.810   5.378   7.609 -1.2940 -1.1423  1.4100
14576SOL    HW244510   3.956   5.411   7.634 -0.9288 -0.5004 -1.2645
14577SOL     OW44511   4.989   2.994   1.166  0.3134  0.1461 -0.0775
14577SOL    HW144512   4.932   2.954   1.231  1.3098  0.5358  1.0614
14577SOL    HW244513   5.027   3.070   1.210  2.1020 -0.3902 -0.6085
14578SOL     OW44514   2.276   7.610   3.392 -0.0595  0.5885 -0.0423
14578SOL    HW144515   2.339   7.662   3.341  0.3980 -1.3322 -1.5475
14578SOL    HW244516   2.204   7.593   3.332 -0.4931  0.0035  0.6232
14579SOL     OW44517   1.939   3.565   2.568 -0.7165 -0.0779  0.3395
14579SOL    HW144518   1.888   3.603   2.640  0.9244  1.0436  0.9759
14579SOL    HW244519   2.027   3.555   2.604  0.0076 -0.0786 -1.3408
14580SOL     OW44520   7.675   1.356   4.496 -0.1155 -0.2223 -0.0138
14580SOL    HW144521   7.698   1.280   4.442  0.1430 -0.8900  1.0100
14580SOL    HW244522   7.759   1.390   4.527 -0.2606  0.1859 -0.0633
14581SOL     OW44523   5.310   6.348   2.513  0.3458 -0.1416  0.1821
14581SOL    HW144524   5.353   6.287   2.452  1.2704 -0.4514  1.1162
14581SOL    HW244525   5.379   6.411   2.535  0.4916 -0.8795  2.0302
14582SOL     OW44526   0.745   8.272   2.137 -0.0416  0.5479  0.4134
14582SOL    HW144527   0.803   8.234   2.203  0.4738 -1.2355 -0.9924
14582SOL    HW244528   0.748   8.211   2.064 -2.2813  1.3511 -0.4410
14583SOL     OW44529   1.458   0.932   0.019  0.1262  0.1177  0.5928
14583SOL    HW144530   1.530   0.897  -0.033  1.0201  1.0242  1.1796
14583SOL    HW244531   1.418   0.855   0.059  1.6905 -0.3284  1.3985
14584SOL     OW44532   1.406   6.668   4.424  0.0862  0.3508 -0.3449
14584SOL    HW144533   1.385   6.579   4.395 -0.4907  0.4811 -0.3323
14584SOL    HW244534   1.346   6.724   4.374 -0.4922  0.6232  0.6440
14585SOL     OW44535   7.488   4.667   8.237  0.1282  0.1246  0.4629
14585SOL    HW144536   7.548   4.709   8.298 -0.4618  0.4310  0.8399
14585SOL    HW244537   7.486   4.576   8.265 -0.6831  0.4030  1.3554
14586SOL     OW44538   5.399   4.235   3.887  0.2111 -0.0407 -0.4224
14586SOL    HW144539   5.369   4.285   3.811  1.1155 -0.7183 -1.2717
14586SOL    HW244540   5.323   4.182   3.912 -0.5940  1.3598  0.1759
14587SOL     OW44541   3.631   2.592   7.847  0.6809 -0.4272  0.1927
14587SOL    HW144542   3.545   2.554   7.828  0.1874 -0.0075  1.4924
14587SOL    HW244543   3.674   2.528   7.903  0.7067 -0.0484  0.6062
14588SOL     OW44544   2.244   5.349   2.231  0.3098 -0.0820  0.3850
14588SOL    HW144545   2.288   5.422   2.187  1.9650 -1.2289  0.0653
14588SOL    HW244546   2.256   5.367   2.325 -1.5088  1.3332  0.4041
14589SOL     OW44547   1.944   0.334   8.198 -0.4449 -0.3520  0.3695
14589SOL    HW144548   1.890   0.326   8.276 -0.9303  2.2788  0.3864
14589SOL    HW244549   2.020   0.385   8.227  0.7267 -1.6755 -0.2773
14590SOL     OW44550   2.962   5.230   2.464 -0.3864  0.4071  0.1406
14590SOL    HW144551   3.005   5.256   2.545 -1.4191 -1.2096  1.2617
14590SOL    HW244552   3.034   5.206   2.405  0.4460  2.8905  0.0260
14591SOL     OW44553   6.061   1.497   4.456 -0.1968  0.1331  0.8868
14591SOL    HW144554   6.074   1.467   4.546  0.3209 -0.6733  0.5491
14591SOL    HW244555   5.971   1.473   4.435  0.5208 -2.2147  0.2580
14592SOL     OW44556   4.864   5.095   0.802  0.2957  0.5478 -0.0805
14592SOL    HW144557   4.852   5.132   0.889 -1.3263 -1.3811  0.5795
14592SOL    HW244558   4.918   5.017   0.815 -1.8399 -1.0685 -0.3750
14593SOL     OW44559   5.042   4.764   0.290 -0.0497  0.0176  0.2262
14593SOL    HW144560   5.014   4.733   0.204  0.1926  0.2258  0.0724
14593SOL    HW244561   5.129   4.726   0.302 -0.6614 -1.2065  1.0045
14594SOL     OW44562   1.215   1.770   7.198 -0.3034  0.1202  0.0158
14594SOL    HW144563   1.233   1.816   7.280  0.5841 -2.6414  1.5125
14594SOL    HW244564   1.268   1.815   7.133  0.0039  1.5746  1.2151
14595SOL     OW44565   6.185   2.340   7.950  0.5737 -0.0224 -0.2997
14595SOL    HW144566   6.177   2.391   7.870  1.0146  1.5083  0.5844
14595SOL    HW244567   6.146   2.255   7.929  0.8872  0.2662 -2.1809
14596SOL     OW44568   4.915   3.842   0.373 -0.3469 -0.1801  0.5801
14596SOL    HW144569   4.821   3.824   0.376 -0.7725  1.8521  0.5659
14596SOL    HW244570   4.928   3.915   0.433  1.0876  0.1792 -0.1194
14597SOL     OW44571   5.181   0.673   3.535  0.1689  0.1803  0.0872
14597SOL    HW144572   5.184   0.768   3.544  0.2858  0.1559  0.3050
14597SOL    HW244573   5.089   0.652   3.525  0.1633  0.3396 -0.1941
14598SOL     OW44574   7.028   0.580   5.707  0.0086  0.5636  0.4067
14598SOL    HW144575   6.982   0.560   5.626  2.3048  0.0298 -0.8551
14598SOL    HW244576   7.063   0.668   5.695  4.4872 -1.1309 -1.4839
14599SOL     OW44577   1.666   7.419   3.864  0.3117  0.1146 -0.1869
14599SOL    HW144578   1.624   7.333   3.867  1.7426 -0.6780 -1.2220
14599SOL    HW244579   1.760   7.400   3.873  0.6135  1.6163  0.0708
14600SOL     OW44580   7.093   3.078   4.611 -0.1147  0.3029 -0.2049
14600SOL    HW144581   7.084   3.120   4.696 -0.7829 -2.2010  1.0705
14600SOL    HW244582   7.187   3.060   4.603 -0.2900 -1.7171  1.3009
14601SOL     OW44583   7.033   1.349   3.601 -0.0435 -0.3377  0.5308
14601SOL    HW144584   6.941   1.323   3.606 -0.7558  1.5300 -1.4650
14601SOL    HW244585   7.031   1.440   3.572  2.4325 -0.6434 -0.9177
14602SOL     OW44586   6.064   4.251   4.835  0.1173  0.3527  0.0537
14602SOL    HW144587   5.985   4.201   4.812  0.2303 -0.7442  1.8811
14602SOL    HW244588   6.073   4.315   4.765 -2.7737  0.9332  0.0963
14603SOL     OW44589   3.737   0.136   6.425  0.7792 -0.0575  0.3831
14603SOL    HW144590   3.817   0.188   6.415 -1.1382  2.8511 -1.5725
14603SOL    HW244591   3.697   0.169   6.505  0.1318  0.7026 -0.2349
14604SOL     OW44592   6.773   5.810   6.028  0.5761 -0.0530  0.1052
14604SOL    HW144593   6.826   5.844   5.957  1.0691  0.0713  0.5248
14604SOL    HW244594   6.772   5.715   6.014  3.1008 -0.3636  1.5267
14605SOL     OW44595   2.480   1.069   2.124 -0.1725  0.4642  0.3006
14605SOL    HW144596   2.492   1.152   2.078  0.6339  0.2465  0.0951
14605SOL    HW244597   2.471   1.094   2.216 -0.5369  0.8186  0.1714
14606SOL     OW44598   4.244   1.531   0.046 -0.1631 -0.2672 -0.1607
14606SOL    HW144599   4.234   1.440   0.075  0.3917 -0.5402 -0.7773
14606SOL    HW244600   4.339   1.546   0.050 -0.3834  0.8755  1.6384
14607SOL     OW44601   1.199   7.288   5.252  0.0370  0.1186  0.1441
14607SOL    HW144602   1.110   7.268   5.223 -0.3270  1.1710  0.4839
14607SOL    HW244603   1.188   7.346   5.328  0.9840  2.5877 -1.4696
14608SOL     OW44604   1.992   5.738   4.545 -0.1012 -0.2459  0.0762
14608SOL    HW144605   2.067   5.763   4.491  0.2131 -1.8906 -0.2952
14608SOL    HW244606   1.932   5.813   4.539  1.6147  1.2274  0.6362
14609SOL     OW44607   0.792   8.008   0.246  0.1489 -0.0624  0.6388
14609SOL    HW144608   0.773   7.917   0.268 -0.4612 -0.0489  0.1809
14609SOL    HW244609   0.750   8.022   0.161 -0.4044  0.8601  1.0467
14610SOL     OW44610   1.930   6.069   3.845 -0.2531 -0.0021 -0.4634
14610SOL    HW144611   1.964   6.081   3.757 -1.2948  1.5890 -0.6795
14610SOL    HW244612   1.914   5.975   3.852  2.4940 -0.6055 -0.9173
14611SOL     OW44613   7.025   5.767   1.463  0.5171 -0.2090  1.1436
14611SOL    HW144614   7.054   5.858   1.456 -0.6992  0.1055 -0.1379
14611SOL    HW244615   7.065   5.735   1.544  1.3085  1.3294  1.3852
14612SOL     OW44616   5.202   0.020   8.277 -0.5549  0.3280 -0.3555
14612SOL    HW144617   5.108   0.007   8.264 -0.5495 -1.1559  0.8501
14612SOL    HW244618   5.216   0.003   8.370  0.3703  4.0948  0.3851
14613SOL     OW44619   7.829   8.316   3.198  0.4200  0.6823  0.1525
14613SOL    HW144620   7.801   8.231   3.164  0.0610  0.6478  0.5308
14613SOL    HW244621   7.923   8.319   3.178  0.4608  0.1514  0.2317
14614SOL     OW44622   2.844   0.802   0.988  0.1678 -0.0413 -0.4129
14614SOL    HW144623   2.884   0.841   0.910  0.8917 -0.5350 -0.3052
14614SOL    HW244624   2.897   0.834   1.061  1.0747 -1.5394 -0.3591
14615SOL     OW44625   5.100   8.084   1.168  0.3228  0.2321  0.2813
14615SOL    HW144626   5.066   8.173   1.174  0.0107  0.0913  0.7044
14615SOL    HW244627   5.118   8.059   1.259  1.6389  0.3170  0.0638
14616SOL     OW44628   0.754   4.606   2.813 -0.0766  0.1874 -0.2066
14616SOL    HW144629   0.692   4.673   2.844 -0.4623 -0.8190  1.3319
14616SOL    HW244630   0.743   4.534   2.875  0.8776 -1.0025 -1.3747
14617SOL     OW44631   6.482   3.949   0.348  0.3384  0.1743  0.0235
14617SOL    HW144632   6.412   4.011   0.332  1.4904  1.9042  1.3082
14617SOL    HW244633   6.509   3.920   0.260 -0.9911  0.5545 -0.5397
14618SOL     OW44634   3.408   5.835   3.864  0.0898  0.4466 -0.0313
14618SOL    HW144635   3.335   5.885   3.900  0.7470  0.7098  0.9660
14618SOL    HW244636   3.374   5.746   3.856 -0.8977  0.9051 -1.2711
14619SOL     OW44637   1.568   4.632   0.385  0.4526  0.2535 -0.4306
14619SOL    HW144638   1.583   4.711   0.437 -0.8334 -0.1963  0.6675
14619SOL    HW244639   1.489   4.651   0.334 -0.6278 -0.7580  0.8056
14620SOL     OW44640   6.785   4.145   1.015 -0.1170 -0.1714 -0.4273
14620SOL    HW144641   6.816   4.157   0.925 -0.3258  1.4343 -0.3088
14620SOL    HW244642   6.712   4.083   1.006  0.9603 -1.3983 -1.1138
14621SOL     OW44643   5.212   7.046   2.484 -0.7209 -0.0444  1.0831
14621SOL    HW144644   5.142   6.991   2.450 -0.9100  0.8007  0.0643
14621SOL    HW244645   5.276   7.051   2.413 -0.0125 -0.1128  1.6910
14622SOL     OW44646   3.600   0.204   2.786 -0.6154  0.2205 -0.3448
14622SOL    HW144647   3.517   0.169   2.818  0.4158  0.5360  3.1200
14622SOL    HW244648   3.597   0.297   2.808  0.6529  0.2200 -0.0543
14623SOL     OW44649   2.671   1.466   2.938  0.5985 -0.0802  0.4065
14623SOL    HW144650   2.593   1.411   2.938  0.8249 -0.4538 -1.0888
14623SOL    HW244651   2.638   1.556   2.946  0.1100 -0.3105  1.0400
14624SOL     OW44652   2.376   4.509   7.777  0.5545 -0.0215  0.9191
14624SOL    HW144653   2.386   4.577   7.709  1.7421  0.1294  1.2209
14624SOL    HW244654   2.444   4.445   7.756  0.1556 -0.5658  1.2843
14625SOL     OW44655   1.749   4.745   2.155  0.2571 -0.1114 -0.1655
14625SOL    HW144656   1.834   4.774   2.188 -0.0915 -0.4970  1.1191
14625SOL    HW244657   1.687   4.770   2.223 -0.2627 -2.3932  0.2829
14626SOL     OW44658   2.625   3.825   5.681  0.1798  0.2322  0.1444
14626SOL    HW144659   2.551   3.845   5.624  0.0794  0.6840  0.4252
14626SOL    HW244660   2.671   3.754   5.637 -0.3292  0.0568 -0.1137
14627SOL     OW44661   2.518   6.317   5.145 -0.6367 -0.5092  0.5127
14627SOL    HW144662   2.445   6.371   5.114 -0.7195 -0.6281  0.5006
14627SOL    HW244663   2.579   6.380   5.184  0.4222 -0.0908 -1.6846
14628SOL     OW44664   6.089   5.409   4.967  0.4408 -0.8603  0.3198
14628SOL    HW144665   6.058   5.499   4.958  0.7204 -0.6946  0.9561
14628SOL    HW244666   6.150   5.412   5.041  0.0100 -1.6861  0.7175
14629SOL     OW44667   4.860   8.311   5.054  0.6855  0.3292 -0.6251
14629SOL    HW144668   4.872   8.394   5.101 -1.4554 -0.1392  0.9388
14629SOL    HW244669   4.791   8.330   4.990  1.7360  0.2699 -1.8135
14630SOL     OW44670   5.658   7.234   4.781  0.0890  0.3193 -0.0724
14630SOL    HW144671   5.570   7.231   4.819 -0.6079 -0.5424 -1.6468
14630SOL    HW244672   5.710   7.176   4.836 -0.4318  0.4904  0.6146
14631SOL     OW44673   2.788   2.517   1.586 -0.2857  0.0365 -0.4254
14631SOL    HW144674   2.758   2.470   1.508  0.9044  0.9724 -1.4686
14631SOL    HW244675   2.767   2.608   1.569  0.7539  0.3631 -0.0219
14632SOL     OW44676   8.247   1.433   7.630  0.5016  0.3733  0.0530
14632SOL    HW144677   8.324   1.461   7.580 -0.2719  0.5063 -1.0927
14632SOL    HW244678   8.236   1.501   7.696  1.7687 -0.0045  0.7046
14633SOL     OW44679   6.350   7.408   0.026 -0.1339 -0.3830  0.0343
14633SOL    HW144680   6.345   7.405   0.121  1.1513 -1.3058  0.1006
14633SOL    HW244681   6.336   7.317  -0.002  1.3135 -0.4740 -0.5113
14634SOL     OW44682   6.798   5.843   1.164  0.2950 -0.5436  0.3435
14634SOL    HW144683   6.825   5.820   1.075  1.9670 -2.0135  1.1596
14634SOL    HW244684   6.778   5.759   1.205  0.7713 -0.0165  1.7100
14635SOL     OW44685   4.644   7.134   0.953 -0.4238 -0.2749  0.1581
14635SOL    HW144686   4.648   7.102   0.863  0.5382  1.3014 -0.3994
14635SOL    HW244687   4.572   7.198   0.953 -0.7606 -0.6516  0.6422
14636SOL     OW44688   4.512   1.615   6.533 -0.3642 -0.3719 -0.2463
14636SOL    HW144689   4.604   1.606   6.560  0.0066 -1.4724 -1.7322
14636SOL    HW244690   4.484   1.526   6.513 -0.7492  0.2354 -2.8239
14637SOL     OW44691   5.332   5.592   7.265  0.3114  0.4671 -0.3170
14637SOL    HW144692   5.292   5.514   7.303 -1.2929  1.0254 -0.7726
14637SOL    HW244693   5.390   5.626   7.333 -0.4868 -0.0177  0.6149
14638SOL     OW44694   7.561   4.454   7.452 -0.5651 -0.3368  0.1442
14638SOL    HW144695   7.539   4.399   7.528 -0.8860  1.8557  1.7472
14638SOL    HW244696   7.627   4.403   7.404  0.8350 -1.1925  2.7614
14639SOL     OW44697   3.758   4.925   2.285 -0.0466 -0.9937 -0.4034
14639SOL    HW144698   3.789   4.996   2.229  0.6547 -0.3359  0.7754
14639SOL    HW244699   3.790   4.845   2.243  0.3382 -0.5255 -1.0110
14640SOL     OW44700   3.477   0.095   1.916 -0.0143  0.6083 -0.4367
14640SOL    HW144701   3.522   0.179   1.927 -1.3103  1.3132 -0.3118
14640SOL    HW244702   3.420   0.088   1.992  1.1451 -1.1187  0.3445
14641SOL     OW44703   2.751   3.077   1.179 -0.9706  0.4441 -0.2753
14641SOL    HW144704   2.844   3.088   1.197 -0.7728 -0.9171 -0.3889
14641SOL    HW244705   2.746   3.060   1.085 -1.3550  0.6583 -0.2994
14642SOL     OW44706   1.463   2.773   0.993 -0.4726  0.4613  0.1902
14642SOL    HW144707   1.503   2.804   1.074 -0.0961  0.8393 -0.1329
14642SOL    HW244708   1.527   2.711   0.958 -0.1411  1.0880 -0.3435
14643SOL     OW44709   3.894   7.169   5.186  0.6206  0.7327 -0.3545
14643SOL    HW144710   3.985   7.194   5.197  0.5606  0.7647  0.0924
14643SOL    HW244711   3.879   7.102   5.253  0.6353 -0.1134 -1.1834
14644SOL     OW44712   1.748   1.548   0.094 -0.0546  0.2076 -0.4732
14644SOL    HW144713   1.836   1.525   0.126  0.8555  1.9066 -1.5808
14644SOL    HW244714   1.690   1.483   0.134  1.7835 -1.3769 -0.2159
14645SOL     OW44715   7.601   0.033   3.027  0.5344  0.1909  0.4938
14645SOL    HW144716   7.582  -0.056   3.055  3.0405 -1.1398 -1.5690
14645SOL    HW244717   7.667   0.064   3.089 -0.3230  0.6333  1.1998
14646SOL     OW44718   5.845   5.555   6.141  0.1186 -0.3064  0.2378
14646SOL    HW144719   5.825   5.467   6.108  0.4735 -0.4169  0.3111
14646SOL    HW244720   5.761   5.590   6.168  0.0771 -0.9159  0.9144
14647SOL     OW44721   3.061   6.438   4.688 -0.1994 -0.1519 -0.6336
14647SOL    HW144722   3.114   6.391   4.752  1.6967 -0.4335 -2.2865
14647SOL    HW244723   2.972   6.407   4.701  0.3279 -1.0156  1.0951
14648SOL     OW44724   0.050   2.082   0.825 -0.0729 -0.0849  0.6908
14648SOL    HW144725   0.092   2.064   0.909 -0.0419 -0.9326  0.5099
14648SOL    HW244726   0.059   2.000   0.776 -1.2225 -0.0189  0.3363
14649SOL     OW44727   3.186   0.659   3.650  0.4276  0.6837 -0.0459
14649SOL    HW144728   3.217   0.714   3.722 -0.4315  0.7544  0.2915
14649SOL    HW244729   3.224   0.573   3.667  1.2223  0.9978 -0.1974
14650SOL     OW44730   3.179   6.360   6.909 -0.2389  0.2032 -0.0745
14650SOL    HW144731   3.122   6.390   6.979  0.8839 -0.5596  1.2110
14650SOL    HW244732   3.119   6.343   6.836 -1.5597  0.1507  0.9727
14651SOL     OW44733   7.453   7.596   0.534  0.9546  0.3262 -0.1026
14651SOL    HW144734   7.430   7.504   0.546  0.2660  0.4558 -0.3843
14651SOL    HW244735   7.548   7.599   0.547  1.2907 -0.7430 -1.9292
14652SOL     OW44736   8.124   0.149   5.838 -0.0151  0.0821  0.0954
14652SOL    HW144737   8.106   0.060   5.806  2.2070 -0.3171 -0.2072
14652SOL    HW244738   8.144   0.199   5.759 -1.3642  0.9195  0.2566
14653SOL     OW44739   1.153   2.948   1.456 -0.0255 -0.1354  0.3528
14653SOL    HW144740   1.190   2.862   1.475  1.0423  0.4508  1.0133
14653SOL    HW244741   1.110   2.975   1.537  0.6400  0.4449  0.5172
14654SOL     OW44742   2.334   2.540   1.001 -0.2157 -0.7049 -0.1770
14654SOL    HW144743   2.279   2.601   0.953 -0.5582 -0.1176  0.9444
14654SOL    HW244744   2.276   2.469   1.027 -0.4730 -0.0689  1.0351
14655SOL     OW44745   0.580   4.824   4.990  0.0363  0.1116 -0.7631
14655SOL    HW144746   0.560   4.918   4.998 -0.3771 -0.0672  0.5117
14655SOL    HW244747   0.552   4.787   5.073 -1.2164 -1.4138 -1.8173
14656SOL     OW44748   8.044   4.829   1.327  0.1549 -0.0915 -0.3085
14656SOL    HW144749   8.107   4.763   1.296 -0.0511  0.1898 -1.3625
14656SOL    HW244750   8.005   4.864   1.247 -0.0969  0.9664  0.2671
14657SOL     OW44751   2.406   6.675   1.646  0.0167  0.2072  0.2031
14657SOL    HW144752   2.326   6.719   1.676  0.7288  2.5503 -1.0974
14657SOL    HW244753   2.449   6.647   1.727 -0.4070  2.1284  1.1544
14658SOL     OW44754   0.347   6.872   3.349  0.1309  0.2792 -0.8440
14658SOL    HW144755   0.354   6.805   3.282  0.3550  0.2371 -0.7785
14658SOL    HW244756   0.278   6.840   3.408  0.8857 -0.3513 -0.2907
14659SOL     OW44757   3.520   2.115   7.400 -0.3047 -0.1211 -0.0197
14659SOL    HW144758   3.513   2.115   7.304 -1.0253  1.9361 -0.0179
14659SOL    HW244759   3.564   2.197   7.420  1.2296 -1.2293  1.3851
14660SOL     OW44760   0.542   2.923   0.965 -0.2155 -0.4432  0.1544
14660SOL    HW144761   0.608   2.991   0.972  0.6486 -1.4167  2.1576
14660SOL    HW244762   0.508   2.913   1.054 -1.6986 -1.2931 -0.4735
14661SOL     OW44763   0.675   4.457   1.873  0.4464 -0.0911 -0.3425
14661SOL    HW144764   0.588   4.489   1.897  0.6159  0.2131 -0.1287
14661SOL    HW244765   0.658   4.393   1.804 -0.2230 -2.3514  1.7616
14662SOL     OW44766   0.182   3.646   3.179  0.5608  0.0769 -0.3850
14662SOL    HW144767   0.254   3.600   3.221  2.7462  2.1554 -1.6255
14662SOL    HW244768   0.215   3.669   3.092 -1.1836  2.0633 -0.6022
14663SOL     OW44769   2.685   8.251   3.328 -0.1977  0.3673 -0.2585
14663SOL    HW144770   2.656   8.185   3.391 -0.4006 -0.8462 -1.5809
14663SOL    HW244771   2.711   8.201   3.251 -0.2436  1.8355 -1.2601
14664SOL     OW44772   4.243   0.543   3.250 -0.0808 -0.3767  0.0861
14664SOL    HW144773   4.176   0.511   3.190 -0.1589 -0.4759  0.2250
14664SOL    HW244774   4.204   0.534   3.337 -1.4909  3.2525 -0.0031
14665SOL     OW44775   7.473   7.122   3.247  1.3611 -0.5240 -0.2343
14665SOL    HW144776   7.496   7.175   3.171 -1.7786 -1.0360 -1.7025
14665SOL    HW244777   7.448   7.037   3.211  2.4686 -1.7411  1.6777
14666SOL     OW44778   8.273   6.138   0.384  0.8195 -0.1408 -1.0006
14666SOL    HW144779   8.319   6.221   0.393 -2.1522  1.5403  0.0507
14666SOL    HW244780   8.279   6.117   0.291  2.0099  1.0226 -1.2044
14667SOL     OW44781   3.357   0.745   1.383 -0.4499  0.2091  0.3646
14667SOL    HW144782   3.277   0.711   1.343 -0.4423  0.4698  0.1206
14667SOL    HW244783   3.357   0.709   1.472 -0.5045 -0.3212  0.1545
14668SOL     OW44784   6.798   0.559   3.237  0.1288 -0.0983  0.2457
14668SOL    HW144785   6.759   0.524   3.157 -0.7396 -0.1390  0.6831
14668SOL    HW244786   6.747   0.637   3.257  0.1661 -0.2389  0.9156
14669SOL     OW44787   2.354   7.876   5.774 -0.6105  0.4170 -0.3650
14669SOL    HW144788   2.371   7.881   5.868 -0.1101 -0.0350 -0.4187
14669SOL    HW244789   2.442   7.876   5.734 -0.8297  1.0510 -0.8558
14670SOL     OW44790   1.108   7.849   7.962  0.4582 -0.7317 -0.4292
14670SOL    HW144791   1.067   7.916   8.018  1.7119 -0.1008 -0.2253
14670SOL    HW244792   1.163   7.899   7.902  0.3401 -1.5129 -1.2095
14671SOL     OW44793   4.593   4.097   5.216  0.1059  0.1434 -0.3061
14671SOL    HW144794   4.678   4.070   5.183 -1.3080 -1.6152 -2.8171
14671SOL    HW244795   4.577   4.183   5.176  1.1732  1.1408  1.2629
14672SOL     OW44796   3.308   0.659   0.277  0.0760 -0.3334 -0.0050
14672SOL    HW144797   3.313   0.564   0.288  0.0069 -0.1752  1.8051
14672SOL    HW244798   3.248   0.672   0.204  0.0851 -1.6772 -0.2777
14673SOL     OW44799   8.087   3.752   7.812 -0.2385  0.4760  0.2144
14673SOL    HW144800   8.033   3.764   7.733  0.1326  0.6443 -0.0161
14673SOL    HW244801   8.044   3.807   7.878 -0.7696  0.0408  0.2400
14674SOL     OW44802   3.147   4.780   4.904 -0.0399 -0.1237 -0.1140
14674SOL    HW144803   3.052   4.773   4.907 -0.0978 -0.1569 -1.4750
14674SOL    HW244804   3.176   4.699   4.861  0.4633  0.6557 -1.2959
14675SOL     OW44805   2.646   1.622   4.667 -0.0662  0.0421  0.3104
14675SOL    HW144806   2.611   1.539   4.635 -1.8491  0.7976  0.1747
14675SOL    HW244807   2.726   1.636   4.616 -0.0524 -1.2889 -0.0680
14676SOL     OW44808   0.253   4.456   6.875  0.3041 -0.0387 -0.7794
14676SOL    HW144809   0.259   4.509   6.795 -1.8261  1.3517 -0.0982
14676SOL    HW244810   0.312   4.498   6.937 -0.4138  0.8068 -0.6499
14677SOL     OW44811   6.912   7.354   1.527 -0.2334  0.5990 -0.0706
14677SOL    HW144812   6.853   7.312   1.464 -0.5423 -1.1248  1.2980
14677SOL    HW244813   6.997   7.352   1.484 -0.4981 -0.2267 -0.5831
14678SOL     OW44814   7.081   3.660   2.993  0.8929  0.2515 -0.6874
14678SOL    HW144815   7.097   3.754   2.984  1.2335  0.4176  1.2824
14678SOL    HW244816   7.056   3.648   3.084  2.1531 -1.7457 -0.5387
14679SOL     OW44817   3.510   1.941   3.734  0.2233 -0.0471  0.3630
14679SOL    HW144818   3.482   1.921   3.823 -1.4140  0.3394 -0.0376
14679SOL    HW244819   3.571   2.015   3.744  0.3365 -0.2469  1.1825
14680SOL     OW44820   5.001   0.237   2.608  0.3070  0.5679  0.6059
14680SOL    HW144821   4.964   0.206   2.691  3.2673 -1.3968  1.3337
14680SOL    HW244822   5.067   0.301   2.634  2.3267 -1.1596 -0.0383
14681SOL     OW44823   5.157   7.272   4.037  0.0648 -0.7228 -0.0120
14681SOL    HW144824   5.074   7.226   4.048 -0.9142  1.0948  0.6208
14681SOL    HW244825   5.150   7.315   3.952  0.1997 -0.2604  0.2067
14682SOL     OW44826   0.114   1.830   5.812  0.3137  0.3670 -0.1023
14682SOL    HW144827   0.083   1.805   5.899  0.4991  1.5671  0.3367
14682SOL    HW244828   0.209   1.821   5.817  0.2544 -0.6161 -0.5464
14683SOL     OW44829   4.088   2.398   0.504 -0.1267  0.0534  0.0477
14683SOL    HW144830   4.078   2.316   0.455  0.0301  0.1002 -0.0623
14683SOL    HW244831   4.094   2.370   0.595  0.4812 -0.0949 -0.0374
14684SOL     OW44832   3.589   7.226   4.186  0.1078 -0.7553  0.0932
14684SOL    HW144833   3.651   7.155   4.170  0.3375 -0.5257 -0.0542
14684SOL    HW244834   3.633   7.281   4.252  1.0594  0.6176 -1.6041
14685SOL     OW44835   6.307   2.214   6.707 -0.1823 -0.2401 -0.3149
14685SOL    HW144836   6.387   2.196   6.756  1.2352 -0.4297 -2.5674
14685SOL    HW244837   6.267   2.128   6.694 -0.6846 -0.1678  0.6089
14686SOL     OW44838   2.170   0.919   4.686 -0.0216 -0.4727 -0.3689
14686SOL    HW144839   2.120   0.955   4.759 -1.3527 -0.4290 -1.2672
14686SOL    HW244840   2.212   0.841   4.722 -0.3673 -0.2579  0.5341
14687SOL     OW44841   1.038   5.728   4.609 -0.7501  0.0437 -0.5636
14687SOL    HW144842   1.109   5.667   4.630 -1.2612 -0.8160 -1.2831
14687SOL    HW244843   1.049   5.799   4.672  0.1269 -0.5750  0.0107
14688SOL     OW44844   8.052   5.098   6.792  0.6371  0.2385  0.0374
14688SOL    HW144845   8.127   5.044   6.816  0.0361 -0.5999  0.0463
14688SOL    HW244846   8.088   5.187   6.788  1.8426 -0.2504 -0.8603
14689SOL     OW44847   0.023   3.279   2.896  0.7773  0.1592 -0.1244
14689SOL    HW144848   0.015   3.249   2.806  1.1595  0.5169 -0.2803
14689SOL    HW244849   0.116   3.301   2.906  1.1148 -1.5046  0.8694
14690SOL     OW44850   1.241   3.086   4.740 -0.3933  0.3922  0.3400
14690SOL    HW144851   1.219   3.149   4.672  0.1456  0.4756  0.2464
14690SOL    HW244852   1.323   3.118   4.778 -0.6379  0.3016  0.9702
14691SOL     OW44853   8.173   5.065   2.116 -0.0866 -0.0750  0.4011
14691SOL    HW144854   8.227   5.144   2.127 -1.6547  1.1716 -0.4394
14691SOL    HW244855   8.104   5.073   2.182 -0.2769 -0.7464  0.2936
14692SOL     OW44856   4.692   6.422   6.236  0.2479 -0.4605 -0.1806
14692SOL    HW144857   4.621   6.369   6.270  0.9726 -1.6357 -0.4499
14692SOL    HW244858   4.695   6.499   6.294 -0.2781 -1.1091  0.7232
14693SOL     OW44859   7.511   6.949   4.366  0.2065  0.4129 -0.0069
14693SOL    HW144860   7.447   6.879   4.373  0.9613 -0.2138  0.8257
14693SOL    HW244861   7.527   6.976   4.457  0.9159  0.7497 -0.2256
14694SOL     OW44862   7.489   0.841   5.182  0.6326  0.5613 -0.1951
14694SOL    HW144863   7.552   0.839   5.254 -1.5788 -0.2808  1.8724
14694SOL    HW244864   7.491   0.753   5.145  0.6131  0.4971 -0.0462
14695SOL     OW44865   1.495   1.735   1.878 -0.5902  0.4389 -0.2208
14695SOL    HW144866   1.551   1.663   1.907 -0.7803  0.3572 -0.0540
14695SOL    HW244867   1.486   1.722   1.783 -0.0504  0.6474 -0.3044
14696SOL     OW44868   1.951   6.748   5.427 -0.2878 -0.0439  0.6206
14696SOL    HW144869   2.010   6.696   5.372 -1.0821 -1.2947  0.9086
14696SOL    HW244870   1.981   6.838   5.415  0.3713 -0.4247 -0.8440
14697SOL     OW44871   6.636   0.486   6.897 -0.1810 -0.5612  0.2890
14697SOL    HW144872   6.647   0.448   6.810  0.0181 -1.5851  0.7472
14697SOL    HW244873   6.706   0.447   6.950  0.1101  0.5424  0.7573
14698SOL     OW44874   1.003   4.501   7.639 -1.0052  0.6167 -0.4709
14698SOL    HW144875   0.983   4.434   7.574 -0.0345 -1.7210  1.4620
14698SOL    HW244876   0.930   4.563   7.634 -2.4064 -1.0625 -1.7669
14699SOL     OW44877   3.050   5.167   0.889  0.0818 -0.3887  0.6737
14699SOL    HW144878   3.132   5.215   0.875  0.4809 -1.3068 -0.1799
14699SOL    HW244879   3.052   5.144   0.982  0.1652  0.7200  0.9572
14700SOL     OW44880   0.388   3.399   0.160  0.2426  0.0855  0.2635
14700SOL    HW144881   0.347   3.384   0.075 -0.1480 -1.4520  0.6911
14700SOL    HW244882   0.476   3.429   0.140 -0.1553  0.6563 -0.6773
14701SOL     OW44883   7.436   2.163   1.401 -0.0435  1.0989  0.0703
14701SOL    HW144884   7.375   2.200   1.465 -0.0458  0.5844  0.3736
14701SOL    HW244885   7.445   2.071   1.427 -1.0686  0.5281 -1.4683
14702SOL     OW44886   5.831   3.065   0.088  0.3257 -0.0295  0.7005
14702SOL    HW144887   5.913   3.097   0.050 -0.1915  0.1924 -0.2551
14702SOL    HW244888   5.854   3.042   0.178  1.3078  0.5638  0.6182
14703SOL     OW44889   6.900   3.601   5.387 -0.5125 -0.5386  0.0150
14703SOL    HW144890   6.831   3.665   5.372 -1.3469 -1.7192 -1.4428
14703SOL    HW244891   6.871   3.550   5.463  0.4080  1.0688  1.5212
14704SOL     OW44892   5.193   5.391   3.277 -0.3168  0.1990  0.3163
14704SOL    HW144893   5.249   5.391   3.200 -1.8372 -1.6841 -0.8887
14704SOL    HW244894   5.104   5.398   3.242 -0.9679  0.9877  2.0257
14705SOL     OW44895   8.142   6.652   2.991 -0.0958 -0.4394 -0.3860
14705SOL    HW144896   8.215   6.593   3.011 -0.3041 -0.3014  0.8660
14705SOL    HW244897   8.176   6.739   3.012 -0.4930 -0.3367 -0.1678
14706SOL     OW44898   0.748   4.675   7.307  0.6558 -0.3019 -0.1403
14706SOL    HW144899   0.745   4.598   7.250 -0.4888 -0.0376 -0.4582
14706SOL    HW244900   0.814   4.732   7.267  1.2739 -0.9697 -0.0854
14707SOL     OW44901   5.823   7.116   2.852 -0.1873  0.7720  0.2609
14707SOL    HW144902   5.838   7.024   2.875 -0.8084  0.8626  1.0440
14707SOL    HW244903   5.735   7.135   2.884 -0.6781  1.2207 -1.2540
14708SOL     OW44904   2.309   0.065   7.038 -0.1282 -0.2099  0.0749
14708SOL    HW144905   2.284  -0.026   7.052 -1.7861  0.0991 -0.7152
14708SOL    HW244906   2.346   0.092   7.122  1.8560 -2.0201 -0.1189
14709SOL     OW44907   4.097   2.032   0.892 -0.3251  0.4841  0.6246
14709SOL    HW144908   4.105   2.115   0.844 -0.1993  0.3690  0.4475
14709SOL    HW244909   4.003   2.020   0.905 -0.5095 -0.4337 -1.2403
14710SOL     OW44910   1.502   5.636   3.454  0.1693 -0.3221 -0.7452
14710SOL    HW144911   1.498   5.634   3.550 -1.5763 -1.8972 -0.7799
14710SOL    HW244912   1.411   5.638   3.427  0.6513  1.7325 -2.4280
14711SOL     OW44913   7.000   8.315   5.875 -0.0373  0.3751 -0.0899
14711SOL    HW144914   6.969   8.405   5.865  0.3678  0.5466  0.2066
14711SOL    HW244915   7.076   8.321   5.932 -1.0312 -0.3614  1.3621
14712SOL     OW44916   3.514   5.417   5.403 -0.2345  0.1097 -0.6609
14712SOL    HW144917   3.530   5.323   5.404  1.9820  0.4160 -0.4022
14712SOL    HW244918   3.419   5.426   5.411 -0.4601 -2.0751 -0.2472
14713SOL     OW44919   8.144   2.368   7.327  0.1621 -0.4054  0.4123
14713SOL    HW144920   8.085   2.418   7.270  2.3694  1.2621 -0.6034
14713SOL    HW244921   8.130   2.277   7.302 -1.1868  0.0378 -0.5710
14714SOL     OW44922   2.610   0.725   7.720  0.3171  1.0695  0.9473
14714SOL    HW144923   2.550   0.706   7.791  0.9511  0.1345  1.2603
14714SOL    HW244924   2.557   0.715   7.640  0.3830 -1.2935  1.1335
14715SOL     OW44925   6.722   0.663   7.286  0.0116 -0.1330  0.2523
14715SOL    HW144926   6.668   0.630   7.358  0.9629 -0.8593  0.6674
14715SOL    HW244927   6.664   0.717   7.234 -1.7444 -2.6696 -0.6086
14716SOL     OW44928   1.289   5.922   5.026  0.0853 -0.4558 -0.5731
14716SOL    HW144929   1.320   5.832   5.017  3.7472  0.6274 -0.1459
14716SOL    HW244930   1.349   5.974   4.973  0.5345  2.1692  2.2405
14717SOL     OW44931   7.743   1.405   0.620 -0.0757 -0.0730 -0.2891
14717SOL    HW144932   7.683   1.465   0.665 -0.7573  0.2988 -1.6598
14717SOL    HW244933   7.711   1.318   0.643 -0.7324  0.1167 -0.4776
14718SOL     OW44934   0.475   2.351   7.815  0.1170 -0.4901  0.0487
14718SOL    HW144935   0.505   2.288   7.880  2.5371  0.2264 -0.2558
14718SOL    HW244936   0.532   2.428   7.828 -2.3606  1.4596  0.0608
14719SOL     OW44937   8.047   3.161   4.318 -0.5118  0.6294  0.4879
14719SOL    HW144938   8.128   3.119   4.344  0.0059  0.6344 -1.0162
14719SOL    HW244939   7.986   3.089   4.302 -0.3085  0.5448  0.0811
14720SOL     OW44940   6.667   7.804   6.332 -0.5835  0.0644 -0.1369
14720SOL    HW144941   6.754   7.770   6.311 -0.5089 -0.1311  0.4821
14720SOL    HW244942   6.629   7.740   6.393 -1.2121  0.0820 -0.4969
14721SOL     OW44943   7.530   6.960   5.304 -0.0137 -0.3262  0.3728
14721SOL    HW144944   7.462   6.953   5.371 -0.1394 -1.0529  0.1839
14721SOL    HW244945   7.486   6.999   5.229 -0.0803 -0.2653  0.4436
14722SOL     OW44946   7.136   7.700   1.812 -0.5370 -0.1247  0.0570
14722SOL    HW144947   7.116   7.740   1.727 -0.6623 -1.1878 -0.4273
14722SOL    HW244948   7.141   7.606   1.794 -1.0874 -0.4188  1.3284
14723SOL     OW44949   7.062   5.912   3.508  0.1641 -0.1666  0.3199
14723SOL    HW144950   6.976   5.952   3.524  0.5753  0.0480  2.2064
14723SOL    HW244951   7.046   5.848   3.438 -1.8196 -1.0582  1.5054
14724SOL     OW44952   4.656   6.655   5.198 -0.8640 -0.1242 -0.0584
14724SOL    HW144953   4.574   6.607   5.201 -0.5513 -0.8171 -1.4122
14724SOL    HW244954   4.707   6.621   5.271 -0.7837 -1.6665 -0.7849
14725SOL     OW44955   0.574   3.666   1.807 -0.1358 -0.6874 -0.2455
14725SOL    HW144956   0.609   3.737   1.862 -0.6719 -0.9435  0.4418
14725SOL    HW244957   0.566   3.592   1.867  0.6375 -1.4175 -1.0080
14726SOL     OW44958   6.903   2.328   3.310  0.0566 -0.5312 -0.6013
14726SOL    HW144959   6.950   2.407   3.333 -1.1898  0.1408 -0.2455
14726SOL    HW244960   6.928   2.265   3.377 -0.2039  0.0797  0.0836
14727SOL     OW44961   3.353   0.665   4.912  0.0887 -0.1559  0.4754
14727SOL    HW144962   3.327   0.586   4.864  1.0940 -0.4302  0.3690
14727SOL    HW244963   3.410   0.713   4.852  0.9493 -0.2534  1.1867
14728SOL     OW44964   4.164   2.007   1.272 -0.3957  0.2472 -0.2289
14728SOL    HW144965   4.222   2.060   1.218 -0.8391  2.7341  1.5760
14728SOL    HW244966   4.215   1.987   1.350 -0.9266 -0.2686 -0.0043
14729SOL     OW44967   4.421   2.283   3.478  0.0111 -0.1361  0.2094
14729SOL    HW144968   4.368   2.207   3.503  0.7906 -1.1954 -1.1623
14729SOL    HW244969   4.367   2.331   3.415  0.6084 -1.1940 -1.1599
14730SOL     OW44970   1.953   5.395   2.526  0.0392  0.6900 -0.0164
14730SOL    HW144971   1.883   5.338   2.495 -0.7858  1.4858  0.3667
14730SOL    HW244972   1.970   5.365   2.615  0.8743 -0.1239 -0.4167
14731SOL     OW44973   6.059   2.176   3.402 -0.2949 -0.3914  0.1237
14731SOL    HW144974   6.014   2.237   3.460  0.1183 -1.1252  1.2682
14731SOL    HW244975   6.089   2.229   3.329 -2.3366  0.2485 -0.3052
14732SOL     OW44976   6.960   2.561   6.590 -0.3232 -0.3960  0.4621
14732SOL    HW144977   6.930   2.611   6.514  0.8822 -0.1701  0.1166
14732SOL    HW244978   7.053   2.546   6.574 -0.1352 -0.6943  1.7074
14733SOL     OW44979   2.270   2.605   3.780  0.0950  0.4294  0.2814
14733SOL    HW144980   2.339   2.629   3.842  1.1489 -2.0368  0.1852
14733SOL    HW244981   2.292   2.654   3.700  1.9535 -0.4917  0.1652
14734SOL     OW44982   2.709   3.774   4.526  0.2503  0.7057 -0.3712
14734SOL    HW144983   2.736   3.865   4.521  0.5929  0.7450  1.4588
14734SOL    HW244984   2.786   3.728   4.560 -0.4466  0.0371  0.3578
14735SOL     OW44985   2.657   7.086   2.810  0.5450 -0.1095  0.4240
14735SOL    HW144986   2.585   7.147   2.828  0.6326  0.3907 -0.8255
14735SOL    HW244987   2.733   7.126   2.852  0.8931  1.3967 -1.4632
14736SOL     OW44988   1.822   7.783   0.856 -0.3011  0.3281 -0.1111
14736SOL    HW144989   1.888   7.714   0.857 -0.4582  0.1638  1.7577
14736SOL    HW244990   1.823   7.815   0.766  0.3994 -1.4938 -0.8009
14737SOL     OW44991   1.316   2.141   7.367 -0.0261  0.2249 -0.2506
14737SOL    HW144992   1.271   2.056   7.374 -0.8988  0.7219  0.2853
14737SOL    HW244993   1.351   2.157   7.455  1.1731 -0.1192 -0.6405
14738SOL     OW44994   3.236   8.097   1.481  0.8665 -0.0239 -0.3108
14738SOL    HW144995   3.165   8.032   1.475  0.8639 -0.1727  1.0126
14738SOL    HW244996   3.283   8.088   1.398 -0.2600 -0.3918 -0.9379
14739SOL     OW44997   7.076   4.352   7.588  0.3854 -0.1935  0.0907
14739SOL    HW144998   6.986   4.348   7.620  0.5410 -0.6584  0.4706
14739SOL    HW244999   7.129   4.314   7.658  0.9510  0.6464  0.1323
14740SOL     OW45000   5.162   1.214   8.211 -0.1410  0.1966  0.1638
14740SOL    HW145001   5.108   1.177   8.281 -2.6581  1.8572 -0.7602
14740SOL    HW245002   5.175   1.306   8.235 -0.4193  0.6112 -1.1443
14741SOL     OW45003   1.724   0.292   7.492 -0.0729 -0.2380  0.0896
14741SOL    HW145004   1.685   0.222   7.546 -0.6520 -0.3924 -0.5143
14741SOL    HW245005   1.798   0.323   7.544  0.2951 -1.4117  0.3020
14742SOL     OW45006   2.662   4.702   1.374  0.6026 -0.4386  0.1211
14742SOL    HW145007   2.706   4.674   1.455  0.7733  2.6569  1.2085
14742SOL    HW245008   2.727   4.753   1.327 -0.1776 -0.3924 -0.9574
14743SOL     OW45009   0.446   3.817   6.160 -0.2949 -0.0621 -0.2820
14743SOL    HW145010   0.501   3.893   6.176 -0.6919  0.2222 -0.2558
14743SOL    HW245011   0.482   3.748   6.217 -0.3923  0.3178  0.2424
14744SOL     OW45012   5.142   1.996   3.099 -0.4862 -0.0588 -0.6089
14744SOL    HW145013   5.078   2.056   3.060  0.1027 -0.4049 -2.2034
14744SOL    HW245014   5.093   1.917   3.118 -0.2583 -1.0819 -3.7011
14745SOL     OW45015   7.805   4.114   7.238 -0.8339  0.6506  0.2263
14745SOL    HW145016   7.806   4.210   7.247 -0.2779  0.7332 -0.5980
14745SOL    HW245017   7.892   4.087   7.269 -1.4328  0.2753  1.6639
14746SOL     OW45018   7.217   3.855   4.107  0.4059  0.7496 -0.6656
14746SOL    HW145019   7.206   3.949   4.119 -0.5920  0.5172  0.4063
14746SOL    HW245020   7.144   3.816   4.155  1.5053 -0.6118 -0.0146
14747SOL     OW45021   2.045   6.843   1.512 -0.1760  0.6464 -0.5120
14747SOL    HW145022   1.963   6.890   1.501 -1.0305 -0.8427 -0.8194
14747SOL    HW245023   2.110   6.896   1.464 -1.0598  1.5460 -0.7464
14748SOL     OW45024   4.384   5.920   3.585 -0.0193 -0.2342  0.2023
14748SOL    HW145025   4.456   5.859   3.568  0.3163  0.1364  0.2749
14748SOL    HW245026   4.314   5.891   3.527 -0.3362 -1.4974  1.1974
14749SOL     OW45027   0.349   4.360   8.307 -0.3859  0.2361 -0.5851
14749SOL    HW145028   0.440   4.391   8.305 -0.2016 -0.0763  1.4205
14749SOL    HW245029   0.342   4.304   8.230  1.3187 -0.2413 -0.4407
14750SOL     OW45030   5.348   6.317   4.888  0.9019  0.1312  0.0487
14750SOL    HW145031   5.364   6.377   4.816 -1.0740  0.6590 -0.0103
14750SOL    HW245032   5.400   6.352   4.961  1.5166  0.6049 -0.6062
14751SOL     OW45033   5.398   3.917   0.832  0.8009 -0.5302  0.2021
14751SOL    HW145034   5.450   3.994   0.857 -0.4674  0.2402  0.5144
14751SOL    HW245035   5.342   3.948   0.761 -1.3201 -0.4964  1.7995
14752SOL     OW45036   7.836   5.170   3.666 -0.3560 -0.3028 -0.8608
14752SOL    HW145037   7.808   5.101   3.607 -0.7130 -0.9289  0.0246
14752SOL    HW245038   7.755   5.208   3.700 -0.1573 -0.0012 -0.7120
14753SOL     OW45039   5.578   0.398   2.008  0.9007 -0.3133  0.4869
14753SOL    HW145040   5.565   0.491   2.022 -1.7210 -0.4513 -0.5591
14753SOL    HW245041   5.509   0.355   2.059  1.8855 -1.6746  0.7428
14754SOL     OW45042   5.399   4.991   7.452 -0.9324  0.1121  0.1322
14754SOL    HW145043   5.425   5.067   7.399  1.9474 -0.0299  1.1913
14754SOL    HW245044   5.329   5.024   7.508 -0.9114  1.4932 -0.6010
14755SOL     OW45045   4.342   7.036   0.810  0.4667 -0.4411 -0.0041
14755SOL    HW145046   4.329   7.050   0.716  1.6676 -1.7959 -0.4215
14755SOL    HW245047   4.289   7.104   0.853 -0.7156 -0.2810 -1.6333
14756SOL     OW45048   2.619   7.455   5.360  0.6080  0.1843  0.4803
14756SOL    HW145049   2.700   7.502   5.341 -0.5674  3.0665  1.9224
14756SOL    HW245050   2.586   7.495   5.440 -2.1914 -0.9393  0.0183
14757SOL     OW45051   4.518   3.607   7.073 -0.1152  0.0953  0.2040
14757SOL    HW145052   4.497   3.661   6.997 -2.1236 -0.5300  0.2432
14757SOL    HW245053   4.544   3.522   7.037 -1.1070 -0.2141  0.1747
14758SOL     OW45054   3.343   0.725   0.578 -0.6742  0.2582 -0.2244
14758SOL    HW145055   3.360   0.651   0.635 -2.6891 -0.9349 -1.0633
14758SOL    HW245056   3.331   0.686   0.491 -0.4473  1.7243 -0.9493
14759SOL     OW45057   6.897   5.805   3.303  0.0032  0.4089  0.0273
14759SOL    HW145058   6.853   5.819   3.219  0.0501  0.0572 -0.0583
14759SOL    HW245059   6.944   5.723   3.292  1.0036  0.9708 -0.0126
14760SOL     OW45060   5.008   6.550   4.818  0.2902 -1.0575  0.3383
14760SOL    HW145061   4.946   6.479   4.799 -1.7162  0.3099  1.3812
14760SOL    HW245062   5.045   6.526   4.903 -0.2464 -0.9714  0.6047
14761SOL     OW45063   1.861   0.555   3.821 -0.7698  0.2031 -0.1731
14761SOL    HW145064   1.882   0.578   3.731  2.2756  0.1033  0.4028
14761SOL    HW245065   1.916   0.611   3.874 -1.2386 -0.9116  1.5852
14762SOL     OW45066   6.236   4.389   0.375  0.2838 -0.1773 -0.6371
14762SOL    HW145067   6.225   4.477   0.340 -0.4231 -0.4057 -0.9983
14762SOL    HW245068   6.215   4.397   0.468 -0.3175 -0.0685 -0.7779
14763SOL     OW45069   6.958   7.398   2.582 -0.0665  0.6878  0.6478
14763SOL    HW145070   6.915   7.320   2.546  0.7828  0.3506  0.3362
14763SOL    HW245071   6.920   7.470   2.532  0.5035  0.2965 -0.3762
14764SOL     OW45072   7.085   3.098   0.055 -0.1386  0.2451  0.1594
14764SOL    HW145073   7.132   3.180   0.041  0.4801 -0.1747 -0.2402
14764SOL    HW245074   7.153   3.034   0.075 -0.4351 -0.5877 -1.3683
14765SOL     OW45075   6.937   1.226   5.702 -0.0941 -0.3843  0.5206
14765SOL    HW145076   6.890   1.176   5.635 -0.2400 -1.5204  1.4580
14765SOL    HW245077   6.937   1.316   5.668  0.0792 -0.9720 -1.1369
14766SOL     OW45078   3.288   2.565   1.234  0.6861 -0.5318  0.1357
14766SOL    HW145079   3.194   2.564   1.219  0.5098  0.5661  1.0205
14766SOL    HW245080   3.308   2.480   1.273  0.0960 -0.8237 -0.1896
14767SOL     OW45081   3.371   0.419   1.379  0.1608 -0.1842  0.2402
14767SOL    HW145082   3.297   0.466   1.417  0.5762  1.5248 -0.9137
14767SOL    HW245083   3.360   0.429   1.285  1.1898 -0.9923  0.0157
14768SOL     OW45084   4.211   7.654   5.958 -0.0524 -0.7218 -0.2381
14768SOL    HW145085   4.222   7.652   6.053 -2.5402  3.0366  0.3872
14768SOL    HW245086   4.124   7.617   5.944 -1.2979  2.0391 -0.4453
14769SOL     OW45087   0.740   1.206   5.071  0.1262 -0.5092  0.1327
14769SOL    HW145088   0.834   1.217   5.065  0.0279  0.1583 -0.2493
14769SOL    HW245089   0.703   1.286   5.034 -0.5827  0.0159  1.8632
14770SOL     OW45090   2.282   7.238   5.286  0.4636  0.0484  0.4647
14770SOL    HW145091   2.188   7.232   5.303  0.6084 -1.3594  0.8383
14770SOL    HW245092   2.295   7.328   5.256 -1.1126  0.0524 -0.2961
14771SOL     OW45093   0.070   7.926   2.086  0.7757 -0.4227  0.0961
14771SOL    HW145094   0.078   8.005   2.032  0.2861 -0.5419 -0.1476
14771SOL    HW245095   0.048   7.959   2.173 -1.0960 -0.3574 -0.3623
14772SOL     OW45096   6.414   0.512   1.446  0.2777  0.5322  0.3666
14772SOL    HW145097   6.445   0.454   1.515 -1.9439 -0.7565  0.4095
14772SOL    HW245098   6.434   0.465   1.365  0.0184  0.4892  0.3241
14773SOL     OW45099   1.277   4.233   3.501 -0.6115  0.3282 -1.0397
14773SOL    HW145100   1.211   4.297   3.530  0.1126  1.1947 -1.2587
14773SOL    HW245101   1.321   4.276   3.428  0.8950  0.1843 -0.2394
14774SOL     OW45102   7.651   1.785   1.866 -0.0281 -0.3070  0.6090
14774SOL    HW145103   7.710   1.709   1.861  0.2807 -0.0293 -0.0877
14774SOL    HW245104   7.708   1.859   1.887 -0.2531 -0.1686  0.7436
14775SOL     OW45105   5.155   5.693   6.836  0.0995 -0.5339 -0.2060
14775SOL    HW145106   5.209   5.720   6.910  0.1677  3.4041 -1.4998
14775SOL    HW245107   5.213   5.638   6.782  1.0070 -0.8674  1.0692
14776SOL     OW45108   2.474   0.526   7.992 -0.4830  0.0434 -0.1091
14776SOL    HW145109   2.557   0.484   8.017 -0.5068  0.0215 -0.0659
14776SOL    HW245110   2.471   0.519   7.897 -0.0535  0.7578 -0.1814
14777SOL     OW45111   3.661   4.997   2.565 -0.2169 -0.3549  0.0678
14777SOL    HW145112   3.643   4.992   2.471 -1.4993 -0.6733  0.3141
14777SOL    HW245113   3.577   5.022   2.604  0.8130  2.0717  0.9448
14778SOL     OW45114   1.435   8.226   5.187 -0.4169 -0.6505 -0.2466
14778SOL    HW145115   1.360   8.259   5.236 -0.2493 -1.0941  0.3231
14778SOL    HW245116   1.463   8.148   5.235  1.7923  0.7342  0.8960
14779SOL     OW45117   0.861   7.659   2.138  0.4903  0.0589  0.5856
14779SOL    HW145118   0.893   7.636   2.051 -4.2913 -0.1841 -1.4040
14779SOL    HW245119   0.857   7.575   2.185  1.7500 -0.0223  0.5780
14780SOL     OW45120   7.530   2.813   4.784 -0.1749  0.4069  0.5549
14780SOL    HW145121   7.472   2.747   4.821 -0.9458 -0.7418 -2.4243
14780SOL    HW245122   7.499   2.896   4.820 -1.2013 -0.5415  1.9479
14781SOL     OW45123   4.237   6.663   5.473  0.8028  0.3759  0.2699
14781SOL    HW145124   4.214   6.749   5.436  1.1980 -0.0779 -1.0826
14781SOL    HW245125   4.256   6.609   5.397  0.4049 -0.9743  1.0973
14782SOL     OW45126   6.348   4.861   4.924 -0.4537  0.7012 -0.0033
14782SOL    HW145127   6.338   4.881   4.831 -0.7098  0.2685 -0.0706
14782SOL    HW245128   6.285   4.920   4.967 -1.3700 -0.0907 -0.2174
14783SOL     OW45129   7.629   3.703   3.397 -0.0042  0.2762 -0.0230
14783SOL    HW145130   7.709   3.682   3.350  0.3456  0.3036  0.5453
14783SOL    HW245131   7.653   3.776   3.454 -0.3192  0.0218  0.4445
14784SOL     OW45132   8.315   5.316   2.664 -0.2705 -0.7223 -0.1571
14784SOL    HW145133   8.369   5.247   2.702  0.8254 -0.2696 -0.8688
14784SOL    HW245134   8.332   5.312   2.570 -1.0439 -0.1991 -0.3361
14785SOL     OW45135   2.998   3.507   0.371  0.3701 -0.0153  0.0118
14785SOL    HW145136   2.979   3.415   0.391  2.1261 -0.5565 -0.6274
14785SOL    HW245137   3.049   3.538   0.446 -0.8552  0.6921  0.5821
14786SOL     OW45138   5.174   5.692   0.895  0.0841 -0.5851  0.4529
14786SOL    HW145139   5.153   5.605   0.859  0.7734 -1.4093  1.9774
14786SOL    HW245140   5.267   5.688   0.914  0.7222  1.3940 -1.7453
14787SOL     OW45141   3.109   2.727   1.594  0.4459 -0.2230 -0.6151
14787SOL    HW145142   3.199   2.758   1.586  0.5898 -0.5981 -0.4689
14787SOL    HW245143   3.115   2.647   1.646 -0.0456  0.1192  0.0008
14788SOL     OW45144   0.207   3.619   6.256  0.1996 -0.0642  0.2157
14788SOL    HW145145   0.185   3.697   6.205  0.4576 -0.4428 -0.4831
14788SOL    HW245146   0.199   3.647   6.347  1.1259  1.0315 -0.0168
14789SOL     OW45147   7.746   3.350   4.379  0.3060  1.0688  0.1819
14789SOL    HW145148   7.681   3.405   4.422 -0.6384  1.9919 -2.2771
14789SOL    HW245149   7.813   3.411   4.349  0.1013  0.7027 -1.0791
14790SOL     OW45150   2.941   1.441   5.355  0.0400 -0.3990 -0.1200
14790SOL    HW145151   2.862   1.485   5.388 -1.0139 -2.6380  0.5060
14790SOL    HW245152   2.932   1.442   5.260  0.4290  1.3452 -0.1743
14791SOL     OW45153   3.855   7.569   3.257 -0.0730  0.1187 -0.3217
14791SOL    HW145154   3.896   7.577   3.171 -1.4479  1.3474 -0.8935
14791SOL    HW245155   3.914   7.616   3.316 -0.8058  2.2276 -1.2044
14792SOL     OW45156   7.924   0.188   2.444  0.1099 -0.1431 -0.7104
14792SOL    HW145157   7.946   0.268   2.397  2.7119  0.2255  0.9298
14792SOL    HW245158   7.838   0.206   2.483 -0.1732  1.1055 -1.8383
14793SOL     OW45159   0.792   3.121   3.191 -0.4567  0.3858 -0.4408
14793SOL    HW145160   0.766   3.213   3.203  1.6666  1.1864 -1.4832
14793SOL    HW245161   0.712   3.071   3.207 -1.6217  2.3924  0.3739
14794SOL     OW45162   0.557   6.516   6.572 -0.1250 -0.0341  0.1696
14794SOL    HW145163   0.465   6.499   6.553 -0.6915  2.4514  0.3203
14794SOL    HW245164   0.597   6.430   6.579 -2.4695 -1.1806  0.2618
14795SOL     OW45165   0.302   3.256   5.803 -0.1415  0.2918 -0.5708
14795SOL    HW145166   0.391   3.288   5.815 -0.3243  0.2048  1.2725
14795SOL    HW245167   0.253   3.333   5.774  0.0299  1.0165  0.9586
14796SOL     OW45168   1.477   0.196   5.409 -0.0633  0.2890  0.2516
14796SOL    HW145169   1.400   0.196   5.465 -0.6925 -2.0802 -0.4909
14796SOL    HW245170   1.442   0.203   5.320  0.5517 -0.5690 -0.0761
14797SOL     OW45171   0.064   3.964   3.346  0.4534  0.1626  0.0024
14797SOL    HW145172   0.115   3.954   3.426  0.4510 -0.8341 -0.1085
14797SOL    HW245173  -0.003   3.897   3.352 -0.0997  0.6694 -0.4256
14798SOL     OW45174   6.158   0.659   1.935 -0.4082 -0.2963 -0.2895
14798SOL    HW145175   6.197   0.630   1.853 -2.3108  0.7002 -1.6255
14798SOL    HW245176   6.068   0.625   1.932 -0.4331 -0.5158  1.5566
14799SOL     OW45177   4.386   7.118   1.373  0.3874  0.5702 -0.6775
14799SOL    HW145178   4.347   7.047   1.425  1.0339  0.6174 -0.0981
14799SOL    HW245179   4.459   7.076   1.327  0.5429  0.7762 -0.6204
14800SOL     OW45180   6.054   5.856   1.209 -0.4465  0.5750 -0.2262
14800SOL    HW145181   6.085   5.939   1.172  1.4350 -0.7130 -1.7078
14800SOL    HW245182   6.055   5.870   1.304  1.3969  1.7438 -0.3767
14801SOL     OW45183   1.492   3.598   6.075 -0.0334 -0.2755 -0.2711
14801SOL    HW145184   1.566   3.538   6.085 -0.0976 -0.3049  0.0380
14801SOL    HW245185   1.450   3.571   5.993  0.9528  0.4605 -1.0563
14802SOL     OW45186   3.083   7.164   5.284  0.0949  0.2463  0.6268
14802SOL    HW145187   2.997   7.126   5.266  0.0226  0.5705  0.2772
14802SOL    HW245188   3.142   7.089   5.290  0.1355  0.1078 -1.0268
14803SOL     OW45189   3.722   5.787   0.733  0.1718  0.0049 -0.7364
14803SOL    HW145190   3.787   5.850   0.700 -0.3626  0.8581 -0.1857
14803SOL    HW245191   3.663   5.839   0.787  0.5695 -1.2289  0.9531
14804SOL     OW45192   6.573   4.386   7.453  0.1510 -0.6745 -0.3167
14804SOL    HW145193   6.663   4.362   7.434  0.6795 -0.0735  1.2610
14804SOL    HW245194   6.551   4.452   7.387  0.2822 -2.0097 -1.7230
14805SOL     OW45195   2.657   3.423   2.062  1.0888 -0.0065  0.9683
14805SOL    HW145196   2.605   3.445   1.985  2.7018 -0.6709 -0.3649
14805SOL    HW245197   2.609   3.352   2.105  0.0106  0.5992  0.7815
14806SOL     OW45198   3.991   7.676   0.401 -0.1074 -0.0487  0.1273
14806SOL    HW145199   4.079   7.707   0.379  0.1556 -0.3167  0.7732
14806SOL    HW245200   3.951   7.656   0.317  0.8658 -1.0523 -0.1160
14807SOL     OW45201   7.317   4.395   0.597 -0.3353  0.5481 -0.0950
14807SOL    HW145202   7.321   4.300   0.586  1.2073  0.6189 -0.5172
14807SOL    HW245203   7.346   4.430   0.512  2.2061  1.3039  0.9777
14808SOL     OW45204   2.054   3.286   2.561 -0.1500 -0.5356 -0.0298
14808SOL    HW145205   2.128   3.347   2.562  0.0716 -0.7951 -0.2431
14808SOL    HW245206   2.020   3.288   2.650  0.0927 -0.3859  0.0623
14809SOL     OW45207   4.163   1.047   5.204 -0.3719 -0.7608 -0.0512
14809SOL    HW145208   4.171   0.958   5.237  0.3861 -0.4878  0.5356
14809SOL    HW245209   4.216   1.048   5.124  0.0940 -0.6983  0.2512
14810SOL     OW45210   5.564   1.565   4.191 -0.2752  0.1047 -0.4199
14810SOL    HW145211   5.584   1.632   4.125  0.0239 -0.2551 -0.6939
14810SOL    HW245212   5.626   1.495   4.174 -0.3498 -0.0894  0.1017
14811SOL     OW45213   5.904   7.767   5.347 -0.1295  0.1128 -0.3104
14811SOL    HW145214   5.995   7.766   5.315  0.0643  1.5243  0.1566
14811SOL    HW245215   5.851   7.752   5.269  0.4339  1.1844 -0.9261
14812SOL     OW45216   6.024   7.755   1.782 -0.4431 -0.0905  0.1216
14812SOL    HW145217   6.018   7.848   1.763 -0.7708  0.3946  2.2923
14812SOL    HW245218   6.112   7.744   1.819 -1.4598  0.0543  2.8322
14813SOL     OW45219   4.231   3.053   5.668  0.6239  0.0501 -0.0619
14813SOL    HW145220   4.271   2.967   5.673  1.4523  0.3232 -1.4305
14813SOL    HW245221   4.272   3.103   5.740  0.8394 -0.4169  0.1420
14814SOL     OW45222   2.790   5.808   6.854 -0.2237 -0.2013 -1.0980
14814SOL    HW145223   2.863   5.823   6.795 -0.3500  0.2800 -1.1390
14814SOL    HW245224   2.727   5.758   6.802 -0.2041 -0.0449 -1.2715
14815SOL     OW45225   6.918   3.560   4.913  0.0416  0.5763 -0.0748
14815SOL    HW145226   6.900   3.652   4.932  2.2569  1.1808 -0.6289
14815SOL    HW245227   6.938   3.557   4.819 -1.0028 -0.6664 -0.2898
14816SOL     OW45228   4.465   0.504   0.393 -0.1936  0.3602  0.2207
14816SOL    HW145229   4.465   0.522   0.299  0.2871  0.9099  0.3192
14816SOL    HW245230   4.373   0.501   0.418 -0.4466 -2.3638 -0.7301
14817SOL     OW45231   0.131   6.665   6.661  0.3306  0.2075  0.0858
14817SOL    HW145232   0.150   6.679   6.753  0.4483 -1.8313  0.4139
14817SOL    HW245233   0.198   6.715   6.615  0.1102  1.4538  1.0748
14818SOL     OW45234   5.934   7.538   1.226  0.2600 -0.0649 -0.1485
14818SOL    HW145235   5.876   7.462   1.215  0.1490 -0.0628  0.3920
14818SOL    HW245236   5.942   7.548   1.320 -0.3160  1.0440 -0.2051
14819SOL     OW45237   7.451   2.310   0.899 -0.0509 -0.4914  0.2853
14819SOL    HW145238   7.426   2.387   0.847  2.7152  0.7639  0.6622
14819SOL    HW245239   7.372   2.290   0.950 -2.1759 -0.4630 -2.7176
14820SOL     OW45240   6.026   6.757   4.660 -0.0344  0.6260  0.3425
14820SOL    HW145241   6.006   6.758   4.566 -1.9392  0.3896  0.7045
14820SOL    HW245242   6.050   6.667   4.678  1.0093  0.8171 -0.0267
14821SOL     OW45243   7.711   7.730   3.259 -0.2503  0.2241  0.2201
14821SOL    HW145244   7.686   7.661   3.198 -0.3171 -0.4807  1.0345
14821SOL    HW245245   7.629   7.772   3.284 -0.1803  0.8410 -0.5354
14822SOL     OW45246   3.127   7.035   0.009 -0.1339  0.5579  0.3041
14822SOL    HW145247   3.167   7.105   0.060  2.3267 -0.9870  0.6682
14822SOL    HW245248   3.172   7.038  -0.075 -0.8646  0.1502 -0.1165
14823SOL     OW45249   2.792   0.907   7.184  0.2995 -0.1088 -0.1717
14823SOL    HW145250   2.808   0.893   7.091  0.0495 -0.8336 -0.1095
14823SOL    HW245251   2.877   0.891   7.226  0.3324 -0.1157 -0.2413
14824SOL     OW45252   2.456   6.166   4.812 -0.3083 -0.2672 -0.1065
14824SOL    HW145253   2.467   6.244   4.757 -3.2526  0.6581  0.4131
14824SOL    HW245254   2.362   6.147   4.808  0.1423 -3.0803  0.7923
14825SOL     OW45255   0.790   0.531   2.300  0.2314  0.6063 -0.5230
14825SOL    HW145256   0.717   0.523   2.237  0.2259 -0.9608 -0.3617
14825SOL    HW245257   0.785   0.450   2.352  3.0307 -0.3472 -1.5489
14826SOL     OW45258   0.462   4.115   1.990 -0.5151  0.5386 -0.1814
14826SOL    HW145259   0.385   4.153   1.947 -0.3628  0.0716 -0.8779
14826SOL    HW245260   0.453   4.142   2.082 -1.5003  0.5119 -0.2562
14827SOL     OW45261   5.010   7.242   2.464 -0.2797  0.3667 -0.1289
14827SOL    HW145262   4.936   7.219   2.520  0.1388 -3.2313 -0.8581
14827SOL    HW245263   5.070   7.168   2.471  2.0515  1.9713 -1.6426
14828SOL     OW45264   5.390   2.506   2.967 -0.3599 -0.0679 -0.2671
14828SOL    HW145265   5.483   2.486   2.979 -0.1889  1.4148  1.1880
14828SOL    HW245266   5.347   2.464   3.041 -0.8691 -0.7358 -0.9284
14829SOL     OW45267   7.788   1.999   4.162  0.3438  0.1678 -0.1737
14829SOL    HW145268   7.882   1.993   4.145  0.2899 -0.5465 -0.2515
14829SOL    HW245269   7.755   1.911   4.145 -0.1774  0.1537  0.8345
14830SOL     OW45270   7.277   4.076   7.659 -0.2891  0.0215  0.3932
14830SOL    HW145271   7.258   4.115   7.744 -0.5685 -1.1854  0.8946
14830SOL    HW245272   7.254   3.984   7.669  1.7628 -0.6170 -0.2911
14831SOL     OW45273   4.906   3.133   5.655 -0.1455 -0.1821 -0.4604
14831SOL    HW145274   4.824   3.090   5.680 -0.0870  0.3237  0.6558
14831SOL    HW245275   4.911   3.121   5.560 -0.9310 -1.2099 -0.3890
14832SOL     OW45276   1.705   1.084   5.193  0.5065 -0.2540 -0.8392
14832SOL    HW145277   1.739   1.005   5.152 -0.9582 -0.5419 -1.5747
14832SOL    HW245278   1.613   1.064   5.212 -0.1774  1.5746 -1.9641
14833SOL     OW45279   0.519   5.288   1.932  0.1519 -1.1445  0.3294
14833SOL    HW145280   0.563   5.329   2.007  0.1199 -0.1153 -0.1988
14833SOL    HW245281   0.591   5.253   1.879  0.3626  0.2106 -0.3424
14834SOL     OW45282   1.976   0.954   0.352  0.0904  0.3415 -0.3015
14834SOL    HW145283   1.907   0.967   0.287 -0.8934  0.1461  0.6698
14834SOL    HW245284   2.053   0.928   0.301 -0.9933 -1.1015 -1.2969
14835SOL     OW45285   1.961   1.148   7.378  0.0959 -0.0579 -0.1026
14835SOL    HW145286   2.008   1.178   7.301  1.2371  0.8354  0.8857
14835SOL    HW245287   1.975   1.053   7.381 -1.7306 -0.4569 -2.0895
14836SOL     OW45288   5.258   5.795   5.994 -0.2739  0.3571  0.3763
14836SOL    HW145289   5.283   5.871   6.047 -1.4246  1.0146  0.0185
14836SOL    HW245290   5.310   5.804   5.914  0.3734  0.1870  0.7795
14837SOL     OW45291   2.653   3.813   3.082  0.0972 -0.3281  0.7898
14837SOL    HW145292   2.614   3.892   3.043  1.4095  1.1379  2.2882
14837SOL    HW245293   2.663   3.834   3.175  0.8853 -2.1080  1.1470
14838SOL     OW45294   1.021   2.676   6.231  0.1571  0.3345 -0.7599
14838SOL    HW145295   1.038   2.703   6.321 -2.1141  0.1409 -0.2113
14838SOL    HW245296   1.084   2.725   6.178 -0.1168  2.3784  0.7123
14839SOL     OW45297   2.952   3.878   7.154  0.6152  0.4643 -0.5221
14839SOL    HW145298   2.892   3.937   7.201 -0.6446  0.5943 -2.2104
14839SOL    HW245299   3.039   3.903   7.186  0.0452  2.6202 -0.4821
14840SOL     OW45300   1.286   7.861   2.828 -0.3573 -0.1396  0.4303
14840SOL    HW145301   1.305   7.891   2.917 -0.4668 -0.8504  0.7037
14840SOL    HW245302   1.193   7.836   2.830 -0.7819  1.2700 -0.3052
14841SOL     OW45303   6.820   6.014   3.473  0.0552 -0.0227 -0.4115
14841SOL    HW145304   6.731   6.037   3.498  0.9838  1.5071  1.8347
14841SOL    HW245305   6.811   5.973   3.388 -2.9221 -1.1054  0.2965
14842SOL     OW45306   4.663   3.885   3.028 -0.0828  0.2584  0.2885
14842SOL    HW145307   4.739   3.943   3.035  0.1266 -0.1032  1.0573
14842SOL    HW245308   4.620   3.891   3.113 -0.1885 -0.5382  0.2985
14843SOL     OW45309   5.149   3.562   5.255  0.0464 -0.1903  0.3394
14843SOL    HW145310   5.076   3.619   5.231 -1.3333 -1.9180  0.2588
14843SOL    HW245311   5.209   3.620   5.303 -0.5474  1.6497 -1.0208
14844SOL     OW45312   2.019   1.110   2.543 -0.0559  0.1159  0.2713
14844SOL    HW145313   1.984   1.097   2.631  0.5821 -3.5584  0.1253
14844SOL    HW245314   1.944   1.137   2.490 -0.8570  0.4167  1.5184
14845SOL     OW45315   5.761   6.828   4.684  0.4847  0.1381 -0.7524
14845SOL    HW145316   5.735   6.781   4.763  0.2935 -0.5918 -1.2453
14845SOL    HW245317   5.855   6.814   4.677  0.6098  0.7022 -0.3391
14846SOL     OW45318   3.985   5.680   6.852  0.2333  0.5042 -0.3997
14846SOL    HW145319   3.918   5.668   6.784 -0.0644  2.3820 -0.5108
14846SOL    HW245320   3.935   5.708   6.929  0.6462 -0.8315  0.3743
14847SOL     OW45321   4.729   0.314   6.808  0.1035 -0.8505 -0.1579
14847SOL    HW145322   4.730   0.298   6.903 -1.4900  1.1515  0.2705
14847SOL    HW245323   4.675   0.244   6.772  0.9879 -1.8141  0.3455
14848SOL     OW45324   2.559   1.196   0.058  0.0813  0.6723  0.1776
14848SOL    HW145325   2.593   1.275   0.100  1.1435 -0.0661  0.7597
14848SOL    HW245326   2.613   1.185  -0.020  2.3667 -1.3378  1.8802
14849SOL     OW45327   0.115   7.087   1.853 -0.1801 -0.0640 -0.1151
14849SOL    HW145328   0.020   7.084   1.864 -0.0271  0.1443  1.3886
14849SOL    HW245329   0.132   7.026   1.781 -1.4267 -0.2559 -0.2676
14850SOL     OW45330   1.724   5.614   1.911 -0.5214  0.3946 -0.1292
14850SOL    HW145331   1.661   5.600   1.840  1.0023 -1.9040 -1.1790
14850SOL    HW245332   1.683   5.575   1.988 -0.8036 -0.2320 -0.5833
14851SOL     OW45333   6.208   7.578   8.187 -0.5758  0.3002 -0.5609
14851SOL    HW145334   6.275   7.537   8.240  1.4446  2.4313 -1.3069
14851SOL    HW245335   6.186   7.659   8.234 -2.4034 -0.1713 -0.5198
14852SOL     OW45336   7.162   0.273   0.047 -0.8044  0.2423  0.2990
14852SOL    HW145337   7.197   0.340  -0.012  0.7389  0.6921  1.6584
14852SOL    HW245338   7.067   0.280   0.037 -0.6287  1.5387 -0.7637
14853SOL     OW45339   3.307   4.151   3.464 -0.0811  0.3242 -0.2131
14853SOL    HW145340   3.310   4.105   3.548  1.2238 -0.9281 -0.9125
14853SOL    HW245341   3.376   4.111   3.412 -0.1038  1.8704 -1.5056
14854SOL     OW45342   7.218   0.008   6.035 -0.0807 -0.3987 -0.2741
14854SOL    HW145343   7.259  -0.072   6.002  0.3079  0.1886 -1.2207
14854SOL    HW245344   7.170  -0.021   6.113 -0.5174 -1.6864 -0.9982
14855SOL     OW45345   3.086   2.147   5.115  0.0824  0.3896  0.3698
14855SOL    HW145346   3.037   2.218   5.156 -1.0240  0.2470 -0.6568
14855SOL    HW245347   3.096   2.081   5.183  1.7692  1.7789  1.5819
14856SOL     OW45348   2.327   4.085   7.540  0.0630  0.1151  0.1296
14856SOL    HW145349   2.347   4.070   7.632 -0.6780 -1.3913  0.0695
14856SOL    HW245350   2.291   4.174   7.538 -0.7261 -0.1451  1.4245
14857SOL     OW45351   2.918   6.187   2.708 -0.6370 -0.0486 -0.0392
14857SOL    HW145352   2.850   6.240   2.668 -0.1952  0.8103  0.3188
14857SOL    HW245353   3.000   6.227   2.680 -0.3025 -0.2400  0.6376
14858SOL     OW45354   4.379   0.197   7.372  0.4163  0.0887  0.6610
14858SOL    HW145355   4.365   0.157   7.458 -0.6046 -0.0268  0.4513
14858SOL    HW245356   4.401   0.123   7.315 -1.0449 -0.1564  0.3682
14859SOL     OW45357   5.590   7.011   6.077 -0.1441  0.7140 -0.6028
14859SOL    HW145358   5.527   6.941   6.066 -0.1292  0.2255  1.9143
14859SOL    HW245359   5.658   6.993   6.012 -1.0211 -0.5590 -1.1935
14860SOL     OW45360   5.202   1.070   7.727  0.6992 -0.5066 -0.8458
14860SOL    HW145361   5.144   1.109   7.662 -0.3688  0.4636  0.6402
14860SOL    HW245362   5.265   1.140   7.747 -2.0400  1.2248  2.8464
14861SOL     OW45363   5.765   4.789   7.880  0.5134  0.3025  0.1923
14861SOL    HW145364   5.776   4.737   7.801  1.8353  0.3893  0.2934
14861SOL    HW245365   5.732   4.728   7.945  0.3349  0.0116 -0.1702
14862SOL     OW45366   6.122   5.840   4.109 -0.1541 -0.1335  0.0716
14862SOL    HW145367   6.173   5.763   4.084 -1.4225 -0.7193 -0.8049
14862SOL    HW245368   6.185   5.913   4.104  0.6128 -0.8343 -0.8992
14863SOL     OW45369   7.032   2.032   5.290  0.1803 -0.2439  0.4697
14863SOL    HW145370   6.963   2.095   5.269  1.5851  1.5542  0.9747
14863SOL    HW245371   6.996   1.982   5.364 -1.4600 -0.9640 -0.7367
14864SOL     OW45372   6.416   8.133   6.461 -0.8766 -0.0523 -0.3319
14864SOL    HW145373   6.327   8.153   6.431 -0.9741  0.1277  0.0682
14864SOL    HW245374   6.447   8.067   6.400 -1.8197 -1.1998  0.3661
14865SOL     OW45375   0.966   0.101   0.820  0.2579  1.0542 -0.1736
14865SOL    HW145376   0.914   0.032   0.779 -1.3038  0.5771  2.3978
14865SOL    HW245377   0.953   0.177   0.763  1.1763 -0.4388 -2.4937
14866SOL     OW45378   7.389   6.251   6.702  0.5170 -0.0595 -0.0250
14866SOL    HW145379   7.441   6.286   6.630 -0.9881 -0.9977 -1.6641
14866SOL    HW245380   7.413   6.159   6.706 -0.3367 -0.2944 -0.1930
14867SOL     OW45381   5.271   3.914   7.272 -0.2521 -0.6201 -0.2557
14867SOL    HW145382   5.355   3.868   7.271  0.0047 -0.1610 -1.4384
14867SOL    HW245383   5.287   3.995   7.224 -1.0322  0.1146  0.6928
14868SOL     OW45384   2.118   0.073   6.763 -0.0202 -0.2319 -0.2588
14868SOL    HW145385   2.056   0.052   6.693 -2.1094  0.5138  1.2763
14868SOL    HW245386   2.105   0.166   6.780  0.0044 -0.5133  1.4866
14869SOL     OW45387   2.595   7.020   8.195  0.3913 -0.4105  0.1334
14869SOL    HW145388   2.623   6.929   8.207  2.1375 -0.0654 -0.9885
14869SOL    HW245389   2.576   7.052   8.283 -0.1481 -1.8172  0.5478
14870SOL     OW45390   6.370   0.435   1.836 -0.3301 -0.1449 -0.3970
14870SOL    HW145391   6.346   0.343   1.828 -0.0175 -0.1880 -0.8336
14870SOL    HW245392   6.458   0.441   1.799  0.2255  0.0666  0.8793
14871SOL     OW45393   1.040   5.734   4.331  0.3699 -0.1561  0.3889
14871SOL    HW145394   1.043   5.714   4.424 -0.5100  0.5766  0.5850
14871SOL    HW245395   1.015   5.826   4.326  0.4763 -0.1613 -0.5764
14872SOL     OW45396   0.712   4.007   3.158 -0.1937  0.3815  0.1172
14872SOL    HW145397   0.747   4.030   3.245  0.7508 -0.6318  0.0196
14872SOL    HW245398   0.768   4.056   3.097  1.5097 -1.6485 -0.0670
14873SOL     OW45399   3.702   0.525   7.821 -0.7376  0.3929  0.4127
14873SOL    HW145400   3.718   0.613   7.789 -1.8639  0.8381  0.9841
14873SOL    HW245401   3.761   0.469   7.771  0.2402  1.5049  0.2849
14874SOL     OW45402   3.639   0.062   3.309 -0.5307 -0.7815  0.2603
14874SOL    HW145403   3.715   0.046   3.253  0.5210  1.8325  0.8018
14874SOL    HW245404   3.672   0.117   3.379 -2.8686  0.1718  0.7053
14875SOL     OW45405   6.488   2.157   6.907  0.1138  0.3380 -0.2474
14875SOL    HW145406   6.549   2.088   6.878 -0.5431 -1.0223  1.4339
14875SOL    HW245407   6.530   2.194   6.985 -0.9683 -0.3156  0.6709
14876SOL     OW45408   6.012   6.459   4.689 -0.1468 -0.4041  0.0832
14876SOL    HW145409   6.027   6.410   4.609  2.6381 -2.4548  1.6954
14876SOL    HW245410   6.044   6.402   4.759 -1.4209  1.7272  2.5897
14877SOL     OW45411   1.725   1.135   4.372  0.0624  0.5490 -0.8558
14877SOL    HW145412   1.738   1.230   4.377  2.6340  0.2885 -1.2478
14877SOL    HW245413   1.812   1.100   4.351 -0.9984 -1.8383 -1.6142
14878SOL     OW45414   6.162   5.153   4.106 -0.2963  0.7224  0.0284
14878SOL    HW145415   6.215   5.143   4.184  0.4490  0.5556 -0.4902
14878SOL    HW245416   6.134   5.245   4.107  0.7221  1.0468 -0.1401
14879SOL     OW45417   3.084   1.727   7.187 -0.0621  0.0663  0.3508
14879SOL    HW145418   3.010   1.758   7.239 -0.1484 -1.0115  0.8985
14879SOL    HW245419   3.058   1.741   7.096 -0.0604  1.6366  0.5629
14880SOL     OW45420   3.049   4.344   7.452  0.2772 -0.0749 -0.3746
14880SOL    HW145421   3.138   4.318   7.476  1.6076  3.6222 -0.6385
14880SOL    HW245422   3.008   4.369   7.535  0.2152  0.1732 -0.4801
14881SOL     OW45423   2.787   3.629   5.554 -0.3709  0.7525  0.2135
14881SOL    HW145424   2.880   3.642   5.576 -0.6799  1.6584  1.1005
14881SOL    HW245425   2.783   3.542   5.515  0.4237 -0.5797  2.8501
14882SOL     OW45426   5.118   7.296   1.034  0.5589 -0.0563  0.2696
14882SOL    HW145427   5.038   7.337   1.066  1.0513  1.9030 -0.8711
14882SOL    HW245428   5.089   7.211   1.000 -1.2693  0.9991 -1.0465
14883SOL     OW45429   6.874   5.379   4.077  0.1088  0.3430  0.1007
14883SOL    HW145430   6.818   5.344   4.146 -0.8125  0.1489 -0.7223
14883SOL    HW245431   6.847   5.470   4.068 -1.2478 -0.1707 -1.4055
14884SOL     OW45432   5.287   2.131   5.436 -0.4857  0.7624 -0.0041
14884SOL    HW145433   5.264   2.206   5.380 -0.6626  1.0828  0.4872
14884SOL    HW245434   5.221   2.132   5.505 -1.1065 -0.4743 -0.5513
14885SOL     OW45435   5.332   4.988   4.866 -0.1146  0.0745  0.0096
14885SOL    HW145436   5.286   5.013   4.785  0.5514  0.0805 -0.3679
14885SOL    HW245437   5.372   5.070   4.897 -0.3002  0.0553  0.3065
14886SOL     OW45438   6.030   2.354   7.077 -0.0955  0.3028  0.0276
14886SOL    HW145439   6.029   2.389   7.166 -0.1192 -1.5862  0.8187
14886SOL    HW245440   6.122   2.333   7.061  0.1393  1.9031 -0.9723
14887SOL     OW45441   3.213   0.580   6.272  0.1453 -0.7623 -1.0170
14887SOL    HW145442   3.189   0.652   6.331  1.7172 -1.0355  0.0107
14887SOL    HW245443   3.257   0.623   6.199 -1.3154 -0.4691 -1.7484
14888SOL     OW45444   1.143   2.611   6.755 -0.2268 -0.1783  0.2617
14888SOL    HW145445   1.236   2.621   6.772  0.0701 -0.3865 -1.1480
14888SOL    HW245446   1.104   2.694   6.782  0.7219  0.8483 -1.3686
14889SOL     OW45447   7.506   7.239   7.794 -0.2338  0.0301 -0.0908
14889SOL    HW145448   7.510   7.181   7.718  2.1038 -2.1976  1.5619
14889SOL    HW245449   7.449   7.194   7.856 -0.8849  1.0586  0.0782
14890SOL     OW45450   7.390   6.106   3.518 -0.3488  0.1265  0.2089
14890SOL    HW145451   7.378   6.129   3.426  0.2562  1.6813  0.4779
14890SOL    HW245452   7.472   6.150   3.543 -0.8516  0.2986  1.6581
14891SOL     OW45453   3.012   8.315   1.416  0.0007  0.1469  0.2905
14891SOL    HW145454   3.007   8.290   1.509  1.2484 -0.0477  0.3207
14891SOL    HW245455   2.955   8.252   1.372  0.8846 -0.9872  0.7181
14892SOL     OW45456   6.532   8.087   5.796 -0.2079  0.2976 -0.0141
14892SOL    HW145457   6.623   8.112   5.786  0.1857 -1.8427 -2.6987
14892SOL    HW245458   6.535   8.000   5.837 -1.1418  0.7235  1.0238
14893SOL     OW45459   5.431   0.751   0.369  0.1808  0.4456 -0.1028
14893SOL    HW145460   5.379   0.684   0.412  0.0226  0.7130  0.1331
14893SOL    HW245461   5.513   0.707   0.345  0.4697  0.4020  0.9016
14894SOL     OW45462   7.289   1.376   6.910  0.2006 -0.3771  0.6657
14894SOL    HW145463   7.334   1.445   6.959  3.6942 -1.1082 -1.1763
14894SOL    HW245464   7.232   1.423   6.850  2.2287  1.0192 -0.3101
14895SOL     OW45465   0.965   5.039   5.985  0.4920 -0.1413  0.2413
14895SOL    HW145466   0.932   5.058   6.073  2.3661 -0.5558  1.0928
14895SOL    HW245467   0.906   4.972   5.952  0.0167 -0.3128  1.3730
14896SOL     OW45468   6.899   1.700   5.830  0.2170 -0.1214  0.0770
14896SOL    HW145469   6.947   1.641   5.889 -1.1663 -0.2414  1.1328
14896SOL    HW245470   6.960   1.771   5.812  1.2237 -0.8863  0.3728
14897SOL     OW45471   1.131   7.061   7.150  0.3423  0.4492 -0.6312
14897SOL    HW145472   1.165   7.017   7.227 -1.3016 -0.6841 -0.5197
14897SOL    HW245473   1.202   7.054   7.085  0.6036 -1.2550 -0.2030
14898SOL     OW45474   3.902   7.992   2.004  0.3313  0.3054  0.5511
14898SOL    HW145475   3.829   8.020   2.060  2.3762  1.3923  2.8583
14898SOL    HW245476   3.924   7.905   2.035 -2.0284 -1.5615 -2.4636
14899SOL     OW45477   6.059   4.989   7.774 -0.1312 -0.5157  0.0757
14899SOL    HW145478   6.043   4.947   7.859 -1.1811 -0.1347  0.0791
14899SOL    HW245479   6.049   4.919   7.710 -1.2458 -0.4250  0.1293
14900SOL     OW45480   0.984   3.482   6.546 -0.0811 -0.0310  1.1020
14900SOL    HW145481   0.958   3.428   6.621 -3.5620 -1.2908 -0.8086
14900SOL    HW245482   1.049   3.428   6.500 -1.7465 -1.6197  0.5161
14901SOL     OW45483   7.021   2.534   4.062  0.3866  0.2398 -0.4472
14901SOL    HW145484   7.019   2.582   4.145  0.6834  2.2052 -1.5047
14901SOL    HW245485   7.114   2.524   4.043  0.3631  1.5487 -1.4355
14902SOL     OW45486   5.498   6.903   8.324 -0.2083  0.5356 -0.2413
14902SOL    HW145487   5.454   6.967   8.270  1.3019  2.4158  0.6367
14902SOL    HW245488   5.490   6.937   8.413  2.7324  0.8929 -0.0212
14903SOL     OW45489   1.324   7.461   2.669  0.7121  0.5542  0.1938
14903SOL    HW145490   1.289   7.443   2.756  0.0694  1.1730  0.0695
14903SOL    HW245491   1.389   7.530   2.683  1.1967  0.0861  0.2884
14904SOL     OW45492   7.284   7.294   4.584 -0.3792 -0.0219  0.1504
14904SOL    HW145493   7.237   7.376   4.574  3.2898  2.2963  0.1671
14904SOL    HW245494   7.314   7.295   4.675 -0.2713 -1.4256  0.1501
14905SOL     OW45495   6.063   5.195   3.864  0.4122 -0.4418  0.0888
14905SOL    HW145496   6.081   5.142   3.941 -0.6492  0.5010  1.0203
14905SOL    HW245497   5.986   5.247   3.888  2.3327  2.7911 -0.0908
14906SOL     OW45498   2.530   0.331   3.259  0.3255  0.5969 -0.2643
14906SOL    HW145499   2.621   0.309   3.240  0.7030  1.8496 -0.0201
14906SOL    HW245500   2.522   0.424   3.235  0.1175  1.5582  3.0386
14907SOL     OW45501   3.528   4.630   3.942 -0.2990  0.4429 -0.0834
14907SOL    HW145502   3.467   4.618   3.870 -0.0108  1.8770 -0.5991
14907SOL    HW245503   3.609   4.661   3.900  0.2127  0.2995  0.7640
14908SOL     OW45504   4.230   2.167   6.070  0.4935  0.3963 -0.1607
14908SOL    HW145505   4.245   2.152   5.977 -0.7954 -1.6214 -0.0905
14908SOL    HW245506   4.241   2.082   6.111 -0.1662  1.0089  1.3828
14909SOL     OW45507   4.721   0.854   4.662  0.3408  0.0471  0.1612
14909SOL    HW145508   4.816   0.867   4.650  0.0968  1.4571 -0.3978
14909SOL    HW245509   4.713   0.763   4.691  1.8076 -0.3336 -0.5444
14910SOL     OW45510   1.683   6.129   6.701  0.3276  0.1211 -0.3888
14910SOL    HW145511   1.657   6.206   6.650 -0.8515 -0.3825 -0.5773
14910SOL    HW245512   1.777   6.120   6.684  0.4845  1.5014 -0.3724
14911SOL     OW45513   6.015   1.324   5.012 -0.6097 -0.0349  0.0723
14911SOL    HW145514   5.946   1.313   5.077  0.3281  0.1326  1.1201
14911SOL    HW245515   6.037   1.235   4.984 -0.5983 -0.1498  0.4455
14912SOL     OW45516   7.066   4.413   3.601  0.0748  0.0907 -0.8275
14912SOL    HW145517   6.984   4.461   3.617 -0.5275 -0.8975 -0.8469
14912SOL    HW245518   7.085   4.370   3.685 -0.5676 -1.3510 -1.3890
14913SOL     OW45519   7.173   7.779   6.678  0.0955  0.2871 -0.2729
14913SOL    HW145520   7.236   7.783   6.606  0.8762 -1.0611  0.3020
14913SOL    HW245521   7.140   7.869   6.686  0.5479  0.6167 -1.8064
14914SOL     OW45522   5.131   5.960   8.300  0.1740  0.2476  0.1601
14914SOL    HW145523   5.043   5.934   8.271  0.6412 -2.6091  1.0636
14914SOL    HW245524   5.118   6.047   8.338 -2.2558 -0.0294  0.1327
14915SOL     OW45525   5.909   1.345   0.101 -0.3639 -0.0594 -0.3001
14915SOL    HW145526   5.925   1.384   0.015  0.9113  1.3994  0.5625
14915SOL    HW245527   5.972   1.387   0.159 -1.4735 -0.7156  1.4565
14916SOL     OW45528   3.621   5.149   1.134  0.1794  0.5170 -0.3515
14916SOL    HW145529   3.643   5.061   1.104  0.5464  0.3444  0.4031
14916SOL    HW245530   3.705   5.194   1.141 -0.0092  0.9534 -0.7816
14917SOL     OW45531   3.868   0.224   4.484  0.4959 -0.0205 -0.2986
14917SOL    HW145532   3.931   0.287   4.521  0.3313 -0.5646  0.9553
14917SOL    HW245533   3.829   0.182   4.561  0.0984 -1.1596 -1.1082
14918SOL     OW45534   2.741   6.004   7.648  0.7768  0.2749 -0.2268
14918SOL    HW145535   2.723   5.919   7.608 -1.0406  0.2706  0.5166
14918SOL    HW245536   2.668   6.060   7.621  0.2767  0.6880  1.8137
14919SOL     OW45537   5.150   0.247   6.622 -0.4494  0.3376  0.8587
14919SOL    HW145538   5.184   0.164   6.588  1.4334  1.0664  0.8435
14919SOL    HW245539   5.105   0.223   6.703 -1.0362 -0.8243  0.2221
14920SOL     OW45540   0.910   4.871   7.200  0.1376 -0.0632 -0.3186
14920SOL    HW145541   0.863   4.938   7.150  1.2807  0.3058 -0.9353
14920SOL    HW245542   1.001   4.902   7.202  0.4733 -1.0445  0.3476
14921SOL     OW45543   5.954   8.262   0.781  0.1467 -0.4729 -0.0934
14921SOL    HW145544   6.004   8.333   0.741 -2.0554  0.7735 -0.8484
14921SOL    HW245545   6.014   8.221   0.843  1.7823  1.4791 -0.3053
14922SOL     OW45546   4.550   0.564   3.161 -0.2501 -0.1948 -0.6352
14922SOL    HW145547   4.616   0.535   3.099  0.8214 -1.6418  1.0781
14922SOL    HW245548   4.467   0.532   3.126  0.3227 -0.9514 -1.3292
14923SOL     OW45549   3.073   2.210   7.669 -0.1009 -0.3015  0.3269
14923SOL    HW145550   3.126   2.131   7.656 -1.3912 -0.9198 -1.5990
14923SOL    HW245551   3.044   2.204   7.760 -1.6471 -3.1039 -0.2087
14924SOL     OW45552   5.851   0.001   8.050 -0.2556  0.4629 -0.4219
14924SOL    HW145553   5.861   0.048   8.133  1.6142  0.2295 -0.4770
14924SOL    HW245554   5.846  -0.091   8.075  1.6507  0.2766 -0.5993
14925SOL     OW45555   8.227   1.173   3.195 -0.0550 -0.4320 -0.0227
14925SOL    HW145556   8.313   1.155   3.157  0.4077  2.0349 -0.2974
14925SOL    HW245557   8.212   1.266   3.177 -1.0674  0.1744  3.3622
14926SOL     OW45558   2.888   6.455   4.322  0.1594  0.0467  0.4181
14926SOL    HW145559   2.856   6.533   4.278  0.0215  0.1662  0.7294
14926SOL    HW245560   2.924   6.487   4.405 -1.0940 -0.3696  1.1451
14927SOL     OW45561   8.030   8.165   2.033 -0.0183  0.2196  0.4502
14927SOL    HW145562   8.066   8.089   2.079  1.0872  2.4001  3.5294
14927SOL    HW245563   7.977   8.210   2.099 -1.0556  1.8857 -1.4060
14928SOL     OW45564   1.192   4.584   7.353 -0.0419  0.0898  0.0501
14928SOL    HW145565   1.200   4.660   7.295 -0.8886  1.7645  2.0103
14928SOL    HW245566   1.138   4.522   7.304  0.6790  0.6960 -1.6025
14929SOL     OW45567   0.976   3.034   2.118  0.6477 -0.3182 -0.0358
14929SOL    HW145568   0.958   2.947   2.082  0.5764 -0.7715  1.0721
14929SOL    HW245569   1.054   3.063   2.071 -0.6152  0.0247 -2.0832
14930SOL     OW45570   6.607   6.679   7.487  0.1974 -0.3211  0.7322
14930SOL    HW145571   6.603   6.586   7.505  0.5965 -0.7064 -0.9470
14930SOL    HW245572   6.516   6.705   7.472  0.2895 -1.3020 -2.3818
14931SOL     OW45573   3.882   7.413   1.831  0.4574  0.3578  0.6314
14931SOL    HW145574   3.796   7.447   1.808 -0.2073  0.4658  3.0570
14931SOL    HW245575   3.935   7.425   1.752 -1.8374 -0.1124 -1.0564
14932SOL     OW45576   6.414   7.442   2.996  0.3372  0.0920  0.0789
14932SOL    HW145577   6.346   7.391   2.951 -1.0663  0.8297  1.2904
14932SOL    HW245578   6.485   7.380   3.012 -0.8726 -1.2051  0.5303
14933SOL     OW45579   7.004   6.800   5.416  0.1284  0.1122  0.0309
14933SOL    HW145580   7.082   6.813   5.471  0.7156  1.8596 -1.1210
14933SOL    HW245581   6.953   6.881   5.429 -1.3165 -0.8142  0.4207
14934SOL     OW45582   3.592   0.617   0.384 -0.7307  0.7964 -0.1509
14934SOL    HW145583   3.511   0.605   0.335 -0.2586 -0.7506 -0.6153
14934SOL    HW245584   3.656   0.645   0.319 -0.1136 -1.2128 -0.4571
14935SOL     OW45585   6.934   1.421   4.399 -0.0844 -0.8502  0.0808
14935SOL    HW145586   7.017   1.443   4.442 -0.3405  0.0979  0.0985
14935SOL    HW245587   6.960   1.398   4.310  0.2301 -0.8169  0.1605
14936SOL     OW45588   5.647   5.162   1.923 -0.0488 -0.4803 -0.2760
14936SOL    HW145589   5.608   5.085   1.966 -0.6986  1.1214  2.2553
14936SOL    HW245590   5.597   5.236   1.958  1.0477  1.1744 -2.0391
14937SOL     OW45591   7.839   5.202   6.169 -0.5076 -0.1753  0.3765
14937SOL    HW145592   7.824   5.214   6.075 -0.0067 -0.9312  0.1971
14937SOL    HW245593   7.903   5.270   6.191  1.2636 -1.5324 -0.3523
14938SOL     OW45594   0.544   4.930   2.430 -0.3372 -0.3047  0.3415
14938SOL    HW145595   0.457   4.968   2.434 -0.4179 -0.4351 -0.1113
14938SOL    HW245596   0.529   4.835   2.430 -0.2083 -0.3267  0.0189
14939SOL     OW45597   8.227   5.521   0.852 -0.1318  0.1501  0.0762
14939SOL    HW145598   8.173   5.564   0.786  0.7237 -0.2859 -0.9407
14939SOL    HW245599   8.256   5.440   0.809  3.0159  1.3081 -0.2562
14940SOL     OW45600   7.074   1.726   7.599  0.4806  0.1637 -0.1171
14940SOL    HW145601   7.049   1.634   7.611  1.6750 -0.4268 -1.7598
14940SOL    HW245602   7.001   1.765   7.552 -0.4308  0.3137  1.3762
14941SOL     OW45603   1.913   7.245   4.436 -0.6732 -0.5365 -0.0630
14941SOL    HW145604   1.934   7.259   4.344 -0.9782 -0.7304 -0.1642
14941SOL    HW245605   1.997   7.232   4.479 -0.5322 -0.4588 -0.3179
14942SOL     OW45606   4.960   7.219   2.192 -0.7414  0.3865 -0.4539
14942SOL    HW145607   4.877   7.178   2.215  0.6125 -1.9753  0.5520
14942SOL    HW245608   5.006   7.230   2.275  1.0440 -0.9372 -1.2049
14943SOL     OW45609   3.515   3.605   1.120 -0.1897 -0.7403  0.3088
14943SOL    HW145610   3.533   3.623   1.028 -0.6562  0.4183  0.4245
14943SOL    HW245611   3.427   3.639   1.135 -1.2619 -3.4049  0.5401
14944SOL     OW45612   7.613   3.543   7.383 -0.3948 -0.2024  0.2229
14944SOL    HW145613   7.540   3.482   7.366 -1.2948  0.9207 -0.0603
14944SOL    HW245614   7.577   3.629   7.364  1.0925  0.3691 -0.1086
14945SOL     OW45615   1.816   1.021   3.441  0.1610  0.5296  0.1087
14945SOL    HW145616   1.739   1.023   3.385 -0.8775 -0.0538  1.4705
14945SOL    HW245617   1.858   0.937   3.421 -0.2738  0.2684  0.2648
14946SOL     OW45618   4.580   7.017   6.998 -0.4256 -0.2424  0.1802
14946SOL    HW145619   4.512   6.962   6.961 -0.0594 -0.0249 -0.8671
14946SOL    HW245620   4.607   7.074   6.925  2.4802 -1.8807 -0.1847
14947SOL     OW45621   8.235   7.657   1.728 -0.4938  0.4265 -0.3524
14947SOL    HW145622   8.308   7.672   1.789 -0.5690  2.8608 -0.7581
14947SOL    HW245623   8.274   7.605   1.657  0.1028 -0.6967  0.7593
14948SOL     OW45624   7.774   6.930   4.296  0.1886 -0.4285 -0.4535
14948SOL    HW145625   7.682   6.939   4.321  0.2368 -0.6744 -0.1766
14948SOL    HW245626   7.801   6.847   4.337  0.4903 -0.4304 -0.6587
14949SOL     OW45627   2.603   1.261   7.788  0.5308  0.8542 -0.1653
14949SOL    HW145628   2.547   1.336   7.769 -1.0668 -0.4752 -0.9344
14949SOL    HW245629   2.566   1.223   7.868 -0.4768 -0.6900 -1.2892
14950SOL     OW45630   2.190   1.030   3.653 -0.5117 -0.0257  0.2604
14950SOL    HW145631   2.143   0.999   3.730 -1.8484  2.2173  0.4571
14950SOL    HW245632   2.192   1.126   3.663  1.6897  0.1451 -1.1612
14951SOL     OW45633   5.545   7.329   6.311 -0.0959 -0.3473  0.1954
14951SOL    HW145634   5.461   7.353   6.349  0.0635 -1.0248  1.0055
14951SOL    HW245635   5.609   7.383   6.358 -0.1390  0.7930 -1.0072
14952SOL     OW45636   8.012   3.705   5.803 -0.2519 -0.0880  0.2548
14952SOL    HW145637   8.088   3.648   5.815 -0.2922 -0.6549 -1.8746
14952SOL    HW245638   8.031   3.782   5.858  0.9392 -1.0492  1.2490
14953SOL     OW45639   3.626   2.958   5.252  0.2345 -0.2808 -0.3783
14953SOL    HW145640   3.636   2.942   5.158 -0.4314 -0.1464 -0.4735
14953SOL    HW245641   3.559   3.026   5.258  1.4652  0.9548  0.1106
14954SOL     OW45642   0.474   4.224   6.884 -0.5743  0.9098 -0.6142
14954SOL    HW145643   0.409   4.191   6.946 -0.0802 -0.0169 -0.5622
14954SOL    HW245644   0.517   4.145   6.851 -0.9063  1.3716 -2.2326
14955SOL     OW45645   4.786   0.549   7.222 -0.4029  0.3935  0.2137
14955SOL    HW145646   4.717   0.489   7.251 -0.8453  0.1800 -1.2189
14955SOL    HW245647   4.759   0.635   7.254 -0.9472  0.1888  0.3067
14956SOL     OW45648   5.255   6.821   5.154 -0.5461 -0.3134 -0.4188
14956SOL    HW145649   5.350   6.821   5.143 -0.2763  0.7110  1.3954
14956SOL    HW245650   5.234   6.731   5.178 -0.1930 -0.7658 -1.7011
14957SOL     OW45651   2.461   5.131   5.036  0.1327 -0.0031 -0.1924
14957SOL    HW145652   2.487   5.110   5.126 -2.5489  1.4207  1.0225
14957SOL    HW245653   2.518   5.204   5.011  2.0122 -1.4420 -0.3402
14958SOL     OW45654   0.795   7.187   3.950 -0.5509  0.2920  0.1059
14958SOL    HW145655   0.827   7.237   4.024  0.5911 -1.9661  1.2432
14958SOL    HW245656   0.776   7.100   3.986 -2.5217 -0.1266 -1.7234
14959SOL     OW45657   4.588   7.546   6.290  0.6616 -0.0087 -0.3477
14959SOL    HW145658   4.555   7.471   6.340  1.7273  0.1012  0.5840
14959SOL    HW245659   4.601   7.615   6.356 -0.2340  0.9877 -1.1769
14960SOL     OW45660   4.356   7.353   6.629 -0.3736 -0.2203 -0.2958
14960SOL    HW145661   4.373   7.356   6.723 -0.2636 -0.4027 -0.3084
14960SOL    HW245662   4.441   7.369   6.588 -0.3552 -0.4834 -0.3626
14961SOL     OW45663   1.487   8.153   3.425  0.0001  0.2257 -0.2838
14961SOL    HW145664   1.572   8.109   3.423  0.2477  0.6973 -0.3392
14961SOL    HW245665   1.503   8.238   3.384 -0.4854  0.3415 -0.2389
14962SOL     OW45666   2.040   3.262   5.938 -0.3325  0.0871 -0.5561
14962SOL    HW145667   2.034   3.325   6.010 -0.6550  0.9000 -1.2806
14962SOL    HW245668   1.982   3.297   5.870  1.1409  0.1692 -1.8313
14963SOL     OW45669   1.650   4.941   7.569 -0.0453 -0.5797  0.7992
14963SOL    HW145670   1.736   4.982   7.567  0.4238 -1.5111  1.3309
14963SOL    HW245671   1.612   4.969   7.652 -0.7921  0.8584  0.0061
14964SOL     OW45672   3.766   2.554   6.600  0.7860  0.4358 -0.1187
14964SOL    HW145673   3.824   2.629   6.592  0.1309  0.8346 -1.5483
14964SOL    HW245674   3.797   2.492   6.533  0.8583 -0.2560  0.5386
14965SOL     OW45675   2.734   7.522   3.995 -0.0280 -0.1716  0.0074
14965SOL    HW145676   2.698   7.436   4.017 -0.9962  0.1578 -0.2165
14965SOL    HW245677   2.786   7.506   3.916  0.5033 -0.6965  0.4495
14966SOL     OW45678   3.501   1.204   6.705 -0.0234  0.1784  0.7098
14966SOL    HW145679   3.453   1.189   6.624  0.2824  1.3842  0.2892
14966SOL    HW245680   3.559   1.128   6.713  0.4474  0.3856 -0.5715
14967SOL     OW45681   6.441   7.022   7.965  0.7472 -0.7373 -0.0417
14967SOL    HW145682   6.512   7.055   7.910  0.9796 -1.2479 -0.0641
14967SOL    HW245683   6.481   6.949   8.014  1.2625  1.2033  2.6572
14968SOL     OW45684   4.503   7.483   5.505  0.1518  0.2880  0.8058
14968SOL    HW145685   4.523   7.576   5.496  1.7335  0.0507  1.4921
14968SOL    HW245686   4.526   7.462   5.595  0.2549 -0.8621  0.5327
14969SOL     OW45687   6.165   3.397   1.734 -0.0959 -0.8252 -0.0881
14969SOL    HW145688   6.166   3.426   1.643  1.5538 -0.9554 -0.1451
14969SOL    HW245689   6.073   3.380   1.753 -0.6064  0.3221 -1.3643
14970SOL     OW45690   2.632   3.131   5.601 -0.3383  0.1414 -0.6068
14970SOL    HW145691   2.546   3.125   5.559 -0.3401 -1.3300 -0.4480
14970SOL    HW245692   2.672   3.046   5.585  0.7409  0.4974  0.0983
14971SOL     OW45693   4.184   6.157   8.119 -0.3851  0.4889 -0.3317
14971SOL    HW145694   4.217   6.153   8.029 -1.2873  1.4733 -0.7293
14971SOL    HW245695   4.253   6.118   8.172 -0.2993 -1.1297 -1.5673
14972SOL     OW45696   1.293   0.698   0.588 -0.6411  0.3161 -0.7116
14972SOL    HW145697   1.301   0.670   0.680 -4.0424 -0.9251 -0.6484
14972SOL    HW245698   1.261   0.788   0.593 -1.4111  0.0416 -0.6587
14973SOL     OW45699   6.664   2.703   5.055 -0.1895  0.0106 -0.8625
14973SOL    HW145700   6.689   2.622   5.099  0.9654  0.6033 -0.3688
14973SOL    HW245701   6.636   2.761   5.126 -2.2139 -0.3207 -1.3187
14974SOL     OW45702   0.511   2.276   0.189  0.5472  0.1584 -0.9097
14974SOL    HW145703   0.586   2.322   0.228 -0.7877  2.0273 -0.4139
14974SOL    HW245704   0.483   2.334   0.118 -0.3134 -0.6234 -1.2180
14975SOL     OW45705   6.906   4.263   0.412 -0.3121 -0.0428  0.2392
14975SOL    HW145706   6.919   4.352   0.377 -2.0370  1.0397  2.1402
14975SOL    HW245707   6.886   4.210   0.335 -2.7474  1.9675 -0.6770
14976SOL     OW45708   4.212   4.769   5.295 -0.0165 -0.7383 -0.1933
14976SOL    HW145709   4.277   4.699   5.295 -1.5478 -2.2224 -0.3118
14976SOL    HW245710   4.260   4.846   5.263  1.8786 -1.5262  0.5683
14977SOL     OW45711   5.421   4.796   8.213  0.2607  0.3466 -0.2697
14977SOL    HW145712   5.387   4.706   8.204 -0.8556  0.8033 -0.8989
14977SOL    HW245713   5.381   4.828   8.294 -1.6258  1.1906 -1.4700
14978SOL     OW45714   1.639   1.536   1.458 -0.4007 -0.3658 -0.2819
14978SOL    HW145715   1.602   1.497   1.379  0.3381 -1.2553 -0.2182
14978SOL    HW245716   1.704   1.599   1.425  0.8701 -1.6945 -0.4232
14979SOL     OW45717   1.780   7.221   4.870 -0.0519 -0.3964  0.3968
14979SOL    HW145718   1.754   7.184   4.785  0.5716  0.1394 -0.0392
14979SOL    HW245719   1.788   7.145   4.928 -0.9232 -0.7281  0.1028
14980SOL     OW45720   0.001   4.785   7.333  0.0479 -0.6553 -0.4293
14980SOL    HW145721  -0.022   4.878   7.333 -0.7116 -0.8118 -1.6736
14980SOL    HW245722   0.073   4.778   7.270  1.5959 -0.6146  1.2672
14981SOL     OW45723   3.581   1.767   8.066 -0.4959 -0.4160  0.1947
14981SOL    HW145724   3.573   1.721   8.149  1.5686  0.1132  0.7301
14981SOL    HW245725   3.539   1.708   8.002 -0.2091 -1.8224  1.2588
14982SOL     OW45726   0.554   7.834   0.904  0.3401 -0.1319 -0.3426
14982SOL    HW145727   0.571   7.740   0.906  2.9090  0.2599  2.0180
14982SOL    HW245728   0.637   7.874   0.879 -0.4425  1.5656 -0.4070
14983SOL     OW45729   5.106   6.637   8.207 -0.4155 -0.1588  0.4503
14983SOL    HW145730   5.191   6.627   8.163 -0.1206 -0.5228  1.0811
14983SOL    HW245731   5.111   6.577   8.282 -0.8240  0.6083  1.1026
14984SOL     OW45732   4.014   3.494   0.445  0.0343  0.1881 -0.6514
14984SOL    HW145733   4.031   3.401   0.432  1.0407  0.0239  1.3815
14984SOL    HW245734   4.101   3.534   0.442 -0.3627  1.0233 -1.2294
14985SOL     OW45735   2.017   8.205   3.813  0.3314  0.2609 -0.2139
14985SOL    HW145736   2.076   8.156   3.870  1.4883  0.8622 -0.8385
14985SOL    HW245737   1.961   8.255   3.872 -0.1545 -0.9876  0.4085
14986SOL     OW45738   1.784   7.104   6.169  0.3180 -0.5953  0.3159
14986SOL    HW145739   1.866   7.064   6.200 -0.1133 -1.6766  0.1067
14986SOL    HW245740   1.729   7.029   6.146 -0.6530  0.1339  0.2537
14987SOL     OW45741   2.905   6.989   5.168 -0.3350 -0.2317  0.3454
14987SOL    HW145742   2.873   6.904   5.199  1.0322 -0.7935  0.2931
14987SOL    HW245743   2.993   6.971   5.134 -0.0830  1.1731  0.1694
14988SOL     OW45744   1.465   6.992   3.168  0.0406  0.2279  0.0341
14988SOL    HW145745   1.493   7.026   3.083  0.6003  1.4136  0.6788
14988SOL    HW245746   1.473   7.066   3.228  1.2842 -1.0069  1.4807
14989SOL     OW45747   4.066   2.147   1.859 -0.2690 -0.0803 -0.4224
14989SOL    HW145748   4.017   2.107   1.931 -0.9548 -0.6051 -1.1661
14989SOL    HW245749   4.020   2.229   1.842  0.5239  0.5611  0.4187
14990SOL     OW45750   2.682   3.127   7.873  0.1052  0.4975 -0.0000
14990SOL    HW145751   2.736   3.083   7.808 -0.7623 -1.0704  0.2892
14990SOL    HW245752   2.739   3.194   7.911  1.0555  0.5039 -1.3731
14991SOL     OW45753   8.304   0.982   7.240  0.5573 -0.1819  0.0008
14991SOL    HW145754   8.293   1.009   7.149  1.6562  0.4177  0.0312
14991SOL    HW245755   8.396   0.999   7.260  0.3700 -0.4287  1.1885
14992SOL     OW45756   2.565   3.992   2.119 -0.2668 -0.3412 -0.3012
14992SOL    HW145757   2.521   3.961   2.040 -0.5349  0.2087 -0.3772
14992SOL    HW245758   2.536   3.933   2.188  0.7067 -1.4136 -0.7730
14993SOL     OW45759   2.784   6.996   7.393 -0.2095 -0.0960 -0.2016
14993SOL    HW145760   2.784   7.077   7.445  1.0206 -1.3238  1.8369
14993SOL    HW245761   2.827   6.932   7.449 -0.5785 -2.0273 -2.0240
14994SOL     OW45762   1.043   0.639   6.474  0.4669 -0.2589 -0.2444
14994SOL    HW145763   1.047   0.634   6.378  0.9101 -2.1770 -0.1750
14994SOL    HW245764   1.003   0.555   6.500  0.8864 -0.0113  1.2707
14995SOL     OW45765   4.380   7.488   2.888 -0.1909  0.4592 -0.5172
14995SOL    HW145766   4.449   7.423   2.902 -0.9522 -0.1696  0.4907
14995SOL    HW245767   4.373   7.534   2.971 -1.7712 -0.3007 -0.1860
14996SOL     OW45768   1.664   7.986   1.731 -0.3554 -0.2848  0.3169
14996SOL    HW145769   1.634   8.067   1.690 -1.9002 -2.1162 -2.5595
14996SOL    HW245770   1.629   7.990   1.820 -0.1216  2.2776  0.3703
14997SOL     OW45771   5.898   6.061   0.611 -0.1045 -0.3925  0.6114
14997SOL    HW145772   5.842   6.135   0.585  0.0700 -0.7050 -0.7201
14997SOL    HW245773   5.969   6.102   0.661 -0.9740  0.1196  1.4699
14998SOL     OW45774   7.754   6.517   2.572 -0.1485 -0.1933 -0.0761
14998SOL    HW145775   7.807   6.490   2.497  0.1794  1.5730 -0.5096
14998SOL    HW245776   7.784   6.605   2.593 -2.6311  0.7289 -0.0763
14999SOL     OW45777   3.182   7.926   5.780 -0.2617  0.0272 -0.6473
14999SOL    HW145778   3.187   7.903   5.872  0.3008  0.8742 -0.4492
14999SOL    HW245779   3.270   7.959   5.759 -0.7262  0.9676 -1.1631
15000SOL     OW45780   5.425   1.754   6.303 -0.5602 -0.4524  0.3737
15000SOL    HW145781   5.402   1.701   6.379 -0.6907 -0.7276  0.1487
15000SOL    HW245782   5.410   1.695   6.228 -3.5001  0.7945 -0.1191
15001SOL     OW45783   8.286   1.959   0.368  0.0556 -0.1438 -0.1526
15001SOL    HW145784   8.227   1.886   0.387  0.7115 -0.6362  0.0526
15001SOL    HW245785   8.264   1.985   0.279  0.0660 -0.8435 -0.3684
15002SOL     OW45786   7.960   5.875   5.207 -0.3772  0.3291  0.2518
15002SOL    HW145787   7.881   5.922   5.182  0.4659  0.9048 -1.4220
15002SOL    HW245788   7.991   5.834   5.127  1.7132  1.1489  0.5742
15003SOL     OW45789   5.524   6.939   4.925  0.4073  0.1892 -0.3378
15003SOL    HW145790   5.594   6.971   4.983 -1.6744  1.4752  1.6189
15003SOL    HW245791   5.535   6.844   4.925  1.8683  0.3289  0.2649
15004SOL     OW45792   5.099   5.973   6.867  0.0980  0.1269 -0.6383
15004SOL    HW145793   5.079   6.003   6.778  2.7035  1.8866 -0.7631
15004SOL    HW245794   5.108   5.878   6.859  0.3550  0.2513 -2.2983
15005SOL     OW45795   4.470   5.534   1.654 -0.1971 -0.2112  0.1676
15005SOL    HW145796   4.527   5.533   1.731  0.2126  0.8310 -0.1075
15005SOL    HW245797   4.385   5.503   1.687  0.4640 -1.6494  0.6090
15006SOL     OW45798   2.358   6.302   7.830  0.3069 -0.5480 -0.3971
15006SOL    HW145799   2.332   6.383   7.786 -1.6032 -0.7565  0.2240
15006SOL    HW245800   2.403   6.252   7.762 -0.1049  0.2797 -1.3196
15007SOL     OW45801   1.571   7.248   5.775 -0.3324 -0.3356 -0.2702
15007SOL    HW145802   1.599   7.171   5.725 -1.7235 -0.4237 -0.9564
15007SOL    HW245803   1.635   7.255   5.846 -0.0191 -1.9485 -0.3637
15008SOL     OW45804   7.114   7.470   0.312  0.2221  0.2405  0.1464
15008SOL    HW145805   7.206   7.452   0.292  0.2303  1.6361 -1.3336
15008SOL    HW245806   7.116   7.521   0.392  0.7919  0.7457 -0.1851
15009SOL     OW45807   1.373   3.957   6.635  0.3368  0.1616  0.0605
15009SOL    HW145808   1.368   3.999   6.549 -5.3019 -2.0454 -1.1412
15009SOL    HW245809   1.324   4.014   6.693 -3.6740 -2.2222 -0.6003
15010SOL     OW45810   3.408   0.663   1.652 -0.4723  0.0252  0.4359
15010SOL    HW145811   3.453   0.731   1.702  0.4795  0.5910 -1.1159
15010SOL    HW245812   3.319   0.662   1.686  0.3985 -0.3985  2.8811
15011SOL     OW45813   8.261   8.106   7.562 -0.8553  0.3450 -0.1490
15011SOL    HW145814   8.228   8.072   7.479 -0.0917 -0.5036 -0.1309
15011SOL    HW245815   8.183   8.125   7.613 -1.3351 -0.7493 -0.4280
15012SOL     OW45816   6.425   1.863   2.463 -0.0191  0.4480  0.7330
15012SOL    HW145817   6.418   1.785   2.407  0.4420 -0.3278  1.7207
15012SOL    HW245818   6.482   1.922   2.415 -0.7418  0.3751 -0.2456
15013SOL     OW45819   2.950   1.569   3.789  0.0147 -0.3811  0.0915
15013SOL    HW145820   2.904   1.610   3.716  0.6702  1.3404  0.6067
15013SOL    HW245821   2.916   1.613   3.866  0.6852 -0.8879  0.6842
15014SOL     OW45822   2.153   4.995   2.008  0.2372 -0.7197  0.5536
15014SOL    HW145823   2.087   5.020   1.944 -1.0744  1.4469  2.5565
15014SOL    HW245824   2.160   4.900   2.001 -2.8216 -0.9982 -0.0416
15015SOL     OW45825   6.776   8.067   2.499 -0.2424 -0.1299  0.0200
15015SOL    HW145826   6.870   8.047   2.500 -0.4838 -1.3603 -0.6936
15015SOL    HW245827   6.759   8.098   2.410 -0.1291  2.2304  0.7395
15016SOL     OW45828   0.764   3.805   4.714  0.0099 -0.0130  0.0472
15016SOL    HW145829   0.834   3.741   4.699 -0.9674 -1.3444  0.9718
15016SOL    HW245830   0.741   3.794   4.806 -1.2393  0.5828 -0.1776
15017SOL     OW45831   4.627   2.020   5.090 -0.3442  0.6757 -0.0832
15017SOL    HW145832   4.576   2.060   5.161 -0.3948  1.0778 -0.3389
15017SOL    HW245833   4.566   1.962   5.046 -0.0094 -0.4318  0.8826
15018SOL     OW45834   0.751   1.514   6.337 -0.8501  0.3208 -0.3639
15018SOL    HW145835   0.725   1.424   6.356 -2.1923  0.4336 -1.4811
15018SOL    HW245836   0.797   1.543   6.415  0.5566 -1.6654 -0.3745
15019SOL     OW45837   5.924   2.127   6.615 -0.8226 -0.3455  0.7065
15019SOL    HW145838   5.893   2.215   6.594  1.0278  0.0233 -0.6912
15019SOL    HW245839   5.975   2.100   6.539  0.7182 -1.6283  2.1050
15020SOL     OW45840   2.668   0.179   6.115  0.0447  0.0870 -0.0598
15020SOL    HW145841   2.661   0.182   6.211  0.6614 -0.5330  0.0087
15020SOL    HW245842   2.608   0.248   6.085  0.9556  1.3050  0.8179
15021SOL     OW45843   1.113   7.922   5.611  0.7905  0.1377 -0.3362
15021SOL    HW145844   1.168   7.883   5.542  0.3811 -1.9274  0.4142
15021SOL    HW245845   1.026   7.928   5.572  0.0698 -2.9316  0.4847
15022SOL     OW45846   3.201   6.588   3.005 -0.4532  0.8487 -0.1265
15022SOL    HW145847   3.293   6.562   2.999 -0.1431  1.5329  1.3606
15022SOL    HW245848   3.154   6.505   3.016 -0.0733  0.4703 -1.1409
15023SOL     OW45849   4.402   4.396   7.168 -0.3614 -0.0694  0.1792
15023SOL    HW145850   4.444   4.346   7.099 -1.0507  0.2059 -0.4528
15023SOL    HW245851   4.324   4.434   7.127  0.1713  1.5980  0.5984
15024SOL     OW45852   3.273   1.886   6.101  0.2050 -0.0129 -0.6962
15024SOL    HW145853   3.349   1.916   6.049  0.0970 -0.4768 -1.1249
15024SOL    HW245854   3.230   1.967   6.129  0.1843  0.2448 -1.4591
15025SOL     OW45855   0.301   1.210   3.388  0.0198  0.3415  0.0574
15025SOL    HW145856   0.265   1.122   3.392  0.5450  0.1342  0.4280
15025SOL    HW245857   0.229   1.265   3.358 -1.1227  0.2270  2.3819
15026SOL     OW45858   3.640   3.008   6.140  0.5058 -0.4879  0.6830
15026SOL    HW145859   3.593   2.975   6.063 -0.5578 -0.7484  1.4253
15026SOL    HW245860   3.662   3.098   6.118 -1.5825  0.0953  0.8323
15027SOL     OW45861   4.190   5.732   5.249 -0.1392 -0.0071 -0.5094
15027SOL    HW145862   4.131   5.656   5.254  0.2492 -0.2922 -0.2244
15027SOL    HW245863   4.140   5.798   5.201 -0.2502 -0.6517 -1.2916
15028SOL     OW45864   5.033   1.744   7.297 -0.1167  0.0591 -0.1719
15028SOL    HW145865   4.948   1.774   7.266 -0.0322  0.3784 -0.0996
15028SOL    HW245866   5.017   1.714   7.386 -0.5311 -1.6413 -0.7756
15029SOL     OW45867   7.991   2.761   4.968 -0.7452  0.0014  0.2063
15029SOL    HW145868   7.956   2.839   5.012 -1.4177 -0.5113  0.5956
15029SOL    HW245869   7.956   2.766   4.879  0.2089  0.7764 -0.1426
15030SOL     OW45870   6.468   4.541   7.985 -0.0059  0.1596 -0.1189
15030SOL    HW145871   6.374   4.541   7.970 -0.2219 -0.1178  1.1089
15030SOL    HW245872   6.487   4.454   8.020  0.6956  0.2428 -0.2718
15031SOL     OW45873   7.553   2.664   5.496  0.3321  0.2602  0.7627
15031SOL    HW145874   7.477   2.693   5.444 -1.5698 -0.4432  2.9812
15031SOL    HW245875   7.628   2.681   5.439 -1.2985  2.5981 -0.9068
15032SOL     OW45876   0.190   4.876   3.016 -0.2085 -0.0341  0.2083
15032SOL    HW145877   0.228   4.931   3.085  0.9563 -0.2070 -0.2716
15032SOL    HW245878   0.122   4.930   2.977 -0.4357  0.3104  1.0608
15033SOL     OW45879   6.269   1.860   5.411 -0.4482  0.0552  0.2907
15033SOL    HW145880   6.273   1.849   5.506 -0.5175  1.8419  0.5492
15033SOL    HW245881   6.244   1.775   5.377  0.1249 -0.7628  1.8334
15034SOL     OW45882   3.187   5.134   7.516 -0.1581 -0.3491  0.0190
15034SOL    HW145883   3.137   5.189   7.456 -0.8993 -1.5733 -0.5247
15034SOL    HW245884   3.260   5.190   7.544 -0.9107  0.9158 -0.4508
15035SOL     OW45885   0.098   3.823   6.919 -0.0197  0.0258 -0.1274
15035SOL    HW145886   0.004   3.836   6.926  0.2082  0.9225  2.1596
15035SOL    HW245887   0.111   3.730   6.936 -0.4597 -0.0386 -0.1384
15036SOL     OW45888   4.548   7.788   7.212 -0.4095 -0.0966 -0.2609
15036SOL    HW145889   4.576   7.725   7.278 -0.4148  0.6862  0.5077
15036SOL    HW245890   4.537   7.870   7.260 -1.9186  0.1349 -0.9357
15037SOL     OW45891   5.224   4.837   2.859 -0.1673 -0.6181  0.0797
15037SOL    HW145892   5.245   4.891   2.783 -2.4357 -0.2651 -0.3602
15037SOL    HW245893   5.164   4.770   2.825 -0.9574 -0.6597  1.4902
15038SOL     OW45894   4.250   6.654   0.262 -0.3016  0.0597 -0.0858
15038SOL    HW145895   4.163   6.620   0.240 -0.4847 -0.5705  1.4757
15038SOL    HW245896   4.270   6.715   0.191 -1.3499 -0.9150 -1.2789
15039SOL     OW45897   3.534   5.989   6.931 -0.0990  0.2003 -0.5250
15039SOL    HW145898   3.455   6.040   6.913  0.4216  0.7142 -1.4051
15039SOL    HW245899   3.562   6.017   7.018 -0.7834  0.1367 -0.2769
15040SOL     OW45900   7.928   0.857   4.901 -0.4409  0.1384 -0.3262
15040SOL    HW145901   7.871   0.902   4.963  1.7639  2.4204  0.2093
15040SOL    HW245902   7.985   0.803   4.957  1.4105  2.0357 -0.2699
15041SOL     OW45903   3.251   8.311   7.288  0.1966  0.0131  0.2230
15041SOL    HW145904   3.217   8.226   7.260 -0.2269  0.1515  0.3105
15041SOL    HW245905   3.177   8.371   7.279  1.1275  0.9446 -2.3214
15042SOL     OW45906   5.010   7.554   1.446  0.1404  0.1184  0.0410
15042SOL    HW145907   4.960   7.494   1.502 -1.5099  3.4631  2.4985
15042SOL    HW245908   5.093   7.567   1.493  0.0908  0.5001  0.0258
15043SOL     OW45909   3.725   4.114   3.427 -0.2177 -0.1953 -0.1074
15043SOL    HW145910   3.726   4.054   3.353  3.1040  0.0126 -0.3857
15043SOL    HW245911   3.728   4.201   3.387  0.4409 -0.0435  0.2656
15044SOL     OW45912   0.192   2.800   1.538  0.3812  0.1541  0.6308
15044SOL    HW145913   0.169   2.829   1.626  0.2763  1.3421  0.2352
15044SOL    HW245914   0.118   2.826   1.483  0.8770  0.3537  0.0351
15045SOL     OW45915   5.210   0.218   4.646  0.0193  0.3130 -0.4862
15045SOL    HW145916   5.157   0.227   4.567  0.2721  0.1112 -0.6811
15045SOL    HW245917   5.194   0.129   4.675  0.3805  0.1961 -0.6409
15046SOL     OW45918   4.696   3.417   0.886 -0.0666  0.0126  0.5299
15046SOL    HW145919   4.660   3.444   0.971  0.4672 -1.1424  1.1445
15046SOL    HW245920   4.735   3.332   0.903 -0.4939 -0.5226 -1.0279
15047SOL     OW45921   0.682   1.835   1.544  0.0099  0.1275 -0.1688
15047SOL    HW145922   0.683   1.745   1.578  0.0965 -0.1677 -0.9329
15047SOL    HW245923   0.591   1.862   1.554  0.2176  0.4127  1.2003
15048SOL     OW45924   5.928   2.505   5.891 -0.5119 -0.5874  0.0974
15048SOL    HW145925   5.940   2.587   5.843 -0.2148 -0.7065 -0.0309
15048SOL    HW245926   5.836   2.483   5.877 -0.3099 -0.8919 -0.8582
15049SOL     OW45927   5.094   2.150   4.607 -0.0464 -0.2359  0.8623
15049SOL    HW145928   5.107   2.195   4.523  0.8937  1.3824  1.8286
15049SOL    HW245929   5.015   2.098   4.593  0.4097 -0.4848 -1.2056
15050SOL     OW45930   1.614   4.183   1.008 -0.4351  0.1496  0.0641
15050SOL    HW145931   1.539   4.123   1.005  0.6562 -1.2972  0.5481
15050SOL    HW245932   1.632   4.202   0.916  0.6982 -2.2755 -0.2971
15051SOL     OW45933   3.693   4.565   5.211 -0.5045  0.1505 -0.3064
15051SOL    HW145934   3.781   4.573   5.173  0.2810 -2.1418  0.8147
15051SOL    HW245935   3.692   4.627   5.283  0.0467  0.5083 -0.5984
15052SOL     OW45936   4.047   1.199   2.355 -0.3365  0.4472 -0.1068
15052SOL    HW145937   4.000   1.122   2.323  2.5874 -1.0216 -1.2766
15052SOL    HW245938   3.980   1.252   2.397 -2.6008 -2.4806  0.3126
15053SOL     OW45939   2.004   4.925   5.410  0.1144 -0.3404 -0.3524
15053SOL    HW145940   1.952   4.980   5.351 -1.0623 -0.1261  0.8271
15053SOL    HW245941   2.095   4.940   5.383 -0.3815 -0.2080 -2.0393
15054SOL     OW45942   3.196   1.452   5.458  0.3612 -0.0914 -0.5740
15054SOL    HW145943   3.165   1.449   5.549  1.3023 -2.1011 -0.2675
15054SOL    HW245944   3.116   1.455   5.406 -0.2866 -1.3343  0.2866
15055SOL     OW45945   5.909   6.660   2.838  0.5927 -0.0085  0.2524
15055SOL    HW145946   5.884   6.594   2.773 -0.7089 -0.3201  1.0346
15055SOL    HW245947   5.871   6.629   2.920 -1.0676  2.2511  0.4439
15056SOL     OW45948   4.843   4.444   1.347 -0.4602  0.7042 -0.1921
15056SOL    HW145949   4.901   4.518   1.324  0.1156  0.1303 -0.6242
15056SOL    HW245950   4.840   4.391   1.267 -0.7118  0.1589  0.1782
15057SOL     OW45951   5.226   8.260   7.304  0.7234 -0.0847 -0.6382
15057SOL    HW145952   5.211   8.342   7.257  2.7194 -0.1025 -1.3825
15057SOL    HW245953   5.149   8.251   7.361 -0.5009  1.2765 -1.9784
15058SOL     OW45954   6.365   2.276   4.706 -0.5723 -0.2468  0.4836
15058SOL    HW145955   6.321   2.360   4.691 -0.1820 -0.0893  0.2146
15058SOL    HW245956   6.446   2.299   4.751  1.3564 -0.0840 -2.8220
15059SOL     OW45957   0.896   8.212   6.637  0.2092 -0.1415 -0.1031
15059SOL    HW145958   0.939   8.159   6.570 -0.0816  0.7343 -1.0020
15059SOL    HW245959   0.967   8.259   6.680  0.4663 -1.1815  0.6717
15060SOL     OW45960   5.642   3.091   0.385 -0.0489 -0.0888  0.0686
15060SOL    HW145961   5.725   3.064   0.346  0.2599  1.4786 -0.4161
15060SOL    HW245962   5.610   3.161   0.328 -1.3388 -0.1645  0.6693
15061SOL     OW45963   1.294   3.434   4.914  0.6490 -0.8097 -0.1779
15061SOL    HW145964   1.358   3.364   4.899  1.9299  0.5019 -1.0778
15061SOL    HW245965   1.328   3.508   4.864 -0.1673  0.7685  1.5174
15062SOL     OW45966   7.333   3.634   3.537  0.3585  0.1568 -0.2189
15062SOL    HW145967   7.365   3.723   3.557 -0.3817  0.6279 -1.0790
15062SOL    HW245968   7.333   3.590   3.622  0.2380  1.1524  0.3186
15063SOL     OW45969   7.022   1.840   8.096 -0.3435  0.0208 -0.3845
15063SOL    HW145970   6.930   1.865   8.096 -0.0877  1.1267 -1.8007
15063SOL    HW245971   7.069   1.924   8.099  0.6069 -0.4836 -0.8267
15064SOL     OW45972   0.735   2.297   2.957 -0.8046  0.0143  0.0608
15064SOL    HW145973   0.646   2.285   2.925 -1.2251  1.3683  0.6881
15064SOL    HW245974   0.732   2.268   3.048 -0.7973  0.8408  0.3230
15065SOL     OW45975   5.845   5.417   3.221 -0.7769 -0.1105 -0.1610
15065SOL    HW145976   5.854   5.484   3.153  0.0975  0.1524  0.1942
15065SOL    HW245977   5.766   5.441   3.268 -0.6339  0.5106 -0.2262
15066SOL     OW45978   2.268   2.165   5.306  0.0895 -0.2416  0.0578
15066SOL    HW145979   2.232   2.077   5.296  0.0894 -0.0602 -2.0567
15066SOL    HW245980   2.195   2.223   5.286  0.6696  0.1817 -0.8642
15067SOL     OW45981   0.675   1.202   7.982 -0.6589  0.2589 -0.1782
15067SOL    HW145982   0.654   1.133   8.045 -0.4987 -0.7413 -1.1776
15067SOL    HW245983   0.642   1.282   8.022 -2.1378 -0.5938  0.3961
15068SOL     OW45984   6.400   4.977   0.870 -0.2208 -0.1092  0.6551
15068SOL    HW145985   6.365   4.899   0.912  0.6270 -0.7876  0.1530
15068SOL    HW245986   6.464   4.943   0.806 -1.1566  0.8965 -0.8866
15069SOL     OW45987   3.856   5.304   1.178  0.4459 -0.5535  0.5376
15069SOL    HW145988   3.910   5.322   1.255  1.2071  0.0125 -0.1135
15069SOL    HW245989   3.918   5.301   1.106 -0.1888 -1.6178  0.0100
15070SOL     OW45990   2.568   3.837   0.617  0.3228  0.9861  0.7059
15070SOL    HW145991   2.593   3.756   0.572 -0.2188  0.9697  0.4354
15070SOL    HW245992   2.628   3.903   0.581  1.4261  0.5361  1.6308
15071SOL     OW45993   2.172   5.475   0.624 -0.6671  0.4611  0.3368
15071SOL    HW145994   2.127   5.530   0.560  0.5225  0.3678 -0.6052
15071SOL    HW245995   2.254   5.521   0.642 -0.7786  0.2519  1.4651
15072SOL     OW45996   8.075   7.271   0.286 -0.2336  0.1778 -0.1063
15072SOL    HW145997   8.021   7.322   0.225  0.8060  0.5160 -0.7752
15072SOL    HW245998   8.112   7.336   0.345  1.4888  0.3387 -1.2614
15073SOL     OW45999   6.726   5.244   4.554  0.3915  0.0776  0.2684
15073SOL    HW146000   6.674   5.296   4.615  0.5187  1.0345 -0.4120
15073SOL    HW246001   6.812   5.237   4.595  0.5413  0.8986  0.1197
15074SOL     OW46002   3.941   6.389   1.416  0.3279 -0.1674  0.2747
15074SOL    HW146003   3.935   6.365   1.508  0.7264  0.2767  0.4226
15074SOL    HW246004   3.879   6.462   1.406 -1.1809 -1.4804 -0.2615
15075SOL     OW46005   4.025   7.613   6.405 -0.3368 -0.4642 -0.3725
15075SOL    HW146006   4.048   7.666   6.481 -0.4928 -0.9563  0.0196
15075SOL    HW246007   3.930   7.616   6.401 -0.2836  1.1842 -1.7255
15076SOL     OW46008   5.594   4.595   4.362  0.0857 -0.0499 -0.3437
15076SOL    HW146009   5.540   4.645   4.300  2.4277 -0.0504 -2.5513
15076SOL    HW246010   5.547   4.512   4.373 -0.1240 -0.3473 -2.7706
15077SOL     OW46011   2.285   0.437   0.024  0.3485 -0.2960  0.7203
15077SOL    HW146012   2.273   0.507   0.088 -1.3899 -0.5499  0.7166
15077SOL    HW246013   2.264   0.479  -0.060  2.4493 -0.0073  0.3008
15078SOL     OW46014   0.537   1.381   6.984  0.1767 -0.3003 -0.6291
15078SOL    HW146015   0.606   1.409   6.925 -0.9065  1.3650 -1.1564
15078SOL    HW246016   0.526   1.454   7.045  1.7728 -2.2376  2.2067
15079SOL     OW46017   4.171   5.132   1.425 -0.1730 -0.4079  0.3223
15079SOL    HW146018   4.120   5.104   1.348  1.4582  0.1368 -1.0288
15079SOL    HW246019   4.173   5.227   1.419 -0.6318 -0.3027  1.4992
15080SOL     OW46020   1.208   0.879   8.139 -0.1120 -0.3556 -0.3121
15080SOL    HW146021   1.174   0.936   8.071 -2.4328 -0.3391  0.7655
15080SOL    HW246022   1.293   0.917   8.163  0.8499 -0.4594 -3.2144
15081SOL     OW46023   6.201   8.267   6.314  0.1533 -1.0946 -0.4313
15081SOL    HW146024   6.224   8.260   6.221  1.3907 -1.8272 -0.0902
15081SOL    HW246025   6.253   8.342   6.346  0.8697 -1.7535 -0.0172
15082SOL     OW46026   4.500   6.437   0.982 -0.2567 -0.6984  0.4020
15082SOL    HW146027   4.531   6.426   0.892  0.5451  0.5514  0.5051
15082SOL    HW246028   4.406   6.424   0.976 -0.2986 -0.0231 -0.7274
15083SOL     OW46029   4.489   2.625   7.340  0.4559 -0.5438  0.1644
15083SOL    HW146030   4.414   2.683   7.351 -0.8801 -2.0264 -0.7528
15083SOL    HW246031   4.560   2.668   7.389 -1.4199  0.0565  2.5215
15084SOL     OW46032   0.103   1.652   6.702  0.1786  0.4410  0.1796
15084SOL    HW146033   0.101   1.639   6.607 -0.1642  0.0329  0.2434
15084SOL    HW246034   0.081   1.567   6.739 -1.3521  0.9871  0.6062
15085SOL     OW46035   2.997   6.100   1.491  0.0241  1.1624 -0.0630
15085SOL    HW146036   3.034   6.045   1.422  0.6860 -1.3123  2.1132
15085SOL    HW246037   2.912   6.061   1.511  0.1596  1.3694  0.9931
15086SOL     OW46038   0.166   4.678   2.430  0.0851 -0.0186 -0.2681
15086SOL    HW146039   0.132   4.624   2.501  0.5051 -0.2715 -0.2541
15086SOL    HW246040   0.260   4.658   2.427  0.2965  0.9169 -0.0907
15087SOL     OW46041   6.417   2.135   8.249  0.3617  0.1872  0.0096
15087SOL    HW146042   6.437   2.107   8.339 -1.1127 -0.9259  0.0299
15087SOL    HW246043   6.418   2.055   8.198 -0.5872  0.5526 -0.6126
15088SOL     OW46044   2.941   1.650   0.373  0.0730 -0.2222  0.3011
15088SOL    HW146045   3.023   1.604   0.385  0.4508  0.5360  0.7384
15088SOL    HW246046   2.966   1.741   0.358 -0.7030  0.1805  1.3083
15089SOL     OW46047   7.821   1.220   5.290 -0.6013  0.7300 -0.6417
15089SOL    HW146048   7.862   1.192   5.371  1.1719 -0.4199 -1.8592
15089SOL    HW246049   7.828   1.315   5.291 -0.0395  0.6895  0.2606
15090SOL     OW46050   7.059   6.315   0.489 -0.0371 -0.2238 -0.9855
15090SOL    HW146051   7.089   6.276   0.571 -3.5340 -0.4926  0.3169
15090SOL    HW246052   7.088   6.406   0.493  0.3107 -0.3784  0.2677
15091SOL     OW46053   4.938   4.161   2.411  0.2034 -0.4569  0.0893
15091SOL    HW146054   4.920   4.139   2.320 -0.5947  0.3849  0.0393
15091SOL    HW246055   5.007   4.099   2.437 -0.9971 -2.0948 -0.4574
15092SOL     OW46056   4.834   4.847   5.453  0.1185 -0.1654 -0.3352
15092SOL    HW146057   4.781   4.808   5.384 -0.9719  1.6094 -0.5750
15092SOL    HW246058   4.770   4.891   5.510  1.1976  0.5013  0.3966
15093SOL     OW46059   2.596   4.105   3.002  0.0764  0.1727  0.4116
15093SOL    HW146060   2.637   4.154   2.931  0.9350 -0.5435  0.3936
15093SOL    HW246061   2.502   4.113   2.986  0.2490  0.3990 -0.5448
15094SOL     OW46062   6.860   2.153   6.463 -0.8526 -0.3291  0.2870
15094SOL    HW146063   6.816   2.096   6.526 -0.6112  0.2825  1.0230
15094SOL    HW246064   6.937   2.186   6.510 -0.2989 -0.3914 -0.5579
15095SOL     OW46065   6.735   0.805   1.627 -0.3243  0.3927  0.6570
15095SOL    HW146066   6.719   0.737   1.693  1.3751 -2.5105 -1.6776
15095SOL    HW246067   6.667   0.790   1.561  0.5355  0.3974 -0.2485
15096SOL     OW46068   0.265   4.717   1.023  0.1353 -0.0457  0.3860
15096SOL    HW146069   0.316   4.796   1.008  0.2708 -0.3074 -0.6909
15096SOL    HW246070   0.289   4.688   1.111 -1.1209  1.9509  1.4655
15097SOL     OW46071   6.931   3.378   0.790  0.2611  0.4215  0.1005
15097SOL    HW146072   7.024   3.367   0.811  0.3956  1.8176  0.3496
15097SOL    HW246073   6.905   3.457   0.838 -0.0194  2.4089 -3.0372
15098SOL     OW46074   1.581   3.328   4.408 -0.2450 -0.5499 -0.1116
15098SOL    HW146075   1.575   3.235   4.385  0.6863 -0.1488 -2.2003
15098SOL    HW246076   1.638   3.331   4.484  2.3253 -1.5216 -1.8758
15099SOL     OW46077   0.073   7.910   5.570 -0.4724 -0.1287 -0.0253
15099SOL    HW146078   0.086   7.895   5.664  2.5230 -1.0499 -0.4574
15099SOL    HW246079   0.082   7.823   5.531  1.2331  0.5817 -1.3482
15100SOL     OW46080   7.967   3.863   1.194  0.2099  0.4261  0.3336
15100SOL    HW146081   8.001   3.870   1.284 -1.2722 -0.6491  1.0338
15100SOL    HW246082   7.971   3.952   1.160 -0.0459  1.0340  1.8029
15101SOL     OW46083   2.779   6.663   0.386 -0.0470 -0.2484  0.6018
15101SOL    HW146084   2.872   6.667   0.407  0.0679 -1.6271  0.4933
15101SOL    HW246085   2.776   6.622   0.299 -0.7899 -2.0261  1.4141
15102SOL     OW46086   2.253   8.130   6.754 -0.0298 -0.3378 -0.4804
15102SOL    HW146087   2.167   8.155   6.719 -0.5907 -0.2535  0.9182
15102SOL    HW246088   2.294   8.213   6.778  0.5030 -0.3712 -1.2089
15103SOL     OW46089   1.915   1.949   4.616  0.0892  0.1364 -0.6878
15103SOL    HW146090   1.856   1.917   4.685 -0.3479  1.9311 -0.1843
15103SOL    HW246091   1.901   2.043   4.614  1.1340  0.2944 -2.3000
15104SOL     OW46092   6.984   5.019   6.417  0.7224  0.1139  0.4756
15104SOL    HW146093   6.984   4.956   6.345  0.4387  1.3949 -0.7063
15104SOL    HW246094   6.891   5.039   6.431  0.8692  1.2759 -0.1158
15105SOL     OW46095   8.174   4.624   6.442  0.6385  0.1831  0.2377
15105SOL    HW146096   8.260   4.615   6.401  0.3082  0.5650 -0.5564
15105SOL    HW246097   8.150   4.716   6.427  0.1359  0.1089  0.5522
15106SOL     OW46098   5.774   3.514   2.318 -0.9299  0.2860 -1.1387
15106SOL    HW146099   5.783   3.437   2.261  1.1522  0.3434 -0.9770
15106SOL    HW246100   5.814   3.487   2.401 -0.5263  1.4036 -0.9555
15107SOL     OW46101   0.368   6.348   8.249  0.5875  0.1863 -0.5731
15107SOL    HW146102   0.309   6.300   8.191  0.0938  1.7200 -1.3819
15107SOL    HW246103   0.310   6.393   8.311  0.9882  0.4758 -0.4040
15108SOL     OW46104   6.726   1.720   6.380  0.3554  0.3361  0.1233
15108SOL    HW146105   6.689   1.808   6.367 -0.8249 -0.1274  0.1500
15108SOL    HW246106   6.739   1.687   6.291  0.0475  0.2493  0.1078
15109SOL     OW46107   8.272   7.488   7.111  0.4799  0.1234 -0.1934
15109SOL    HW146108   8.261   7.514   7.020  2.1339  0.9139 -0.2040
15109SOL    HW246109   8.290   7.394   7.106 -1.1970 -0.2167 -0.5039
15110SOL     OW46110   2.729   2.412   6.943 -0.1805  0.0546  0.0518
15110SOL    HW146111   2.769   2.337   6.988  0.2177  0.9792  1.2676
15110SOL    HW246112   2.684   2.461   7.013  0.1619  1.3376 -0.6067
15111SOL     OW46113   1.018   0.082   8.004  0.4962  0.1021  0.3034
15111SOL    HW146114   1.039   0.018   7.937 -2.4406 -1.1082  0.3922
15111SOL    HW246115   1.025   0.035   8.087  1.2038  0.7601  0.6372
15112SOL     OW46116   4.776   5.849   5.353 -0.2936  0.0673  0.0391
15112SOL    HW146117   4.862   5.813   5.375  0.1949  1.3292  0.3224
15112SOL    HW246118   4.753   5.809   5.270  0.0370 -1.1548  0.5120
15113SOL     OW46119   4.142   2.721   1.377 -0.2987 -0.2093  0.2168
15113SOL    HW146120   4.099   2.639   1.352  1.2741 -0.5697 -1.4787
15113SOL    HW246121   4.228   2.693   1.410 -0.5637  0.6358  1.7156
15114SOL     OW46122   2.313   3.151   7.195 -0.0548 -0.1405 -0.5671
15114SOL    HW146123   2.275   3.085   7.137  1.1501 -0.8830 -0.5437
15114SOL    HW246124   2.407   3.144   7.181  0.1541  0.8136  0.2672
15115SOL     OW46125   7.471   0.354   7.870 -0.0610 -0.4359 -0.2574
15115SOL    HW146126   7.507   0.429   7.822  0.4324 -0.2458  0.4009
15115SOL    HW246127   7.483   0.280   7.810 -0.4179 -0.0191 -0.8520
15116SOL     OW46128   7.422   8.113   0.715  0.2068 -0.1761  0.4935
15116SOL    HW146129   7.466   8.146   0.637 -2.2189  0.3086 -0.7548
15116SOL    HW246130   7.389   8.027   0.690  1.1589 -0.9336  1.7018
15117SOL     OW46131   5.042   4.225   8.068 -0.0869  0.2847 -0.5208
15117SOL    HW146132   5.132   4.193   8.069  0.0421  0.5410 -1.9295
15117SOL    HW246133   5.015   4.220   7.976 -0.6023  2.6632 -0.5629
15118SOL     OW46134   6.627   6.825   8.000  0.0099  0.4793 -0.2703
15118SOL    HW146135   6.611   6.787   8.086  5.0593 -0.5255  0.5331
15118SOL    HW246136   6.626   6.750   7.940 -0.8440  0.7941 -0.6675
15119SOL     OW46137   0.103   1.276   4.110 -0.0584 -0.6982  0.1014
15119SOL    HW146138   0.195   1.303   4.110 -0.3111  0.3653 -1.8599
15119SOL    HW246139   0.055   1.353   4.142 -0.3355 -0.8881  0.1446
15120SOL     OW46140   7.081   7.552   7.462  0.0773  0.2618 -0.3702
15120SOL    HW146141   7.103   7.645   7.452  1.3013  0.1036  0.7224
15120SOL    HW246142   7.164   7.507   7.459 -0.5483 -0.8849 -1.3653
15121SOL     OW46143   5.641   5.384   7.950 -0.0902 -0.6465 -0.4112
15121SOL    HW146144   5.693   5.370   7.871  0.1114  1.0633 -0.6218
15121SOL    HW246145   5.692   5.446   8.002 -0.7294 -0.9172  0.5748
15122SOL     OW46146   4.164   4.656   6.161 -0.6258  0.1368 -0.5323
15122SOL    HW146147   4.226   4.588   6.188  0.1850  0.8849 -0.4569
15122SOL    HW246148   4.138   4.698   6.243  0.1057  0.9475 -0.7055
15123SOL     OW46149   7.957   8.205   1.418  0.5553 -0.1439  0.6073
15123SOL    HW146150   7.928   8.283   1.465 -0.7307  0.6774 -1.3899
15123SOL    HW246151   7.903   8.135   1.452 -0.3722  0.4339  0.3586
15124SOL     OW46152   4.894   4.652   5.234 -0.2106  0.1583 -0.0531
15124SOL    HW146153   4.959   4.625   5.299  0.5744 -0.2318 -0.9680
15124SOL    HW246154   4.867   4.571   5.192 -0.7006  0.4062 -0.2206
15125SOL     OW46155   1.935   2.757   1.271 -0.6036  0.2585 -0.5083
15125SOL    HW146156   1.899   2.708   1.345 -0.5042  0.4079 -0.3606
15125SOL    HW246157   1.959   2.842   1.307 -0.1614  0.1844 -0.6156
15126SOL     OW46158   5.668   3.075   6.506  0.2528 -0.4962 -0.3222
15126SOL    HW146159   5.693   3.113   6.422 -0.8851  1.1620  0.0326
15126SOL    HW246160   5.579   3.107   6.521  0.5710 -0.4378  1.6763
15127SOL     OW46161   3.319   5.603   2.409  0.2094 -0.0693 -0.0906
15127SOL    HW146162   3.299   5.616   2.502  1.3004  0.4447  0.0957
15127SOL    HW246163   3.369   5.521   2.406 -1.6222 -1.2244 -0.5186
15128SOL     OW46164   2.769   0.654   2.361  0.1892 -0.0365  0.1244
15128SOL    HW146165   2.829   0.697   2.300 -0.6070  1.4347  0.3314
15128SOL    HW246166   2.820   0.647   2.442 -0.0663  1.7540  0.4830
15129SOL     OW46167   7.772   1.387   0.077 -0.2469  0.7081  0.2555
15129SOL    HW146168   7.711   1.363   0.007 -0.5055  0.3806  0.5940
15129SOL    HW246169   7.793   1.305   0.120  1.3706  0.6188 -0.6002
15130SOL     OW46170   5.228   2.566   2.325 -0.2811 -0.5878  0.0733
15130SOL    HW146171   5.162   2.564   2.255  0.8575  2.9449 -1.3231
15130SOL    HW246172   5.312   2.570   2.279  0.6041  0.0093  1.6598
15131SOL     OW46173   7.256   2.784   4.662 -0.5698  0.4694 -0.2553
15131SOL    HW146174   7.336   2.820   4.624  0.3233  1.0567  2.0132
15131SOL    HW246175   7.226   2.719   4.598  1.6374  0.3368 -1.2471
15132SOL     OW46176   1.607   7.218   0.945  0.1687 -0.3369  0.3666
15132SOL    HW146177   1.553   7.157   0.995  1.0049 -1.9039 -0.5496
15132SOL    HW246178   1.670   7.252   1.009  1.5734 -2.7177  0.3762
15133SOL     OW46179   0.663   8.312   0.268  0.1710  0.5148  0.4412
15133SOL    HW146180   0.662   8.312   0.172  0.4236 -3.1062  0.3195
15133SOL    HW246181   0.579   8.350   0.293  0.3211  2.0251 -1.1448
15134SOL     OW46182   4.650   2.028   2.795  0.3280  0.2444  0.5067
15134SOL    HW146183   4.646   1.965   2.867  0.3142 -0.1031  0.2063
15134SOL    HW246184   4.734   2.010   2.752 -0.1276 -0.2815 -0.2095
15135SOL     OW46185   7.541   8.167   0.457 -0.7066 -0.2953  0.5416
15135SOL    HW146186   7.555   8.089   0.403  0.1832 -0.2693  0.7169
15135SOL    HW246187   7.629   8.193   0.484 -1.0048  0.6800  0.6105
15136SOL     OW46188   4.698   7.114   1.461 -0.7527 -0.1556 -0.0703
15136SOL    HW146189   4.779   7.077   1.497 -0.2415  0.3480 -0.6542
15136SOL    HW246190   4.673   7.054   1.391 -1.2243 -0.6326  0.4998
15137SOL     OW46191   2.244   7.125   2.482 -0.1753  0.3487 -0.5243
15137SOL    HW146192   2.158   7.157   2.457  0.0830 -0.3420 -2.3934
15137SOL    HW246193   2.245   7.033   2.457  0.6572 -0.0057  0.6873
15138SOL     OW46194   7.543   7.981   7.542 -0.3651  0.1412 -0.3706
15138SOL    HW146195   7.467   7.991   7.600 -2.6693 -1.1815 -2.9211
15138SOL    HW246196   7.521   8.032   7.464  2.1633  1.0510 -0.5658
15139SOL     OW46197   5.484   0.940   4.586 -0.3065 -0.6763  0.2664
15139SOL    HW146198   5.434   0.859   4.573 -1.2929 -0.1617  0.6880
15139SOL    HW246199   5.528   0.955   4.503 -2.5415 -0.0485 -0.8918
15140SOL     OW46200   6.568   5.194   1.004  0.2523 -0.3785 -0.2334
15140SOL    HW146201   6.604   5.125   1.060  0.2457 -1.5390 -1.5962
15140SOL    HW246202   6.510   5.148   0.944  0.7274  0.7243 -1.5969
15141SOL     OW46203   0.759   7.053   2.697  0.4635  0.0819 -0.5314
15141SOL    HW146204   0.854   7.057   2.684  0.4318  1.1286 -0.4586
15141SOL    HW246205   0.723   7.116   2.635 -0.2375 -0.7008 -0.9484
15142SOL     OW46206   7.003   1.388   7.073  0.5885  0.1151  0.1305
15142SOL    HW146207   7.067   1.323   7.044  1.0064 -0.1749  1.6490
15142SOL    HW246208   6.947   1.342   7.135 -0.8385  0.4965 -0.8154
15143SOL     OW46209   7.095   0.766   4.754  0.4263 -0.3463  0.1303
15143SOL    HW146210   7.176   0.808   4.783  0.3846  1.8944 -2.5335
15143SOL    HW246211   7.025   0.820   4.790  0.1932 -0.8991  0.5103
15144SOL     OW46212   5.024   3.414   4.063  0.0950 -0.3337 -0.2864
15144SOL    HW146213   4.973   3.377   4.135  1.6751 -2.0174  0.0407
15144SOL    HW246214   5.097   3.459   4.105  1.4005 -1.8961 -0.7682
15145SOL     OW46215   5.143   3.740   0.749  0.0584  0.0662 -0.1520
15145SOL    HW146216   5.136   3.696   0.664  0.2605  1.0123 -0.6647
15145SOL    HW246217   5.085   3.815   0.743  0.1615  0.2077  0.5060
15146SOL     OW46218   1.241   7.526   7.889  0.2288  1.2122  0.2088
15146SOL    HW146219   1.214   7.462   7.824  0.9117  1.9270 -0.8143
15146SOL    HW246220   1.163   7.577   7.907 -0.6118 -0.5318  1.8375
15147SOL     OW46221   7.789   4.557   3.870  0.0128 -0.5781 -0.8853
15147SOL    HW146222   7.822   4.512   3.792  0.4543 -2.7893  0.4814
15147SOL    HW246223   7.758   4.486   3.927 -2.9601  1.1002 -0.1930
15148SOL     OW46224   7.139   7.979   7.899  0.0945 -0.1116  0.2397
15148SOL    HW146225   7.077   8.026   7.843 -0.5440  1.1856  1.9517
15148SOL    HW246226   7.098   7.893   7.913 -0.7470  0.2967  0.3508
15149SOL     OW46227   5.541   8.273   6.731 -0.1145  0.1144  0.0783
15149SOL    HW146228   5.513   8.187   6.700  0.4364  0.1148 -0.4455
15149SOL    HW246229   5.635   8.264   6.744  0.4310  1.2910 -2.3593
15150SOL     OW46230   3.281   4.814   4.344 -0.1981 -0.4980 -0.2031
15150SOL    HW146231   3.277   4.910   4.353 -2.1956 -0.5991  0.4625
15150SOL    HW246232   3.257   4.798   4.252 -1.2235 -0.3954  0.0325
15151SOL     OW46233   5.376   5.166   6.608 -0.2734 -0.2568  0.4044
15151SOL    HW146234   5.333   5.082   6.620 -2.6961  1.1209  2.1093
15151SOL    HW246235   5.354   5.192   6.518 -2.4760  0.0386  0.9671
15152SOL     OW46236   4.369   0.936   2.884 -0.1648  0.0236  0.1804
15152SOL    HW146237   4.398   1.014   2.932 -0.7646  0.5345 -0.2611
15152SOL    HW246238   4.364   0.867   2.950 -0.3872  0.5592  0.7310
15153SOL     OW46239   8.148   1.631   0.935 -0.4031  0.7779  0.3331
15153SOL    HW146240   8.141   1.725   0.951  0.6221  0.7848  0.8163
15153SOL    HW246241   8.058   1.601   0.933 -0.7234  1.4962  1.9288
15154SOL     OW46242   0.671   3.136   4.013 -0.2943  0.0168  0.6451
15154SOL    HW146243   0.647   3.080   3.940 -0.4056  0.0631  0.6451
15154SOL    HW246244   0.739   3.194   3.979  0.4401 -0.6863  0.8838
15155SOL     OW46245   8.256   6.367   3.646 -0.0790  0.0369  0.0426
15155SOL    HW146246   8.235   6.460   3.637 -0.4353 -0.1124 -0.7692
15155SOL    HW246247   8.243   6.331   3.559  2.6774 -0.2675 -0.3554
15156SOL     OW46248   5.962   3.047   4.542  0.2255  0.4627  0.0579
15156SOL    HW146249   5.976   3.032   4.448 -0.6094  0.9885 -0.1666
15156SOL    HW246250   5.999   2.970   4.585  2.3713  1.0892 -0.5593
15157SOL     OW46251   2.801   1.959   2.644  0.2978 -0.3666 -0.4893
15157SOL    HW146252   2.818   2.016   2.569  1.3238 -0.8912 -0.6639
15157SOL    HW246253   2.864   1.987   2.711  0.8756 -1.3401 -0.6083
15158SOL     OW46254   6.187   7.138   3.538 -0.0296 -0.3885  0.0254
15158SOL    HW146255   6.253   7.111   3.601  1.5540 -1.2346 -1.8785
15158SOL    HW246256   6.142   7.057   3.513 -0.4413 -0.1120 -0.1473
15159SOL     OW46257   6.335   2.623   5.366 -0.1091 -0.5029 -0.1191
15159SOL    HW146258   6.284   2.542   5.358 -0.4159 -0.4741  1.2749
15159SOL    HW246259   6.392   2.622   5.290  0.1668 -2.2360  0.0484
15160SOL     OW46260   7.822   7.354   5.247  0.5891 -0.0408  0.2637
15160SOL    HW146261   7.749   7.316   5.298  0.6278 -1.1321 -0.4569
15160SOL    HW246262   7.877   7.396   5.313 -0.4969  0.4888  0.8666
15161SOL     OW46263   5.991   5.207   3.155  0.1735  0.4225  0.3196
15161SOL    HW146264   5.936   5.132   3.174  0.4683  0.1669  0.1684
15161SOL    HW246265   5.942   5.282   3.189  0.2653  0.0736  1.2496
15162SOL     OW46266   4.928   3.240   6.176 -0.4761  0.4020 -0.1409
15162SOL    HW146267   4.853   3.243   6.117  1.6246  0.1127 -3.0113
15162SOL    HW246268   4.936   3.329   6.211 -1.6509  0.6215 -0.4026
15163SOL     OW46269   5.328   1.881   3.548 -0.4304  0.0963 -0.2239
15163SOL    HW146270   5.386   1.846   3.480  0.1113  0.8260 -0.1493
15163SOL    HW246271   5.329   1.815   3.617 -0.5282 -0.3840 -0.6728
15164SOL     OW46272   2.570   6.981   7.214 -0.8128 -0.2519 -0.0582
15164SOL    HW146273   2.624   6.978   7.293 -0.9144  0.8911  0.0730
15164SOL    HW246274   2.592   6.901   7.166 -0.3067 -0.6603  0.8379
15165SOL     OW46275   3.275   4.900   6.096 -0.1533  0.0194  0.1902
15165SOL    HW146276   3.300   4.825   6.150 -1.5877  0.3920  1.4617
15165SOL    HW246277   3.188   4.924   6.128 -1.1319  0.2258 -2.3903
15166SOL     OW46278   3.432   8.095   4.820 -0.2037  0.5380  0.5095
15166SOL    HW146279   3.352   8.059   4.782 -0.3381 -0.3070  1.5312
15166SOL    HW246280   3.403   8.142   4.898  0.4366 -1.4780  2.0429
15167SOL     OW46281   6.156   5.685   2.373 -0.3236  0.0746  0.4989
15167SOL    HW146282   6.116   5.658   2.456  1.9569 -2.5155  0.8940
15167SOL    HW246283   6.127   5.620   2.310  2.2708 -1.3305  0.5980
15168SOL     OW46284   2.462   3.514   6.526 -0.0766 -0.7444  0.4754
15168SOL    HW146285   2.477   3.501   6.620 -2.0067  0.6039  1.0464
15168SOL    HW246286   2.515   3.590   6.504 -1.4223  0.4465  1.1164
15169SOL     OW46287   8.007   1.152   0.038 -0.2720 -0.4925 -0.3486
15169SOL    HW146288   8.051   1.237   0.038 -0.5562 -0.3314  0.5638
15169SOL    HW246289   8.074   1.091   0.007  0.3174 -0.1101  0.1355
15170SOL     OW46290   2.820   4.311   2.560 -0.1252 -0.2989 -0.5063
15170SOL    HW146291   2.882   4.291   2.489 -1.0893 -0.5365 -1.2949
15170SOL    HW246292   2.866   4.375   2.614  0.6901 -0.2336 -1.2549
15171SOL     OW46293   4.018   0.019   6.535 -0.1700 -0.4107 -0.4412
15171SOL    HW146294   3.968   0.089   6.577  1.4216  0.7721 -0.4178
15171SOL    HW246295   3.995   0.026   6.442 -0.4438 -0.2192 -0.3600
15172SOL     OW46296   5.948   1.573   7.395 -0.0091  0.3335  0.2303
15172SOL    HW146297   6.043   1.575   7.390  0.1386  2.0370  2.1777
15172SOL    HW246298   5.927   1.485   7.428  0.8752 -0.0487 -0.2003
15173SOL     OW46299   7.361   5.878   1.690  0.0326 -0.1413  0.5904
15173SOL    HW146300   7.378   5.808   1.627  0.4091 -0.3875  0.9527
15173SOL    HW246301   7.276   5.914   1.665  1.0286  1.0781 -1.2432
15174SOL     OW46302   6.289   4.711   3.597 -0.1465 -0.0335  0.2724
15174SOL    HW146303   6.290   4.635   3.655 -2.8960 -0.1657  0.2597
15174SOL    HW246304   6.286   4.674   3.508 -1.5238  0.0474  0.2676
15175SOL     OW46305   1.996   2.515   2.420  0.0398  0.0019 -0.4859
15175SOL    HW146306   2.028   2.525   2.330 -0.1398  0.3172 -0.5176
15175SOL    HW246307   2.072   2.536   2.475  0.0363  0.2102 -0.5616
15176SOL     OW46308   0.272   5.605   8.177  0.3373 -0.0443 -0.2944
15176SOL    HW146309   0.293   5.681   8.122 -0.0631  1.0496  1.0008
15176SOL    HW246310   0.348   5.594   8.233  1.2779 -1.9377 -1.8327
15177SOL     OW46311   4.626   2.308   2.835  0.0166 -0.0714 -0.3306
15177SOL    HW146312   4.640   2.214   2.824 -0.4301 -0.4163  1.6577
15177SOL    HW246313   4.677   2.349   2.765  2.3007 -1.7002  0.2938
15178SOL     OW46314   7.422   4.622   7.271 -0.0956 -0.2145 -0.1379
15178SOL    HW146315   7.330   4.637   7.291  0.3206  0.8997  1.0104
15178SOL    HW246316   7.457   4.576   7.347  0.6690  0.8514  0.1857
15179SOL     OW46317   5.229   7.431   6.340  0.1911 -0.2084  0.2251
15179SOL    HW146318   5.189   7.490   6.275 -0.5239 -1.7686 -0.8272
15179SOL    HW246319   5.197   7.344   6.315  2.4782 -1.2643  0.7301
15180SOL     OW46320   7.677   6.194   3.919 -0.1333 -0.1314 -0.2770
15180SOL    HW146321   7.607   6.131   3.905  1.7637 -2.0417 -1.9063
15180SOL    HW246322   7.632   6.278   3.929 -2.6610 -1.3893 -0.2911
15181SOL     OW46323   3.436   1.612   7.903  0.0741  0.6556 -0.3592
15181SOL    HW146324   3.346   1.600   7.874 -0.4454  0.5207  1.2131
15181SOL    HW246325   3.470   1.523   7.913 -1.4502  0.3036  4.2784
15182SOL     OW46326   1.169   6.892   4.034 -0.2247 -0.3759 -0.1849
15182SOL    HW146327   1.075   6.908   4.025 -0.1165  0.3751 -0.0474
15182SOL    HW246328   1.179   6.859   4.123 -0.1506  1.2948  0.4576
15183SOL     OW46329   3.759   0.771   7.453  0.7094 -0.4509  0.0838
15183SOL    HW146330   3.787   0.861   7.436 -2.3701  0.8161  0.9989
15183SOL    HW246331   3.777   0.758   7.546 -0.1752 -0.1960  0.3033
15184SOL     OW46332   7.968   7.027   1.136 -0.2670 -0.1140  0.0637
15184SOL    HW146333   8.038   7.046   1.074 -1.6025 -2.3800 -2.3121
15184SOL    HW246334   7.890   7.067   1.098 -0.9114 -0.5431  0.8911
15185SOL     OW46335   0.376   0.014   3.012  0.5621 -0.2815  0.1903
15185SOL    HW146336   0.389  -0.047   3.086 -2.4970 -1.4075 -0.0706
15185SOL    HW246337   0.300   0.065   3.037  1.1443  1.2494 -1.0526
15186SOL     OW46338   7.664   6.662   3.671  0.6844 -0.0528  0.5337
15186SOL    HW146339   7.711   6.585   3.638 -0.4957  0.0543 -1.5623
15186SOL    HW246340   7.723   6.735   3.654  0.5515 -0.1422 -0.3635
15187SOL     OW46341   6.394   4.439   0.050 -0.4625 -0.0665  0.0882
15187SOL    HW146342   6.358   4.504   0.110 -1.4576 -0.0495 -0.4909
15187SOL    HW246343   6.395   4.357   0.100  2.0294  0.6153  1.2442
15188SOL     OW46344   5.226   3.505   1.584  0.1932 -0.2407 -0.0552
15188SOL    HW146345   5.233   3.534   1.675  0.7380  0.3106 -0.2660
15188SOL    HW246346   5.203   3.412   1.590 -0.7604  0.0216  0.6364
15189SOL     OW46347   4.259   3.571   4.022  0.0723 -0.1742 -0.2523
15189SOL    HW146348   4.213   3.494   4.055 -1.5329  0.1531 -1.5992
15189SOL    HW246349   4.339   3.536   3.981 -0.4191 -1.0832 -0.4598
15190SOL     OW46350   5.891   1.343   3.918  0.1951 -0.5514 -0.0278
15190SOL    HW146351   5.870   1.353   4.011  1.1760 -0.6467  0.2095
15190SOL    HW246352   5.806   1.327   3.877 -0.2498 -0.5426  0.8509
15191SOL     OW46353   7.580   0.353   4.445  0.2299 -0.2603  0.2417
15191SOL    HW146354   7.535   0.298   4.381 -0.4922 -0.3574  0.8224
15191SOL    HW246355   7.514   0.414   4.476 -0.0050 -1.4459  2.2922
15192SOL     OW46356   4.270   6.441   1.146 -0.3405  0.2545 -0.3472
15192SOL    HW146357   4.201   6.505   1.163 -0.5452  0.2505 -1.1155
15192SOL    HW246358   4.223   6.360   1.126 -0.1183 -0.9422  3.2053
15193SOL     OW46359   2.505   3.193   3.278  0.6459  0.4947  0.3095
15193SOL    HW146360   2.547   3.186   3.193 -0.2888 -0.1489 -0.1112
15193SOL    HW246361   2.427   3.246   3.262  1.0102  1.2561  0.9794
15194SOL     OW46362   2.768   6.543   7.042  0.1648 -0.3385  0.1687
15194SOL    HW146363   2.797   6.538   7.133  0.0403 -0.5697  0.1968
15194SOL    HW246364   2.740   6.634   7.031 -0.8547 -0.5754  0.6896
15195SOL     OW46365   6.224   0.534   0.623 -0.2881  0.0666 -0.8384
15195SOL    HW146366   6.216   0.489   0.539 -1.8463 -0.3059 -0.5194
15195SOL    HW246367   6.197   0.624   0.604  1.5310  0.5730 -1.1883
15196SOL     OW46368   7.867   7.987   5.838  0.1181 -0.3556  0.3567
15196SOL    HW146369   7.954   7.961   5.809 -0.0737 -0.8693  0.2250
15196SOL    HW246370   7.821   7.905   5.853 -0.8063 -0.1241 -0.9699
15197SOL     OW46371   7.338   5.199   0.519  0.1113  0.2980 -0.0105
15197SOL    HW146372   7.318   5.137   0.449 -0.2936  1.8972 -1.3727
15197SOL    HW246373   7.432   5.189   0.533  0.0028 -0.8093 -0.0099
15198SOL     OW46374   6.041   2.773   3.876 -0.5000 -0.2128 -0.0271
15198SOL    HW146375   6.044   2.843   3.810 -0.9504 -0.1106  0.0559
15198SOL    HW246376   6.103   2.708   3.844 -0.0549  0.2360 -0.0959
15199SOL     OW46377   8.232   6.333   1.932 -0.1383  0.3419  0.3839
15199SOL    HW146378   8.167   6.403   1.930 -0.8198 -0.2329  1.2087
15199SOL    HW246379   8.232   6.297   1.844 -0.6889  0.5769  0.2847
15200SOL     OW46380   7.312   2.237   1.896 -0.3957  0.1616  0.3099
15200SOL    HW146381   7.358   2.274   1.972 -2.1219  1.0846  0.9666
15200SOL    HW246382   7.254   2.307   1.867  0.9380  0.2183 -2.5900
15201SOL     OW46383   6.975   3.558   0.999 -0.0957 -0.7233  0.6862
15201SOL    HW146384   7.069   3.543   1.009 -0.0954 -1.0013  0.2725
15201SOL    HW246385   6.969   3.643   0.955 -0.0383 -0.7272  0.6703
15202SOL     OW46386   3.713   3.801   6.120  1.0916  0.3313 -0.1851
15202SOL    HW146387   3.748   3.854   6.048  0.5931 -0.1846 -0.8251
15202SOL    HW246388   3.623   3.782   6.094  0.1689  1.9279  1.5859
15203SOL     OW46389   1.624   1.562   6.267 -0.1086 -0.0342  0.3121
15203SOL    HW146390   1.613   1.535   6.358 -0.0624 -1.8423 -0.1804
15203SOL    HW246391   1.534   1.576   6.236 -0.1149  0.7760  0.6752
15204SOL     OW46392   5.551   4.302   6.044 -0.2449  0.2326  0.4708
15204SOL    HW146393   5.641   4.271   6.031  0.0436  0.8002  1.0429
15204SOL    HW246394   5.531   4.277   6.134  0.0732  1.8509  1.0327
15205SOL     OW46395   6.186   6.547   7.524 -0.1787  0.1703 -0.2455
15205SOL    HW146396   6.167   6.542   7.617 -1.8021 -0.2022 -0.5672
15205SOL    HW246397   6.172   6.458   7.491 -2.3996  0.8428 -1.3027
15206SOL     OW46398   6.727   1.635   3.152 -0.0230 -0.4308 -0.0205
15206SOL    HW146399   6.801   1.687   3.121 -0.1207  0.2805  0.8828
15206SOL    HW246400   6.767   1.567   3.207 -0.0380 -0.0321  0.4867
15207SOL     OW46401   1.667   7.473   7.365 -0.0321  0.6431  0.5292
15207SOL    HW146402   1.574   7.496   7.371  0.0607  1.1733  0.0402
15207SOL    HW246403   1.689   7.486   7.273  0.1878 -0.8545  0.3465
15208SOL     OW46404   0.044   4.180   5.922  0.3667 -0.1818 -0.7223
15208SOL    HW146405   0.040   4.185   5.827  0.7039  0.4472 -0.7070
15208SOL    HW246406   0.127   4.137   5.941 -0.4458 -1.8587 -0.7373
15209SOL     OW46407   6.878   5.443   7.942  0.4360 -0.0896  0.2134
15209SOL    HW146408   6.863   5.353   7.972  0.8139 -0.3123 -0.2515
15209SOL    HW246409   6.937   5.433   7.868  2.8901  0.7340  1.9351
15210SOL     OW46410   0.621   4.471   3.403 -0.1601 -0.6623  0.0294
15210SOL    HW146411   0.706   4.437   3.430 -0.6699 -1.0635  1.2345
15210SOL    HW246412   0.579   4.399   3.356 -0.6776 -1.2554  1.3471
15211SOL     OW46413   5.671   3.302   7.274 -0.6813  0.4865  0.4517
15211SOL    HW146414   5.717   3.227   7.236 -1.9984  0.1148 -0.4714
15211SOL    HW246415   5.607   3.264   7.333 -1.1198  0.9012  0.2494
15212SOL     OW46416   3.353   1.402   4.152  0.3054  0.2204  0.3106
15212SOL    HW146417   3.435   1.384   4.197  0.2887 -1.6784 -0.2954
15212SOL    HW246418   3.364   1.362   4.065 -1.0742  0.3616  0.0376
15213SOL     OW46419   0.895   1.567   3.630 -0.3266 -0.4972  0.1015
15213SOL    HW146420   0.911   1.495   3.691 -0.2468 -0.4737  0.1082
15213SOL    HW246421   0.982   1.593   3.601 -0.4131 -1.2420 -0.8670
15214SOL     OW46422   3.535   7.180   1.833  0.5498 -0.6439 -0.1717
15214SOL    HW146423   3.550   7.213   1.921  0.4419 -0.9736 -0.0293
15214SOL    HW246424   3.499   7.092   1.846 -2.1800  0.3212 -0.4623
15215SOL     OW46425   7.969   7.299   6.242  0.1498 -0.1425  0.4241
15215SOL    HW146426   7.877   7.282   6.223  0.2599 -0.0988 -0.1821
15215SOL    HW246427   7.979   7.279   6.335 -0.3209 -0.7948  0.3391
15216SOL     OW46428   1.623   1.813   4.112 -0.2419 -0.3072  0.1054
15216SOL    HW146429   1.649   1.828   4.203  0.4158  1.8100 -0.3786
15216SOL    HW246430   1.693   1.852   4.060 -0.7836 -1.1735 -1.3207
15217SOL     OW46431   3.844   7.098   1.681 -0.0860  0.5330  0.7737
15217SOL    HW146432   3.778   7.112   1.612  0.7078  0.0151 -0.1139
15217SOL    HW246433   3.858   7.184   1.719 -0.0997  0.9473 -0.1289
15218SOL     OW46434   2.386   3.775   1.160 -0.3891 -0.0059  0.3436
15218SOL    HW146435   2.420   3.754   1.073 -0.7999 -1.3450  0.4853
15218SOL    HW246436   2.350   3.864   1.151 -0.3417 -0.0878 -0.8227
15219SOL     OW46437   7.326   2.991   1.579 -0.1127  0.1701  0.1383
15219SOL    HW146438   7.400   3.035   1.620  0.4495 -0.5430 -0.1038
15219SOL    HW246439   7.249   3.040   1.610  0.4028  0.4867  0.9399
15220SOL     OW46440   4.833   5.148   1.743 -0.3477  0.2790 -0.3313
15220SOL    HW146441   4.769   5.086   1.709  0.9253 -1.0577 -0.4082
15220SOL    HW246442   4.840   5.126   1.836 -0.7647  1.1300 -0.0935
15221SOL     OW46443   4.269   1.894   6.186 -0.8713 -0.5152  0.3023
15221SOL    HW146444   4.292   1.875   6.277  1.7074  0.8020  0.0209
15221SOL    HW246445   4.326   1.836   6.135  0.9362  1.7292 -0.4237
15222SOL     OW46446   2.515   4.592   4.722  0.4388  0.1804  0.2496
15222SOL    HW146447   2.523   4.510   4.771  0.8756 -0.0489 -0.2035
15222SOL    HW246448   2.544   4.659   4.784 -1.7387  0.2507  1.3085
15223SOL     OW46449   6.142   6.176   3.119 -0.0505 -0.2216  0.5061
15223SOL    HW146450   6.129   6.225   3.200  0.9678  0.2760  0.3746
15223SOL    HW246451   6.059   6.187   3.072 -0.8832 -1.0018  1.7079
15224SOL     OW46452   3.952   4.730   7.096 -0.1097  0.1321  0.3704
15224SOL    HW146453   3.967   4.735   7.191 -1.6975 -2.2239  0.8474
15224SOL    HW246454   3.984   4.814   7.062 -1.3031  1.9340  3.2577
15225SOL     OW46455   4.899   0.106   7.803  0.1503  0.1763 -0.7583
15225SOL    HW146456   4.972   0.090   7.862  0.8215  1.8221 -1.0937
15225SOL    HW246457   4.821   0.081   7.853  0.7589  0.7724  0.5256
15226SOL     OW46458   1.558   2.604   1.338 -0.5614  0.5662  0.8118
15226SOL    HW146459   1.526   2.574   1.423  1.8867  0.5459  1.8179
15226SOL    HW246460   1.605   2.685   1.357  1.6891 -0.4161 -0.1096
15227SOL     OW46461   6.385   3.532   3.939  0.0653 -0.0650 -0.2671
15227SOL    HW146462   6.294   3.560   3.928 -0.3554 -0.9098  0.9095
15227SOL    HW246463   6.389   3.498   4.028  1.3279 -0.8076 -0.5867
15228SOL     OW46464   5.318   3.261   2.086  0.5464 -0.0525 -0.1209
15228SOL    HW146465   5.256   3.321   2.126 -1.6303 -2.3386  0.2297
15228SOL    HW246466   5.337   3.299   2.001  0.6574  1.9699  0.7639
15229SOL     OW46467   0.561   7.372   1.300 -0.9108 -0.3652  0.8424
15229SOL    HW146468   0.486   7.385   1.359 -0.9490  0.8531  0.5562
15229SOL    HW246469   0.638   7.383   1.356 -0.9377  1.4217  0.6003
15230SOL     OW46470   6.117   3.598   3.960  0.3120 -0.5914  0.2714
15230SOL    HW146471   6.064   3.552   3.896 -0.1573  0.5439 -0.1910
15230SOL    HW246472   6.076   3.577   4.045 -0.6699 -0.0256 -0.0461
15231SOL     OW46473   4.417   1.826   2.281 -0.1126 -0.0272  0.2432
15231SOL    HW146474   4.398   1.908   2.236  1.1789  0.1183 -0.0825
15231SOL    HW246475   4.338   1.774   2.271 -1.1993  1.4096  1.0007
15232SOL     OW46476   2.918   1.323   3.216 -0.1085  0.5147 -0.7217
15232SOL    HW146477   2.967   1.244   3.190 -0.7460  0.0765 -0.6237
15232SOL    HW246478   2.865   1.294   3.290 -1.5421  0.6101 -1.6744
15233SOL     OW46479   7.827   0.287   1.540  0.0034 -0.0233 -0.5343
15233SOL    HW146480   7.778   0.364   1.569 -0.6323 -0.3857 -0.6325
15233SOL    HW246481   7.907   0.288   1.593 -0.3902  0.2309  0.0692
15234SOL     OW46482   0.537   4.415   6.666 -0.0438  0.2096 -0.1150
15234SOL    HW146483   0.511   4.360   6.740  0.1551 -0.1391 -0.2980
15234SOL    HW246484   0.514   4.504   6.693  0.2253  0.1170  0.4618
15235SOL     OW46485   7.882   5.951   2.852 -0.2071  0.1650 -0.3174
15235SOL    HW146486   7.969   5.916   2.836 -0.5752  0.2215 -2.9341
15235SOL    HW246487   7.827   5.911   2.784 -1.8909  1.2564  0.3286
15236SOL     OW46488   4.490   4.235   8.289  0.5169 -0.1776  0.7471
15236SOL    HW146489   4.418   4.218   8.351 -0.4732 -1.1973 -0.6249
15236SOL    HW246490   4.529   4.149   8.274 -0.8750 -0.4272 -1.9261
15237SOL     OW46491   8.174   5.331   0.463  0.0725  0.2705  0.2443
15237SOL    HW146492   8.136   5.247   0.438  1.8870 -0.3915 -0.4269
15237SOL    HW246493   8.103   5.394   0.448 -1.0392 -1.0066 -0.0939
15238SOL     OW46494   5.302   1.119   8.000 -0.3706 -0.3072  0.5572
15238SOL    HW146495   5.259   1.099   7.917 -0.3316  0.5013  0.3300
15238SOL    HW246496   5.229   1.140   8.060 -0.3231  0.9221  0.2115
15239SOL     OW46497   1.067   2.023   0.613  0.3650 -0.7295  0.1364
15239SOL    HW146498   1.010   2.096   0.589  1.3499 -0.0508 -0.2085
15239SOL    HW246499   1.144   2.033   0.558  0.8368 -1.6180  0.6037
15240SOL     OW46500   3.718   5.436   7.891 -0.1262 -0.1643  0.3014
15240SOL    HW146501   3.764   5.510   7.929  0.1220  0.3087 -0.9018
15240SOL    HW246502   3.764   5.417   7.809 -1.0039 -0.7814 -0.0733
15241SOL     OW46503   7.299   5.051   7.734 -0.1921 -0.6469  0.4321
15241SOL    HW146504   7.369   5.096   7.686 -1.0694 -1.8789 -2.2522
15241SOL    HW246505   7.331   4.961   7.746 -0.3156 -0.5611  1.4478
15242SOL     OW46506   3.812   0.072   4.271 -0.0912 -0.5149 -0.6596
15242SOL    HW146507   3.725   0.080   4.234 -0.6905  0.9571  0.9311
15242SOL    HW246508   3.819   0.145   4.332  0.8998 -2.5621  1.8899
15243SOL     OW46509   4.821   4.206   0.763 -0.6195  0.2240 -0.1259
15243SOL    HW146510   4.737   4.251   0.772 -1.4654 -1.0820 -1.2837
15243SOL    HW246511   4.839   4.171   0.850  0.0415  2.6788  0.8094
15244SOL     OW46512   1.152   6.353   3.625  0.6375 -0.2021 -0.3031
15244SOL    HW146513   1.150   6.376   3.718 -0.8561  0.6343 -0.5120
15244SOL    HW246514   1.153   6.438   3.580 -1.4348 -0.5315 -1.0559
15245SOL     OW46515   5.461   6.162   6.403 -0.0803  0.6929  0.0163
15245SOL    HW146516   5.451   6.088   6.463  0.7880  0.6585  0.1350
15245SOL    HW246517   5.475   6.237   6.461 -2.4990  1.2688 -0.0272
15246SOL     OW46518   6.805   0.888   5.983 -0.1275 -0.2218 -0.0162
15246SOL    HW146519   6.840   0.943   6.053  0.2163 -0.6412  0.1401
15246SOL    HW246520   6.741   0.944   5.939  0.6339  0.5070 -0.2171
15247SOL     OW46521   0.519   3.862   7.089 -0.7622  0.1485  0.1599
15247SOL    HW146522   0.550   3.910   7.013  3.1915 -1.8739  0.2313
15247SOL    HW246523   0.560   3.906   7.164  1.7863 -2.2862  0.3356
15248SOL     OW46524   3.551   0.845   4.077  0.0252  0.1097 -0.2426
15248SOL    HW146525   3.471   0.801   4.049 -0.2849  0.5618 -0.0866
15248SOL    HW246526   3.566   0.814   4.166  0.5769 -0.7303 -0.6217
15249SOL     OW46527   1.604   6.406   0.693 -0.4175  0.0483  0.1235
15249SOL    HW146528   1.668   6.353   0.740 -0.7973  0.0948  0.6967
15249SOL    HW246529   1.559   6.344   0.636  1.2785  0.2764 -1.5859
15250SOL     OW46530   7.377   7.872   0.608  0.1786  1.2208  0.1455
15250SOL    HW146531   7.406   7.785   0.581  0.6522  0.6836  2.2097
15250SOL    HW246532   7.284   7.862   0.627  0.3791  0.9686  1.0418
15251SOL     OW46533   1.628   6.829   3.590  0.0346  0.3423 -0.3055
15251SOL    HW146534   1.590   6.780   3.517  1.0757  1.6432 -1.7902
15251SOL    HW246535   1.596   6.784   3.668 -2.7974  0.0818 -1.4826
15252SOL     OW46536   5.093   3.434   5.493 -0.4819  0.0775 -0.1205
15252SOL    HW146537   5.132   3.474   5.415 -0.7928 -1.0817 -0.9061
15252SOL    HW246538   5.068   3.508   5.548 -0.7526  0.9555 -1.3723
15253SOL     OW46539   7.015   5.904   6.210  0.2533 -0.2400 -0.1067
15253SOL    HW146540   7.051   5.913   6.122 -0.2919 -1.1356 -0.4372
15253SOL    HW246541   7.060   5.828   6.246 -1.0424 -1.1803 -0.4068
15254SOL     OW46542   1.379   1.112   7.514  0.4767 -0.2142 -0.3716
15254SOL    HW146543   1.410   1.028   7.547  1.0562  0.3502  0.5663
15254SOL    HW246544   1.377   1.101   7.419  0.7561 -1.2117 -0.2734
15255SOL     OW46545   6.446   5.496   0.477  0.0951  0.6035  0.3341
15255SOL    HW146546   6.448   5.581   0.434 -2.9407  0.7633  0.2789
15255SOL    HW246547   6.461   5.433   0.406  0.8272  1.0358  0.0990
15256SOL     OW46548   3.126   6.693   7.149 -0.0641  0.2953  0.4588
15256SOL    HW146549   3.135   6.617   7.092 -2.2019  0.5999 -0.3922
15256SOL    HW246550   3.081   6.759   7.096 -0.7103  1.1591  1.9912
15257SOL     OW46551   3.347   3.018   5.569  0.0060  0.2100 -0.1843
15257SOL    HW146552   3.372   3.050   5.483  2.1330 -1.9324 -0.4529
15257SOL    HW246553   3.387   2.931   5.576 -2.2374 -0.7863  1.9767
15258SOL     OW46554   6.199   4.796   7.416  0.4990  0.1701 -0.0202
15258SOL    HW146555   6.152   4.774   7.336  2.1023 -1.2170 -0.6275
15258SOL    HW246556   6.266   4.859   7.388 -0.5013  1.6020  0.7077
15259SOL     OW46557   0.937   3.441   2.264 -0.0705  0.0498 -0.2082
15259SOL    HW146558   1.004   3.373   2.264  1.7577  1.7728 -0.2378
15259SOL    HW246559   0.943   3.481   2.178  1.7074  2.8093  1.0624
15260SOL     OW46560   8.071   5.692   4.167 -0.1645  0.2306  0.1563
15260SOL    HW146561   8.138   5.624   4.161  0.9466  1.3315 -0.3647
15260SOL    HW246562   8.019   5.683   4.087 -0.2649 -0.2382  0.2721
15261SOL     OW46563   6.612   3.079   3.108  0.3024 -0.0786 -0.4538
15261SOL    HW146564   6.540   3.058   3.166 -0.7643  0.0023 -1.7025
15261SOL    HW246565   6.657   2.996   3.093  1.0978  0.0336  1.0890
15262SOL     OW46566   6.679   0.742   2.283  0.3917  0.0663  0.1294
15262SOL    HW146567   6.716   0.694   2.209  0.6713 -1.8822  1.4679
15262SOL    HW246568   6.587   0.713   2.287 -0.7008  2.8535 -1.5373
15263SOL     OW46569   1.941   2.390   1.275 -0.1496  0.1350 -0.7763
15263SOL    HW146570   1.890   2.337   1.336  0.1797  0.3216 -0.3320
15263SOL    HW246571   1.878   2.418   1.208 -0.9600  1.5293  0.5123
15264SOL     OW46572   2.124   5.404   5.470  0.3174 -0.2035 -0.1292
15264SOL    HW146573   2.171   5.325   5.497  0.0309 -0.1096  0.6766
15264SOL    HW246574   2.138   5.409   5.376  0.2854 -1.2524 -0.2064
15265SOL     OW46575   1.107   8.032   6.904  0.7436 -0.4052 -0.1705
15265SOL    HW146576   1.080   8.056   6.993 -0.4597 -1.7995 -0.1283
15265SOL    HW246577   1.189   8.080   6.891 -0.6734  2.4464  0.4482
15266SOL     OW46578   5.542   5.063   3.709  0.7698 -0.4275  0.0313
15266SOL    HW146579   5.553   5.148   3.752 -1.6339  0.1668 -0.3869
15266SOL    HW246580   5.560   5.081   3.616  1.0849 -0.5619  0.0677
15267SOL     OW46581   3.723   2.480   0.460 -0.1034  0.1577 -0.3288
15267SOL    HW146582   3.748   2.572   0.466 -0.6480  0.2955 -0.1958
15267SOL    HW246583   3.771   2.447   0.384  1.3225  0.1592  0.5335
15268SOL     OW46584   6.928   6.225   7.796 -0.0987  0.1752 -0.0519
15268SOL    HW146585   6.956   6.282   7.724  3.7955  0.4058  1.3641
15268SOL    HW246586   6.889   6.285   7.860 -1.8518  0.2288 -1.1138
15269SOL     OW46587   3.234   7.751   4.605  0.3027 -0.7818 -0.0566
15269SOL    HW146588   3.228   7.704   4.523  0.1342 -1.6087  0.4203
15269SOL    HW246589   3.189   7.695   4.669  1.5544 -0.7877  0.8629
15270SOL     OW46590   2.731   1.316   0.446  0.1334  0.0150 -0.4081
15270SOL    HW146591   2.821   1.300   0.476  0.6352  0.9267 -1.3484
15270SOL    HW246592   2.699   1.230   0.419  1.1878 -0.1412 -1.2454
15271SOL     OW46593   2.532   2.523   1.193  0.1737 -0.2723 -0.2145
15271SOL    HW146594   2.492   2.524   1.106  2.1535 -0.7240 -1.1759
15271SOL    HW246595   2.577   2.607   1.200  0.3145 -0.3820  0.2417
15272SOL     OW46596   5.595   5.897   0.954 -0.5834 -0.2174  0.7966
15272SOL    HW146597   5.605   5.889   1.049 -1.6088  3.5602  1.3746
15272SOL    HW246598   5.636   5.981   0.933  0.9655 -1.6133 -2.4212
15273SOL     OW46599   1.798   6.857   1.961 -0.0102 -0.3523 -0.0636
15273SOL    HW146600   1.757   6.780   1.922 -2.0422  0.1881  0.9056
15273SOL    HW246601   1.878   6.869   1.910 -1.4306 -0.9587 -2.6058
15274SOL     OW46602   8.314   2.062   5.417 -0.2998 -0.2635 -0.1126
15274SOL    HW146603   8.377   2.033   5.352 -0.7280  0.0139 -0.6642
15274SOL    HW246604   8.229   2.044   5.378 -0.6111  2.0630 -0.6914
15275SOL     OW46605   7.706   7.135   2.442  0.3831  0.4581 -0.0528
15275SOL    HW146606   7.745   7.219   2.419  1.1711 -0.3474 -1.8591
15275SOL    HW246607   7.671   7.101   2.359 -0.3047 -0.7923  0.7118
15276SOL     OW46608   0.091   3.915   6.276  0.0312  0.3987  0.3581
15276SOL    HW146609   0.159   3.897   6.211  0.2737  1.2396  0.3729
15276SOL    HW246610   0.035   3.980   6.234 -0.3299  0.2730  0.6443
15277SOL     OW46611   6.603   0.052   7.100 -0.2859 -0.3349 -0.3403
15277SOL    HW146612   6.559  -0.028   7.128 -0.9240 -0.0516 -0.5070
15277SOL    HW246613   6.604   0.107   7.178 -1.0928  0.0311 -0.5796
15278SOL     OW46614   6.984   4.910   5.914 -0.5109  0.0687  0.1114
15278SOL    HW146615   6.922   4.979   5.940 -0.5779  0.5968 -1.3789
15278SOL    HW246616   6.965   4.895   5.822  0.6071 -0.8199  0.0153
15279SOL     OW46617   2.557   2.513   6.737 -0.4189  0.2427  0.1418
15279SOL    HW146618   2.624   2.465   6.786  0.0160  1.2083  0.5036
15279SOL    HW246619   2.519   2.574   6.800 -0.4186  0.9372 -0.5077
15280SOL     OW46620   1.305   6.785   0.322  0.2040 -0.2028 -0.5067
15280SOL    HW146621   1.276   6.827   0.403  0.5501 -0.5192 -0.2146
15280SOL    HW246622   1.396   6.761   0.339  0.8288  1.2521 -1.5930
15281SOL     OW46623   5.886   2.912   2.456  0.0637 -0.1476  0.1314
15281SOL    HW146624   5.818   2.969   2.420  1.6954  1.3318 -0.7809
15281SOL    HW246625   5.930   2.965   2.522 -0.6188 -1.6391  1.8894
15282SOL     OW46626   7.941   6.458   1.868  0.0242  0.2023 -0.1389
15282SOL    HW146627   7.985   6.538   1.897  0.3244 -0.7466  2.1877
15282SOL    HW246628   7.909   6.479   1.780 -0.4106  3.0789  0.6075
15283SOL     OW46629   5.552   6.100   4.184  0.4190 -0.0280  0.1579
15283SOL    HW146630   5.644   6.113   4.209  0.0620  0.2085  1.3884
15283SOL    HW246631   5.514   6.188   4.188  0.0907 -0.1534 -0.1726
15284SOL     OW46632   4.216   0.436   4.741  0.1235 -0.4625 -0.5039
15284SOL    HW146633   4.289   0.385   4.705  0.4800  0.8023 -1.6561
15284SOL    HW246634   4.254   0.482   4.816  0.4047 -0.1557 -0.8306
15285SOL     OW46635   5.619   0.938   4.117  0.4169  0.1353  0.9242
15285SOL    HW146636   5.583   0.849   4.119  0.5252  0.0924  2.7724
15285SOL    HW246637   5.712   0.926   4.103  0.2247  0.0665 -0.4265
15286SOL     OW46638   7.077   1.221   3.935  0.0332 -0.2426  0.0305
15286SOL    HW146639   7.124   1.269   3.867 -2.8417  0.8730 -1.3303
15286SOL    HW246640   7.107   1.131   3.926  0.6982  0.1212 -1.8734
15287SOL     OW46641   2.224   6.575   5.783  0.0660  0.2414  0.1868
15287SOL    HW146642   2.133   6.548   5.767  0.2391  0.2800 -0.9135
15287SOL    HW246643   2.230   6.662   5.745  0.4341  0.4540  0.7209
15288SOL     OW46644   4.004   3.628   3.169 -0.2740 -0.1109  0.2070
15288SOL    HW146645   3.957   3.682   3.232 -1.1268  0.6921 -1.0734
15288SOL    HW246646   3.953   3.547   3.164 -0.1189 -0.2399  0.6336
15289SOL     OW46647   2.344   4.909   7.506  0.5053  0.3972  0.4124
15289SOL    HW146648   2.406   4.982   7.512 -3.1650  3.9431 -0.4022
15289SOL    HW246649   2.327   4.900   7.413 -2.4230  1.8189  0.6949
15290SOL     OW46650   7.281   2.071   2.514 -0.2970  0.7294  0.7487
15290SOL    HW146651   7.214   2.134   2.488 -0.6171 -0.4084 -1.3736
15290SOL    HW246652   7.253   1.988   2.475  2.0392  0.0893  0.2762
15291SOL     OW46653   1.156   6.216   2.458 -0.5799 -0.4562  0.1371
15291SOL    HW146654   1.209   6.251   2.531  1.8295 -2.7199 -0.3735
15291SOL    HW246655   1.070   6.199   2.497 -0.0645  0.5304  1.8251
15292SOL     OW46656   7.462   4.025   7.459 -0.6449 -0.0945 -0.4556
15292SOL    HW146657   7.433   4.074   7.382 -4.6144 -0.1760  0.7763
15292SOL    HW246658   7.405   4.054   7.529 -0.4734 -3.4935  1.2982
15293SOL     OW46659   3.029   2.202   7.932 -0.3204  0.3408  0.3851
15293SOL    HW146660   2.958   2.216   7.995  1.0071  0.7636  1.8826
15293SOL    HW246661   3.101   2.255   7.967  0.5595  0.3590 -1.3813
15294SOL     OW46662   2.184   2.389   0.384 -0.0027 -0.0208 -0.0965
15294SOL    HW146663   2.257   2.346   0.429 -1.9068 -0.2641  3.0555
15294SOL    HW246664   2.122   2.319   0.366  0.3226  0.2227 -2.5159
15295SOL     OW46665   4.548   4.145   1.126  0.1385  0.1488 -0.1807
15295SOL    HW146666   4.548   4.122   1.219  2.9543  2.4607  0.5445
15295SOL    HW246667   4.625   4.101   1.090  0.3181  0.9819 -0.8629
15296SOL     OW46668   0.315   3.239   1.139  0.3583 -0.6739 -0.2349
15296SOL    HW146669   0.312   3.258   1.233 -3.0590 -0.7669 -0.1716
15296SOL    HW246670   0.306   3.325   1.098  3.8166 -0.3953 -0.6586
15297SOL     OW46671   6.585   3.920   3.875  0.1061 -0.6077  0.5341
15297SOL    HW146672   6.660   3.861   3.884  0.6624 -0.0020 -0.0994
15297SOL    HW246673   6.622   4.003   3.848 -0.8933 -0.6553 -1.1427
15298SOL     OW46674   7.738   0.573   3.219  0.0342  0.1427  0.0185
15298SOL    HW146675   7.666   0.635   3.216  1.0504  1.3332 -1.3615
15298SOL    HW246676   7.697   0.488   3.203 -1.5314  0.2088  3.1363
15299SOL     OW46677   3.389   7.729   0.479 -0.4807 -0.9559  0.2256
15299SOL    HW146678   3.464   7.760   0.529 -0.1307 -0.9818 -0.2803
15299SOL    HW246679   3.339   7.676   0.541  2.0453 -4.4558 -0.4306
15300SOL     OW46680   2.728   0.870   5.713  0.2034  0.0053 -0.4026
15300SOL    HW146681   2.676   0.917   5.648  0.1253 -1.1848 -1.2304
15300SOL    HW246682   2.815   0.864   5.676  0.2952 -0.2120 -0.1599
15301SOL     OW46683   0.413   0.721   4.594  0.3402  0.1741  0.2406
15301SOL    HW146684   0.495   0.771   4.593 -0.4840  1.6270 -1.3711
15301SOL    HW246685   0.391   0.712   4.687  1.3258  1.5173  0.6382
15302SOL     OW46686   4.348   0.318   8.026 -0.2653  0.8017 -0.1838
15302SOL    HW146687   4.350   0.228   7.994  1.7184  1.3337 -1.7362
15302SOL    HW246688   4.416   0.363   7.977 -1.7544  3.3966 -0.0880
15303SOL     OW46689   4.946   3.735   4.084 -0.2511 -0.6908 -0.2600
15303SOL    HW146690   4.980   3.734   3.994 -1.1907  2.4967 -0.7700
15303SOL    HW246691   4.856   3.765   4.075  0.1373  1.3444  1.8304
15304SOL     OW46692   0.010   7.742   4.093  0.1952  0.7924 -0.0332
15304SOL    HW146693  -0.084   7.760   4.092 -0.2033 -0.3247  3.3003
15304SOL    HW246694   0.023   7.674   4.027 -1.7531 -0.4267  0.7506
15305SOL     OW46695   4.882   3.015   6.345 -0.4846  0.2926  0.1622
15305SOL    HW146696   4.836   3.054   6.419  0.4483  1.7445  0.0120
15305SOL    HW246697   4.908   3.089   6.291  2.0418 -0.4520  0.2351
15306SOL     OW46698   3.408   6.980   0.906  0.2372 -0.5170 -0.0075
15306SOL    HW146699   3.370   6.931   0.979 -0.0739 -0.2151  0.0379
15306SOL    HW246700   3.502   6.977   0.920  0.2771 -1.7933 -0.4479
15307SOL     OW46701   6.111   7.165   0.994  0.1592 -0.3232  0.3102
15307SOL    HW146702   6.124   7.074   0.965 -0.4215  0.1225 -1.4855
15307SOL    HW246703   6.103   7.159   1.089 -1.1232 -2.3158  0.1384
15308SOL     OW46704   1.738   3.647   3.940  0.3193 -0.2304 -0.1149
15308SOL    HW146705   1.735   3.737   3.974 -0.6858 -0.2643 -0.0696
15308SOL    HW246706   1.718   3.593   4.017  1.3364 -0.5280 -0.0491
15309SOL     OW46707   6.460   0.830   1.013 -0.3226  0.4215  0.3905
15309SOL    HW146708   6.486   0.857   0.925 -0.4209  0.2441  0.3060
15309SOL    HW246709   6.458   0.911   1.064  1.4134  0.3217  0.6773
15310SOL     OW46710   0.495   5.204   5.358  1.3416 -0.1343 -0.6800
15310SOL    HW146711   0.499   5.278   5.297  0.4182 -0.4166 -1.0910
15310SOL    HW246712   0.482   5.245   5.444  1.4189  0.2093 -0.8292
15311SOL     OW46713   6.690   2.823   3.587 -0.4635 -0.5507  0.1202
15311SOL    HW146714   6.745   2.826   3.666 -2.6222 -1.4521  1.7491
15311SOL    HW246715   6.648   2.909   3.584  0.3846 -0.1500 -0.6651
15312SOL     OW46716   1.002   4.921   0.150 -0.1908 -0.1001  0.3862
15312SOL    HW146717   0.924   4.965   0.117 -0.8856 -1.9364 -0.5462
15312SOL    HW246718   0.976   4.886   0.235 -0.4990 -0.9679 -0.0565
15313SOL     OW46719   7.564   2.271   1.198  0.4708 -0.0686  0.3718
15313SOL    HW146720   7.504   2.322   1.144  0.6844 -0.2620 -0.0540
15313SOL    HW246721   7.507   2.220   1.255  0.2319 -0.1218  0.0888
15314SOL     OW46722   8.009   6.973   6.534  0.0652 -0.0395  0.0610
15314SOL    HW146723   7.924   6.977   6.490 -0.3022  0.1611  0.7798
15314SOL    HW246724   8.062   6.917   6.477 -0.9584 -1.2980  0.2851
15315SOL     OW46725   1.778   3.887   3.721  0.4076  0.0698 -0.2393
15315SOL    HW146726   1.767   3.881   3.816  0.9524 -1.2609 -0.2419
15315SOL    HW246727   1.873   3.878   3.707  0.2258 -0.9565 -0.9598
15316SOL     OW46728   3.616   7.976   3.203  0.4016  0.5779 -0.4572
15316SOL    HW146729   3.695   7.959   3.152  0.1458 -0.4014 -0.5346
15316SOL    HW246730   3.616   7.909   3.272 -0.6880  0.1514 -0.8433
15317SOL     OW46731   3.391   3.718   5.232  0.1583 -0.0143  0.2576
15317SOL    HW146732   3.309   3.724   5.281  0.6835  2.3185  0.9936
15317SOL    HW246733   3.363   3.706   5.141 -0.9986  0.2843  0.5476
15318SOL     OW46734   7.376   6.170   8.196  0.3175  0.2412  0.0433
15318SOL    HW146735   7.316   6.234   8.158  1.4597  0.4114 -1.5816
15318SOL    HW246736   7.462   6.212   8.191  1.0945 -1.3592 -1.0097
15319SOL     OW46737   4.588   7.167   6.761  0.0075 -0.3795  0.2190
15319SOL    HW146738   4.599   7.254   6.799  1.4312 -0.3812 -0.1294
15319SOL    HW246739   4.668   7.153   6.710 -2.6160  0.5964 -4.7972
15320SOL     OW46740   4.836   3.337   1.245 -0.1125  0.4911 -0.0886
15320SOL    HW146741   4.741   3.348   1.241 -0.1935 -0.1150  0.1068
15320SOL    HW246742   4.857   3.283   1.169 -0.0477 -0.1891  0.4069
15321SOL     OW46743   3.097   3.017   4.231 -0.3810  0.1577 -0.6740
15321SOL    HW146744   3.183   3.055   4.247 -0.5379  0.4035 -0.4014
15321SOL    HW246745   3.053   3.020   4.316 -0.5787 -0.1751 -0.7600
15322SOL     OW46746   2.191   8.119   4.690  0.3710  0.7744  0.5236
15322SOL    HW146747   2.236   8.186   4.742  0.8475 -0.9107  2.3840
15322SOL    HW246748   2.246   8.109   4.612  2.1179  0.2781  1.7495
15323SOL     OW46749   4.098   0.694   7.148  0.1348 -0.1333  0.5816
15323SOL    HW146750   4.130   0.743   7.072  2.1843  0.0521  1.4972
15323SOL    HW246751   4.021   0.648   7.116  1.1199 -0.3185 -1.7039
15324SOL     OW46752   0.747   3.420   5.062 -0.1819 -0.4897  0.1449
15324SOL    HW146753   0.768   3.381   5.146  1.1260  1.4341  0.7836
15324SOL    HW246754   0.682   3.487   5.081  1.5523  1.3178  0.0222
15325SOL     OW46755   4.390   2.494   3.870 -0.6389 -0.5541 -0.0477
15325SOL    HW146756   4.330   2.426   3.838 -1.3656 -0.6841  1.5177
15325SOL    HW246757   4.346   2.531   3.946  0.4713  0.6024  0.0602
15326SOL     OW46758   0.252   1.590   1.177 -0.5804  0.0420  0.3171
15326SOL    HW146759   0.193   1.515   1.173  0.5554 -0.9069  0.7116
15326SOL    HW246760   0.292   1.585   1.264  1.6164 -0.5698 -0.6787
15327SOL     OW46761   7.733   2.246   5.406  0.2938 -0.4455 -0.2940
15327SOL    HW146762   7.803   2.288   5.456 -0.9641  0.0051  1.1920
15327SOL    HW246763   7.777   2.185   5.347  1.9341  0.1570  0.2702
15328SOL     OW46764   3.730   7.365   7.236  0.3303  0.3853  0.4605
15328SOL    HW146765   3.825   7.370   7.246  0.6888 -1.9683 -0.9317
15328SOL    HW246766   3.717   7.339   7.145 -1.3460 -3.7309  1.6377
15329SOL     OW46767   5.611   3.691   5.303 -0.3124  0.4275  0.0951
15329SOL    HW146768   5.638   3.767   5.354 -0.9210  0.2783  0.6714
15329SOL    HW246769   5.634   3.616   5.358  0.8679  0.1574 -0.7496
15330SOL     OW46770   5.335   1.675   1.405  0.4410 -0.1007 -0.1302
15330SOL    HW146771   5.338   1.723   1.489 -0.3001 -0.9310  0.3830
15330SOL    HW246772   5.403   1.717   1.352  1.1215  0.2591  0.9832
15331SOL     OW46773   2.139   5.172   1.320 -0.0038  0.0246 -0.2157
15331SOL    HW146774   2.122   5.096   1.264  0.0618 -0.4231  0.3658
15331SOL    HW246775   2.206   5.142   1.382  0.1863  0.6262 -0.1268
15332SOL     OW46776   0.785   5.101   0.555 -0.3079 -0.2703 -0.1426
15332SOL    HW146777   0.766   5.153   0.477 -2.0916  0.3657  0.6485
15332SOL    HW246778   0.803   5.166   0.623 -0.6258 -0.7317  0.3936
15333SOL     OW46779   5.027   2.511   4.015 -0.8567  0.1244 -0.3126
15333SOL    HW146780   4.989   2.580   3.962  0.4461 -0.1707 -1.7087
15333SOL    HW246781   4.953   2.475   4.064 -1.9312  1.0699 -1.1805
15334SOL     OW46782   5.897   6.662   5.761 -1.2145 -0.3408  0.2636
15334SOL    HW146783   5.930   6.573   5.775  2.8642  1.0038  0.6468
15334SOL    HW246784   5.900   6.674   5.666  0.8702  0.1168  0.3299
15335SOL     OW46785   6.633   2.031   2.974  0.0311  0.7576 -0.6880
15335SOL    HW146786   6.553   1.978   2.975 -0.0831  0.9284 -0.5258
15335SOL    HW246787   6.688   1.993   3.042  0.1580  0.5377 -0.9107
15336SOL     OW46788   6.216   0.728   1.570 -0.1211  0.1034 -0.0925
15336SOL    HW146789   6.181   0.679   1.496  0.9413 -0.1205 -0.4576
15336SOL    HW246790   6.224   0.818   1.538 -1.4726  0.4263  0.3802
15337SOL     OW46791   1.054   7.120   2.611  0.0491  0.2374  0.5110
15337SOL    HW146792   1.073   7.195   2.668  1.4900  0.4704 -0.2092
15337SOL    HW246793   1.141   7.084   2.591 -0.5867 -1.2908  0.3892
15338SOL     OW46794   2.764   1.451   8.034  0.2298  0.2808 -0.1305
15338SOL    HW146795   2.794   1.490   8.116 -1.5910 -0.5943  1.0254
15338SOL    HW246796   2.820   1.375   8.021  0.5424  0.4342  0.3107
15339SOL     OW46797   7.645   4.927   6.039  0.3030  0.3679  0.0188
15339SOL    HW146798   7.567   4.928   6.094  0.3264  2.6173  0.1118
15339SOL    HW246799   7.641   5.010   5.991  1.6433 -0.3545 -1.4318
15340SOL     OW46800   4.014   1.647   6.331  0.3942  0.4931 -0.5980
15340SOL    HW146801   3.963   1.726   6.349 -0.1900 -0.2369  1.1835
15340SOL    HW246802   4.020   1.603   6.416  1.5398 -0.8930 -1.3613
15341SOL     OW46803   0.474   3.471   5.573 -0.6219  0.1514  0.1446
15341SOL    HW146804   0.399   3.509   5.618  0.1131  2.9528 -0.7864
15341SOL    HW246805   0.549   3.523   5.603  0.9832 -2.3875  0.8441
15342SOL     OW46806   8.240   4.605   6.090 -0.2392 -0.3150 -0.4554
15342SOL    HW146807   8.274   4.545   6.023  2.3398  1.5295 -0.9580
15342SOL    HW246808   8.223   4.549   6.166  0.5095 -1.9050 -1.4123
15343SOL     OW46809   0.916   0.872   4.230  0.3739  0.3036  1.0848
15343SOL    HW146810   0.926   0.944   4.293 -2.9701  1.6413  0.3439
15343SOL    HW246811   0.919   0.914   4.144  3.3236 -1.2830  0.2705
15344SOL     OW46812   0.821   2.789   2.590 -0.4645  0.2234  0.5292
15344SOL    HW146813   0.853   2.700   2.606 -0.4930  0.1009 -0.0868
15344SOL    HW246814   0.878   2.844   2.643 -0.0021 -0.1023  0.3802
15345SOL     OW46815   0.094   6.799   5.532  0.2065  0.1067 -0.3621
15345SOL    HW146816   0.008   6.760   5.546 -0.0785  0.7960 -0.1119
15345SOL    HW246817   0.133   6.747   5.462  0.1215 -1.0439  0.4168
15346SOL     OW46818   0.226   2.427   0.755  0.1086  0.2742 -0.3176
15346SOL    HW146819   0.136   2.396   0.755 -0.2328  1.1218  1.5990
15346SOL    HW246820   0.253   2.423   0.847  1.7425  0.8761 -0.7265
15347SOL     OW46821   7.919   1.433   8.100  0.5584  0.2682  0.3047
15347SOL    HW146822   7.846   1.371   8.090 -0.6580  1.8778 -1.7004
15347SOL    HW246823   7.912   1.463   8.190 -1.4294  0.4907  0.1334
15348SOL     OW46824   4.206   6.910   4.621 -0.0009 -0.0946 -0.1323
15348SOL    HW146825   4.228   6.866   4.539 -1.3525 -1.0653 -0.0136
15348SOL    HW246826   4.111   6.899   4.628 -0.0633  1.0173  0.9771
15349SOL     OW46827   6.728   8.153   1.216 -0.0251 -0.6088 -0.0570
15349SOL    HW146828   6.772   8.226   1.259 -3.5882  0.3089  2.5469
15349SOL    HW246829   6.757   8.075   1.263  2.1979 -0.7147 -1.4741
15350SOL     OW46830   2.483   0.439   1.358 -0.0824  0.2393 -0.1931
15350SOL    HW146831   2.484   0.505   1.427 -0.6490  2.2008 -1.9722
15350SOL    HW246832   2.562   0.457   1.307  0.0924 -0.8989 -0.3554
15351SOL     OW46833   1.297   3.383   4.079 -0.3884 -0.7979 -0.5574
15351SOL    HW146834   1.291   3.411   4.171 -1.7440  0.4356 -0.9860
15351SOL    HW246835   1.316   3.289   4.084 -0.4653 -0.7593  0.9792
15352SOL     OW46836   6.726   1.341   5.962  0.7001  0.7107  0.1934
15352SOL    HW146837   6.684   1.277   6.019 -0.8798  0.3808 -1.2567
15352SOL    HW246838   6.719   1.424   6.009 -0.0264  0.3428  0.7555
15353SOL     OW46839   7.829   5.094   4.542  0.1202 -0.2936 -0.5605
15353SOL    HW146840   7.875   5.171   4.510 -0.5340  0.1449 -0.4628
15353SOL    HW246841   7.879   5.066   4.618 -0.4299  0.8775  0.2545
15354SOL     OW46842   4.356   3.299   2.826 -0.4923 -0.5793  0.4688
15354SOL    HW146843   4.393   3.387   2.814 -4.4719  1.0121 -2.4737
15354SOL    HW246844   4.373   3.254   2.744 -1.1200 -1.4387  0.7887
15355SOL     OW46845   1.040   5.670   5.039 -0.2179 -0.5195  0.0239
15355SOL    HW146846   0.965   5.648   4.984  0.4442  0.7619 -1.4428
15355SOL    HW246847   1.015   5.638   5.126 -1.9208 -1.2559 -0.6828
15356SOL     OW46848   3.176   3.048   2.275  0.8943  0.2686 -0.5689
15356SOL    HW146849   3.241   3.103   2.230 -0.8275  2.4212 -0.5905
15356SOL    HW246850   3.169   2.970   2.220  2.4145  0.6277 -1.3259
15357SOL     OW46851   0.602   1.934   3.699  0.4343  0.2873  0.1152
15357SOL    HW146852   0.635   1.940   3.609  0.1432 -1.4566 -0.1331
15357SOL    HW246853   0.613   1.843   3.723  0.5590  0.7448  1.8970
15358SOL     OW46854   6.161   6.258   7.404  0.3575 -0.0926 -0.2113
15358SOL    HW146855   6.107   6.230   7.478  0.2301 -0.4804 -0.4496
15358SOL    HW246856   6.243   6.210   7.415  1.3051  1.7224  1.0729
15359SOL     OW46857   0.856   1.059   1.455  0.7743  0.0316 -0.3059
15359SOL    HW146858   0.814   1.089   1.535  0.7024  0.1137 -0.3740
15359SOL    HW246859   0.784   1.028   1.400  0.6584  1.3426 -0.9293
15360SOL     OW46860   5.220   2.307   0.840  0.7631  0.3074  0.4105
15360SOL    HW146861   5.300   2.315   0.788  0.1567 -1.4389 -0.8841
15360SOL    HW246862   5.158   2.262   0.782 -0.7807  0.5742  1.7841
15361SOL     OW46863   5.010   3.201   8.276  0.6035 -0.0389  0.2684
15361SOL    HW146864   4.938   3.180   8.336  0.7532  0.4771  0.6350
15361SOL    HW246865   5.011   3.297   8.274  1.9767 -0.0200  1.1068
15362SOL     OW46866   1.175   1.706   0.170  0.1718 -0.1181 -0.3409
15362SOL    HW146867   1.119   1.630   0.151 -0.5724  0.0866  0.9541
15362SOL    HW246868   1.235   1.675   0.238  1.9523 -0.4543 -1.9792
15363SOL     OW46869   4.118   7.452   3.788  0.3096  0.3490 -0.3853
15363SOL    HW146870   4.154   7.365   3.769 -1.1404 -0.1064 -1.1379
15363SOL    HW246871   4.173   7.512   3.737  0.5957 -0.2328 -0.7809
15364SOL     OW46872   8.031   1.525   6.887 -0.2440  0.0895  0.2817
15364SOL    HW146873   7.969   1.578   6.938  1.3361  1.9639  0.3861
15364SOL    HW246874   8.012   1.548   6.796 -0.1619  0.1410  0.2777
15365SOL     OW46875   0.915   5.951   5.369  0.5169 -0.3684 -0.0094
15365SOL    HW146876   0.906   5.892   5.294  2.6681 -0.4394 -0.2818
15365SOL    HW246877   1.007   5.944   5.394  0.1797  0.7704  1.7246
15366SOL     OW46878   6.986   5.831   4.217  0.1234 -0.5590 -0.3082
15366SOL    HW146879   7.006   5.923   4.202  1.8943 -0.9693 -0.6580
15366SOL    HW246880   6.939   5.830   4.300  0.0028  0.6627 -0.3465
15367SOL     OW46881   6.148   5.104   3.584  0.0542  0.2081  0.0263
15367SOL    HW146882   6.160   5.016   3.621  0.2749  0.9765  1.8944
15367SOL    HW246883   6.080   5.144   3.638  0.2117  1.3191 -0.5633
15368SOL     OW46884   5.258   2.228   2.005  0.2182  0.5241 -0.8956
15368SOL    HW146885   5.166   2.241   2.027  0.2921  0.6095 -0.6281
15368SOL    HW246886   5.305   2.257   2.084  0.4664  0.3644 -0.9859
15369SOL     OW46887   3.294   2.547   7.846  0.0090 -0.0072  0.1015
15369SOL    HW146888   3.258   2.621   7.895 -1.5290 -0.8475  0.2984
15369SOL    HW246889   3.282   2.472   7.903  0.2369 -0.6466 -0.6731
15370SOL     OW46890   0.237   7.618   6.782  0.1318  0.3240 -0.0592
15370SOL    HW146891   0.256   7.693   6.838 -0.8009  1.4088 -1.1338
15370SOL    HW246892   0.148   7.591   6.806 -0.2664  0.7851 -0.9848
15371SOL     OW46893   4.175   6.539   6.227  0.0577 -0.3628  0.2768
15371SOL    HW146894   4.155   6.569   6.139 -2.3332 -0.8249  0.6002
15371SOL    HW246895   4.214   6.452   6.215  1.0816  0.1538 -0.3409
15372SOL     OW46896   0.703   3.419   1.062  0.2950  0.8751 -0.3862
15372SOL    HW146897   0.730   3.510   1.058 -0.1910  1.0257 -0.2901
15372SOL    HW246898   0.655   3.412   1.144  2.5735 -0.0876  0.9879
15373SOL     OW46899   2.494   0.449   4.754  0.4137 -0.8991  0.2954
15373SOL    HW146900   2.429   0.378   4.757 -0.4792 -0.0809  0.6849
15373SOL    HW246901   2.536   0.439   4.669  0.0045 -1.6332  0.1664
15374SOL     OW46902   7.427   8.221   0.039 -0.3028 -0.1575  0.2968
15374SOL    HW146903   7.343   8.259   0.064  0.0067 -0.5809  2.1231
15374SOL    HW246904   7.449   8.162   0.111  0.7625 -1.3388 -0.9503
15375SOL     OW46905   6.253   4.499   3.820  0.2713 -0.3359  0.1342
15375SOL    HW146906   6.176   4.539   3.860  0.0785 -0.6350  0.0629
15375SOL    HW246907   6.235   4.405   3.822  0.1238 -0.3354 -0.9481
15376SOL     OW46908   1.228   6.539   2.421  0.1454  0.5509 -0.3266
15376SOL    HW146909   1.176   6.563   2.345 -0.4597 -1.5005 -0.6299
15376SOL    HW246910   1.213   6.445   2.431  3.1456  0.0235  0.0885
15377SOL     OW46911   0.706   0.411   4.859  0.3408  0.7258  0.0676
15377SOL    HW146912   0.675   0.322   4.841  1.0969  0.5558 -0.4610
15377SOL    HW246913   0.696   0.457   4.776 -0.3951  1.2425  0.4419
15378SOL     OW46914   4.327   7.588   3.958  0.2570 -0.1552 -0.1639
15378SOL    HW146915   4.337   7.566   3.866  0.0565  0.0346 -0.2302
15378SOL    HW246916   4.413   7.623   3.984 -0.1267  1.1581 -0.6492
15379SOL     OW46917   0.078   6.071   4.143 -0.6660  0.0297 -0.5432
15379SOL    HW146918   0.142   6.053   4.213 -1.1683  1.1064  0.2201
15379SOL    HW246919   0.127   6.060   4.062  0.0354 -0.8651 -0.0180
15380SOL     OW46920   3.512   5.317   7.028  0.3031  0.1134  0.0213
15380SOL    HW146921   3.505   5.274   7.114 -0.7492 -0.0994 -0.1681
15380SOL    HW246922   3.544   5.405   7.048 -0.1439  0.1355  0.6496
15381SOL     OW46923   7.141   5.470   7.812  0.5532  0.2459  0.0870
15381SOL    HW146924   7.088   5.550   7.808  1.7389  1.0192 -1.0320
15381SOL    HW246925   7.223   5.498   7.852  1.8348  0.1578 -2.2719
15382SOL     OW46926   0.102   1.294   2.809 -0.0288 -0.3040 -0.1505
15382SOL    HW146927   0.047   1.327   2.738  0.9087  3.4408  0.6095
15382SOL    HW246928   0.176   1.252   2.765 -0.5778 -0.0840 -1.3131
15383SOL     OW46929   4.000   0.941   2.853  0.5588  0.1168  0.1620
15383SOL    HW146930   3.917   0.983   2.875  1.3152  1.4261  0.6438
15383SOL    HW246931   4.004   0.864   2.910 -0.9027 -0.7326 -0.8100
15384SOL     OW46932   6.651   3.879   7.849  0.0183 -0.1343  0.2980
15384SOL    HW146933   6.693   3.836   7.774  0.8087 -0.3875  0.8760
15384SOL    HW246934   6.647   3.811   7.916 -0.4002  0.1851  0.6010
15385SOL     OW46935   3.650   6.934   6.879 -0.2173  0.2612  0.3823
15385SOL    HW146936   3.672   6.979   6.798  1.7808 -1.4417 -0.1053
15385SOL    HW246937   3.692   6.986   6.948 -0.4928  0.7792  0.1672
15386SOL     OW46938   7.179   6.252   1.766  0.0469  0.2689 -0.1862
15386SOL    HW146939   7.184   6.346   1.749 -0.9969  0.3242 -0.2289
15386SOL    HW246940   7.267   6.229   1.797  0.7972  0.9356 -1.7253
15387SOL     OW46941   6.435   3.224   2.667 -0.1536  0.0344 -0.0028
15387SOL    HW146942   6.468   3.269   2.745 -0.5212 -1.2186  0.9127
15387SOL    HW246943   6.441   3.131   2.689 -1.2413 -0.3138 -1.0657
15388SOL     OW46944   1.359   1.922   7.001 -0.2604  0.0909  0.4257
15388SOL    HW146945   1.296   1.949   6.934 -0.3372 -2.3129 -0.5547
15388SOL    HW246946   1.416   1.998   7.011 -0.1972  0.5383 -2.4483
15389SOL     OW46947   0.348   6.083   3.583  0.2531 -0.8122 -0.0027
15389SOL    HW146948   0.291   6.007   3.566 -1.4628  0.3162  0.3716
15389SOL    HW246949   0.317   6.149   3.521  0.9199 -0.0269  0.4944
15390SOL     OW46950   5.453   5.590   2.111  0.1124  0.1665 -0.2898
15390SOL    HW146951   5.403   5.670   2.093 -0.0576  0.1893  0.2715
15390SOL    HW246952   5.526   5.620   2.165 -0.8138 -0.2862  1.2530
15391SOL     OW46953   7.748   3.874   5.683 -0.3584  0.2190 -0.2653
15391SOL    HW146954   7.653   3.870   5.669 -0.3134  0.5417 -0.6826
15391SOL    HW246955   7.758   3.869   5.778 -0.8770  1.5426 -0.1200
15392SOL     OW46956   3.607   0.111   6.184 -0.0863 -0.2250  0.5171
15392SOL    HW146957   3.649   0.109   6.270  0.3385  1.1564  0.3661
15392SOL    HW246958   3.674   0.146   6.126 -1.2757  1.5916  0.1760
15393SOL     OW46959   7.479   0.765   4.054 -0.1482 -0.1170  0.4437
15393SOL    HW146960   7.450   0.713   3.980 -0.5267 -0.4520  0.8187
15393SOL    HW246961   7.493   0.701   4.124  2.1889 -0.0778  0.0942
15394SOL     OW46962   0.039   7.903   5.195  0.3261 -0.0394  0.5274
15394SOL    HW146963  -0.018   7.863   5.129 -0.0505  0.2080  0.7003
15394SOL    HW246964   0.044   7.837   5.265  0.4199 -0.1474  0.4180
15395SOL     OW46965   2.735   7.361   5.888  0.4261  0.0459 -0.6269
15395SOL    HW146966   2.787   7.364   5.968 -0.9764  0.9081  0.3175
15395SOL    HW246967   2.759   7.440   5.841 -0.5412  0.8565  0.1872
15396SOL     OW46968   0.360   6.012   0.958 -0.4362 -0.0883 -0.1823
15396SOL    HW146969   0.420   5.939   0.942  0.8616  0.8230  0.3408
15396SOL    HW246970   0.376   6.037   1.049 -0.3842  1.2289 -0.5259
15397SOL     OW46971   3.209   2.363   8.057 -0.4700 -1.0793 -0.4919
15397SOL    HW146972   3.201   2.416   8.136 -2.6347 -0.6958 -0.9097
15397SOL    HW246973   3.277   2.298   8.078 -0.1342 -0.2268  1.2094
15398SOL     OW46974   8.000   2.360   1.935  0.0078 -0.3637 -0.4340
15398SOL    HW146975   8.039   2.306   1.866  0.4439 -0.1515 -0.3543
15398SOL    HW246976   7.997   2.302   2.011  1.0361 -0.1100 -0.1756
15399SOL     OW46977   4.859   2.112   1.895  0.3127 -0.7655 -0.0354
15399SOL    HW146978   4.857   2.017   1.906 -0.5817 -1.0426 -2.1935
15399SOL    HW246979   4.770   2.135   1.871  0.7466  0.4920 -0.4865
15400SOL     OW46980   3.964   2.383   1.805 -0.7067 -0.2888  0.3119
15400SOL    HW146981   3.950   2.431   1.724  1.2808  0.4437  0.3478
15400SOL    HW246982   3.977   2.451   1.871  1.7095 -0.7782  0.4444
15401SOL     OW46983   1.026   7.754   2.356  0.2969  0.3281 -0.1731
15401SOL    HW146984   1.030   7.736   2.450 -0.5807  0.4048 -0.1133
15401SOL    HW246985   0.940   7.722   2.329 -0.1819  1.9068 -0.6013
15402SOL     OW46986   5.140   2.866   7.197  0.9494  0.0890 -0.4503
15402SOL    HW146987   5.122   2.957   7.221  0.5151  0.1324 -0.9259
15402SOL    HW246988   5.057   2.834   7.163  1.4134 -0.1287 -1.3985
15403SOL     OW46989   5.615   4.836   4.154  0.3749 -0.0679 -0.4783
15403SOL    HW146990   5.586   4.870   4.069 -1.3213 -2.1877 -0.8192
15403SOL    HW246991   5.694   4.786   4.133  0.3875  0.0329 -0.6833
15404SOL     OW46992   7.749   6.931   5.880  0.4647 -0.5406 -0.1073
15404SOL    HW146993   7.739   6.933   5.975  0.2454  1.9968 -0.1239
15404SOL    HW246994   7.660   6.941   5.846  0.6754 -0.1995 -0.5690
15405SOL     OW46995   2.453   6.351   8.103  0.1617  0.1296  0.1313
15405SOL    HW146996   2.445   6.307   8.018  0.0413  0.2828  0.0623
15405SOL    HW246997   2.386   6.418   8.101  0.6806  0.6532  0.0253
15406SOL     OW46998   7.442   2.096   8.077  0.2390 -0.0111 -0.4670
15406SOL    HW146999   7.487   2.177   8.100 -0.7665  0.5135 -0.3055
15406SOL    HW247000   7.377   2.122   8.011  0.2335 -0.7732 -0.7756
15407SOL     OW47001   3.749   1.717   6.683 -0.2053 -0.3184  0.4240
15407SOL    HW147002   3.839   1.718   6.715  0.0043 -0.7429 -0.1189
15407SOL    HW247003   3.721   1.626   6.695 -0.7952 -0.0455  1.2010
15408SOL     OW47004   7.463   5.627   4.598 -0.7918  0.1117 -0.4829
15408SOL    HW147005   7.477   5.546   4.647 -1.0084  0.0714 -0.4848
15408SOL    HW247006   7.522   5.621   4.523  1.1131  1.1078  0.8462
15409SOL     OW47007   5.772   2.793   5.531 -0.0322  0.1233 -0.1655
15409SOL    HW147008   5.711   2.720   5.539 -1.3731  1.1730 -0.4040
15409SOL    HW247009   5.852   2.755   5.495 -0.7943 -1.1695 -0.5306
15410SOL     OW47010   3.681   4.539   5.667  0.0751 -0.2906  0.1011
15410SOL    HW147011   3.645   4.614   5.715  0.2752 -0.2071  0.1218
15410SOL    HW247012   3.745   4.501   5.726 -0.3111 -0.7207  0.2459
15411SOL     OW47013   4.408   4.852   7.514 -0.9631 -0.9021  0.8229
15411SOL    HW147014   4.417   4.773   7.460 -1.5203 -2.2950  2.6717
15411SOL    HW247015   4.397   4.923   7.451  0.2860 -2.1686 -0.9359
15412SOL     OW47016   7.919   1.730   6.620  0.4314 -0.4279  0.2211
15412SOL    HW147017   7.892   1.639   6.615  1.1184 -0.6527  0.4276
15412SOL    HW247018   7.880   1.772   6.543 -0.2469 -0.7947  0.3610
15413SOL     OW47019   2.982   4.963   1.839 -0.3385  0.0904  0.7297
15413SOL    HW147020   2.943   5.048   1.820 -0.0685  0.0632  0.0491
15413SOL    HW247021   2.924   4.900   1.795 -0.8390 -0.1277  1.6685
15414SOL     OW47022   8.097   2.084   2.605 -0.2058 -0.3126 -0.3374
15414SOL    HW147023   8.002   2.073   2.603 -0.1077 -1.3412  0.1529
15414SOL    HW247024   8.132   1.995   2.597  0.6738 -0.2134  1.8047
15415SOL     OW47025   3.097   2.552   0.699  0.6587 -0.1243  0.0199
15415SOL    HW147026   3.173   2.567   0.755  0.2896 -2.6432  1.3310
15415SOL    HW247027   3.030   2.519   0.758 -0.9590  0.5384 -1.3756
15416SOL     OW47028   5.962   6.986   4.454  0.0514  0.2829 -0.3351
15416SOL    HW147029   5.990   7.029   4.373  0.2453 -0.2096 -0.5341
15416SOL    HW247030   5.868   6.999   4.457  0.1205  0.7867 -0.3577
15417SOL     OW47031   1.141   6.682   6.327  0.3347 -0.2033  0.2211
15417SOL    HW147032   1.118   6.671   6.235  1.7145  1.5425 -0.3878
15417SOL    HW247033   1.134   6.776   6.343  0.7350 -0.3982  1.7373
15418SOL     OW47034   1.790   7.470   4.992 -0.9586  0.0248  0.1568
15418SOL    HW147035   1.724   7.528   4.955  0.3878  2.1989  0.9945
15418SOL    HW247036   1.767   7.383   4.959 -3.2524  0.9545 -0.8693
15419SOL     OW47037   5.653   1.172   2.317  0.6859  0.0781 -0.2793
15419SOL    HW147038   5.713   1.133   2.253 -0.8369  0.6467 -2.1444
15419SOL    HW247039   5.607   1.240   2.269 -0.1653  0.9109  1.6026
15420SOL     OW47040   8.052   6.709   1.856  0.0702  0.2077 -0.5245
15420SOL    HW147041   7.991   6.780   1.834 -2.6414 -0.7019  3.0186
15420SOL    HW247042   8.108   6.746   1.924 -1.0836 -0.7483  1.0377
15421SOL     OW47043   7.885   1.584   5.592  0.1927  0.4815 -0.3802
15421SOL    HW147044   7.817   1.621   5.648 -1.3832  1.7369 -2.9316
15421SOL    HW247045   7.902   1.497   5.629 -2.1652  0.4677  0.8726
15422SOL     OW47046   5.649   6.623   5.872 -0.4000  0.2330  0.5405
15422SOL    HW147047   5.673   6.597   5.960  0.4610  0.1354  0.2915
15422SOL    HW247048   5.732   6.647   5.831 -0.9211  1.4437  0.1379
15423SOL     OW47049   7.884   3.459   0.208  0.1229 -0.0507  0.4444
15423SOL    HW147050   7.806   3.433   0.256  1.0790 -2.2785  0.8745
15423SOL    HW247051   7.926   3.524   0.265 -0.5811  0.0021  0.9245
15424SOL     OW47052   2.713   6.104   6.389  0.0641 -0.3095 -0.7100
15424SOL    HW147053   2.711   6.154   6.308  1.4540 -1.0784 -1.2444
15424SOL    HW247054   2.632   6.053   6.388 -2.4049  3.1436  0.7413
15425SOL     OW47055   5.428   4.361   6.870  0.1620 -0.0280 -0.0037
15425SOL    HW147056   5.390   4.382   6.785  0.6824 -1.1115 -0.5250
15425SOL    HW247057   5.353   4.349   6.928 -0.2181 -0.0965 -0.5040
15426SOL     OW47058   3.206   3.928   0.687 -0.1379 -0.1818 -0.1504
15426SOL    HW147059   3.261   3.853   0.705  0.2566  0.0425 -0.4092
15426SOL    HW247060   3.267   4.000   0.671 -0.5158  0.2393  0.2918
15427SOL     OW47061   4.931   5.562   6.810  0.5523 -0.1587  0.1940
15427SOL    HW147062   5.020   5.581   6.838  0.5683  1.4129 -0.8479
15427SOL    HW247063   4.939   5.490   6.747  1.0520 -0.1305  0.2277
15428SOL     OW47064   5.525   5.411   1.653 -0.4492 -0.2944 -0.4187
15428SOL    HW147065   5.563   5.469   1.718 -0.2317 -1.5446  0.6210
15428SOL    HW247066   5.598   5.353   1.627 -1.4486 -2.4318  1.2739
15429SOL     OW47067   1.325   1.494   3.064  0.1674  0.1881 -0.6085
15429SOL    HW147068   1.275   1.504   3.145  0.3091 -2.4089 -0.1076
15429SOL    HW247069   1.265   1.519   2.995 -0.5366  0.8075  0.2050
15430SOL     OW47070   1.382   3.667   7.281  0.6752 -0.2151  0.9189
15430SOL    HW147071   1.337   3.587   7.305  1.5405 -0.1457  2.9957
15430SOL    HW247072   1.432   3.691   7.359  2.8422  0.6930 -0.6496
15431SOL     OW47073   3.567   6.476   0.640  0.1165  0.4468 -0.0026
15431SOL    HW147074   3.576   6.435   0.726 -0.6035  0.6978  0.1980
15431SOL    HW247075   3.627   6.426   0.584  0.3978  0.1129  0.5796
15432SOL     OW47076   1.109   5.375   5.245  0.1140 -0.5019 -0.2611
15432SOL    HW147077   1.115   5.462   5.286  1.8116 -1.1682  1.0566
15432SOL    HW247078   1.031   5.379   5.191 -0.3107  1.5841  0.4099
15433SOL     OW47079   7.762   2.958   1.618 -0.1451 -0.1694 -0.3744
15433SOL    HW147080   7.706   2.909   1.557 -0.8402 -0.3598  0.4023
15433SOL    HW247081   7.708   3.033   1.645  0.5100  0.4399 -0.7093
15434SOL     OW47082   0.016   3.139   8.210  0.4959 -0.0079  0.2635
15434SOL    HW147083  -0.007   3.047   8.204  2.4404 -0.4848 -0.5600
15434SOL    HW247084  -0.046   3.184   8.152 -2.4281 -0.3159  2.9055
15435SOL     OW47085   8.037   1.593   5.874 -0.3889 -0.1539 -0.3230
15435SOL    HW147086   7.972   1.529   5.845 -1.1064  0.2418  0.3689
15435SOL    HW247087   8.075   1.554   5.953 -2.1150  1.0381  1.1588
15436SOL     OW47088   5.764   1.849   6.310  0.4023 -0.5138  1.0117
15436SOL    HW147089   5.688   1.906   6.303  0.6326 -0.3435 -0.6431
15436SOL    HW247090   5.740   1.785   6.377 -0.5662  0.4587  1.6228
15437SOL     OW47091   3.647   4.139   5.167 -0.2391  0.4027  0.1508
15437SOL    HW147092   3.734   4.103   5.183  0.1083  1.4466  0.7413
15437SOL    HW247093   3.663   4.227   5.132 -1.0544  0.1965 -0.8113
15438SOL     OW47094   4.479   0.924   7.560  0.2737 -0.2950 -0.0662
15438SOL    HW147095   4.551   0.911   7.499 -0.4336  0.0669 -1.0138
15438SOL    HW247096   4.426   0.993   7.520 -0.1096  0.0930  1.0606
15439SOL     OW47097   4.736   2.022   5.971  0.2770 -0.0213  0.1174
15439SOL    HW147098   4.683   2.057   5.900  0.8902 -1.2228 -0.9838
15439SOL    HW247099   4.701   1.934   5.986 -1.2580  0.9383  2.8354
15440SOL     OW47100   5.360   6.846   7.415  0.0296 -0.5783  0.0984
15440SOL    HW147101   5.456   6.853   7.420  0.1923 -1.7345 -0.9922
15440SOL    HW247102   5.342   6.752   7.425 -1.0254 -0.3367  0.6040
15441SOL     OW47103   5.932   7.599   3.688  0.5850  0.7683  0.1381
15441SOL    HW147104   5.985   7.675   3.665  1.2860  0.8010  1.7507
15441SOL    HW247105   5.987   7.523   3.669  0.8868  0.7709  0.9647
15442SOL     OW47106   5.032   1.158   3.335  0.0684  0.0739  0.3086
15442SOL    HW147107   5.002   1.076   3.375  1.1506 -1.5906 -2.0719
15442SOL    HW247108   5.118   1.137   3.299 -0.0458  1.9848 -1.2109
15443SOL     OW47109   0.421   3.697   1.101 -0.1773 -0.3606 -0.3000
15443SOL    HW147110   0.338   3.712   1.149  0.7902 -1.3625  1.8378
15443SOL    HW247111   0.478   3.769   1.130  0.1290 -0.4418 -0.7020
15444SOL     OW47112   3.967   7.928   0.005  0.8514 -0.4253 -0.3165
15444SOL    HW147113   4.044   7.871   0.005  1.6332  0.6185 -0.5710
15444SOL    HW247114   3.988   7.996   0.069  0.1049 -0.1783 -0.3303
15445SOL     OW47115   1.680   5.293   0.353  0.0313  0.1420 -0.6037
15445SOL    HW147116   1.691   5.338   0.437  0.5513  1.9908 -1.6100
15445SOL    HW247117   1.732   5.213   0.362 -1.7921 -0.9016  1.6242
15446SOL     OW47118   6.210   0.492   5.863 -0.3428  0.1844 -0.0990
15446SOL    HW147119   6.250   0.406   5.867  1.0635  0.7421 -1.1781
15446SOL    HW247120   6.155   0.490   5.785 -1.8856 -0.3305  0.9554
15447SOL     OW47121   6.984   2.253   0.383  0.0794 -0.2784  0.0684
15447SOL    HW147122   7.004   2.219   0.470  0.4752  1.1429  0.5536
15447SOL    HW247123   6.906   2.306   0.394  0.1420 -0.0703 -0.4388
15448SOL     OW47124   2.170   5.435   4.892 -0.1458  0.3784 -0.3132
15448SOL    HW147125   2.172   5.471   4.804  0.2076 -2.4227 -1.5629
15448SOL    HW247126   2.117   5.356   4.885 -0.8637  0.5413  2.2135
15449SOL     OW47127   0.842   3.976   8.139  0.0514  0.0791  0.2640
15449SOL    HW147128   0.793   3.965   8.221  0.3396  0.0937  0.4392
15449SOL    HW247129   0.932   3.994   8.167 -0.0620  1.1520 -0.0460
15450SOL     OW47130   1.938   0.029   7.270  0.6480  0.1204  0.1099
15450SOL    HW147131   1.922   0.123   7.261  2.8713  0.6357  0.8374
15450SOL    HW247132   1.969   0.002   7.183  3.0580  0.8273  0.6492
15451SOL     OW47133   4.483   2.684   0.467  0.5733  0.3025  0.4448
15451SOL    HW147134   4.493   2.731   0.385 -0.1797  0.2193  0.2987
15451SOL    HW247135   4.389   2.688   0.486  0.2775 -2.0662 -0.1433
15452SOL     OW47136   5.286   7.133   5.892  0.0561  0.1551 -0.4463
15452SOL    HW147137   5.329   7.173   5.967 -1.1357 -0.4028  0.5716
15452SOL    HW247138   5.355   7.124   5.826  0.7709  2.1340 -0.0356
15453SOL     OW47139   7.378   3.838   1.005  0.2860 -0.2532 -0.3534
15453SOL    HW147140   7.423   3.903   1.060  0.6385  0.9210 -1.9476
15453SOL    HW247141   7.293   3.877   0.987 -0.4098 -1.3060  0.5256
15454SOL     OW47142   3.194   3.797   6.722  0.0746 -0.1208  0.5230
15454SOL    HW147143   3.189   3.883   6.682 -0.0929 -0.2899  0.1727
15454SOL    HW247144   3.102   3.774   6.741  0.2871  1.2642  3.8624
15455SOL     OW47145   7.550   4.013   6.167  0.0436  0.3283 -0.0461
15455SOL    HW147146   7.601   4.093   6.158  0.9955 -0.2570  0.0169
15455SOL    HW247147   7.468   4.042   6.207  0.1193  1.3507 -0.5866
15456SOL     OW47148   5.408   1.644   0.865  0.2295  0.0538  0.0707
15456SOL    HW147149   5.335   1.693   0.903 -0.9376 -1.5785  0.0541
15456SOL    HW247150   5.475   1.709   0.848 -0.1818  1.2473  2.5797
15457SOL     OW47151   3.864   3.963   3.600 -0.2673 -0.0555 -0.0711
15457SOL    HW147152   3.811   4.028   3.555 -0.5410 -0.7795 -0.8017
15457SOL    HW247153   3.866   3.993   3.691  1.9518  2.5385 -0.8399
15458SOL     OW47154   6.968   6.547   1.630 -0.3885 -0.2597 -0.8837
15458SOL    HW147155   6.987   6.635   1.597  0.1836  0.6943  1.7472
15458SOL    HW247156   7.045   6.525   1.683 -1.2538 -1.6341 -0.1468
15459SOL     OW47157   8.138   1.660   4.712  0.4289 -0.4263  0.1201
15459SOL    HW147158   8.095   1.711   4.781 -2.0407  0.0083 -1.6017
15459SOL    HW247159   8.218   1.708   4.693 -0.0240  0.7591  1.0440
15460SOL     OW47160   2.580   2.795   5.957 -0.4819  0.3626 -0.2820
15460SOL    HW147161   2.536   2.812   6.041 -2.1291 -1.6341 -0.6557
15460SOL    HW247162   2.530   2.846   5.893 -1.2675 -0.6008 -0.4648
15461SOL     OW47163   6.314   6.802   4.781  0.4160  0.6679  0.2548
15461SOL    HW147164   6.297   6.709   4.763 -3.1707  1.3021 -0.4474
15461SOL    HW247165   6.335   6.840   4.696 -0.2543  0.8285  0.1522
15462SOL     OW47166   3.166   1.781   6.546  0.3261  0.1145  0.4863
15462SOL    HW147167   3.246   1.798   6.496 -0.4048  0.1214 -0.7257
15462SOL    HW247168   3.170   1.843   6.619  1.4380  0.0831  0.4741
15463SOL     OW47169   0.867   2.256   6.358 -0.2486  0.0927 -0.1880
15463SOL    HW147170   0.930   2.316   6.398 -2.5514  1.3156  1.8346
15463SOL    HW247171   0.846   2.295   6.274 -0.3617  1.1792  0.3259
15464SOL     OW47172   0.901   7.389   2.510  0.4956 -0.5472  0.3068
15464SOL    HW147173   0.869   7.446   2.580  0.8737 -0.2648  0.2498
15464SOL    HW247174   0.881   7.300   2.540  0.4171 -0.4125  0.6494
15465SOL     OW47175   2.116   7.674   4.750  0.5479  0.1689  0.0964
15465SOL    HW147176   2.056   7.733   4.706  1.5890  2.7174  1.8941
15465SOL    HW247177   2.075   7.656   4.835  2.0829  1.7402  1.2470
15466SOL     OW47178   3.552   4.330   7.353  0.3986 -0.3292  0.3461
15466SOL    HW147179   3.629   4.386   7.348 -0.0081  0.6870  3.3458
15466SOL    HW247180   3.480   4.389   7.375 -1.2555 -1.3035 -1.9710
15467SOL     OW47181   4.138   0.111   0.584  0.1814  0.2441 -0.8536
15467SOL    HW147182   4.211   0.072   0.535 -0.3977  0.8651 -2.2639
15467SOL    HW247183   4.065   0.050   0.571  0.4625 -0.5087  0.7648
15468SOL     OW47184   1.037   0.854   2.890 -0.0718  0.0100  0.6399
15468SOL    HW147185   1.031   0.888   2.800  2.3956 -1.5498 -0.2134
15468SOL    HW247186   1.070   0.928   2.941 -3.0550  1.4371  0.7322
15469SOL     OW47187   5.032   5.621   6.040 -0.0280  0.0631 -0.3786
15469SOL    HW147188   5.087   5.698   6.047  0.9975 -0.6907  0.1132
15469SOL    HW247189   4.978   5.637   5.963 -0.7497  1.8251  0.4350
15470SOL     OW47190   7.011   1.730   4.567  0.4461  0.1465  0.5402
15470SOL    HW147191   7.092   1.688   4.598  1.0883 -1.2184 -2.6086
15470SOL    HW247192   6.946   1.660   4.565  0.6033 -0.0183 -1.5450
15471SOL     OW47193   1.803   4.703   3.684 -0.1487  0.6955  0.1999
15471SOL    HW147194   1.847   4.729   3.603  0.0982  0.0607  0.1259
15471SOL    HW247195   1.789   4.785   3.731 -1.3601  1.2118 -0.9996
15472SOL     OW47196   3.197   1.347   2.162  0.0707 -0.2978 -0.0666
15472SOL    HW147197   3.112   1.345   2.118 -0.7354 -0.8480  1.4286
15472SOL    HW247198   3.181   1.394   2.243  1.4621  0.4922 -0.2202
15473SOL     OW47199   0.635   7.549   8.159 -0.0926 -0.0607  0.0261
15473SOL    HW147200   0.631   7.486   8.088 -0.9650  0.9283 -0.8431
15473SOL    HW247201   0.703   7.516   8.217  0.0420 -1.3434 -0.8288
15474SOL     OW47202   6.319   3.763   1.154  0.0593  0.1096 -0.4483
15474SOL    HW147203   6.292   3.849   1.122 -0.7104  1.0861  2.5087
15474SOL    HW247204   6.240   3.727   1.195  0.8476 -1.2255 -0.0364
15475SOL     OW47205   7.713   0.348   0.858 -0.1502 -0.3421  0.2582
15475SOL    HW147206   7.677   0.308   0.937 -1.6109 -0.4893 -0.4451
15475SOL    HW247207   7.703   0.281   0.790  0.9560 -0.1687 -0.1114
15476SOL     OW47208   5.810   2.223   0.374 -0.2885 -0.1779 -0.1618
15476SOL    HW147209   5.727   2.216   0.421  0.0323 -0.1714  0.4150
15476SOL    HW247210   5.861   2.148   0.403  0.2448  0.3051  0.1681
15477SOL     OW47211   2.471   0.459   7.735 -0.0898  0.6104  0.3358
15477SOL    HW147212   2.430   0.381   7.698 -0.4316  1.2742 -0.7233
15477SOL    HW247213   2.565   0.440   7.733 -0.1900  0.0775  0.4489
15478SOL     OW47214   5.631   3.493   7.700 -0.0260 -0.0499  0.1551
15478SOL    HW147215   5.685   3.427   7.744  0.1871  0.6424  0.9521
15478SOL    HW247216   5.597   3.448   7.623  0.9472 -0.7832  0.1287
15479SOL     OW47217   7.758   2.617   2.484  0.0395 -0.0875  0.1993
15479SOL    HW147218   7.697   2.588   2.551  0.9831 -1.1525  0.6175
15479SOL    HW247219   7.705   2.621   2.404 -0.7110 -0.3790  0.6706
15480SOL     OW47220   2.135   5.102   3.719  0.2733  0.2377 -0.2269
15480SOL    HW147221   2.040   5.111   3.715  0.2439  2.0712  2.2856
15480SOL    HW247222   2.155   5.034   3.655 -2.6308  0.2792 -1.3361
15481SOL     OW47223   7.685   3.162   7.370  0.2763 -0.1532 -0.7192
15481SOL    HW147224   7.657   3.183   7.280 -0.2719  0.0881 -0.4981
15481SOL    HW247225   7.721   3.244   7.403  1.0260 -0.3979 -0.9163
15482SOL     OW47226   0.700   4.259   7.086  0.3109 -0.0054  0.0084
15482SOL    HW147227   0.628   4.249   7.023 -0.2401 -2.5684  0.9529
15482SOL    HW247228   0.769   4.202   7.053  1.0949  0.7313  0.3174
15483SOL     OW47229   0.703   4.290   0.095 -0.1398 -0.5776  0.0168
15483SOL    HW147230   0.723   4.375   0.054 -0.7794 -1.1103 -1.4570
15483SOL    HW247231   0.687   4.312   0.186  1.1308  0.6925 -0.0186
15484SOL     OW47232   0.764   1.368   1.203 -0.0294  0.0255 -0.8168
15484SOL    HW147233   0.854   1.396   1.217  0.0622 -0.1653 -1.0210
15484SOL    HW247234   0.739   1.404   1.118  0.3562 -1.1500 -1.4554
15485SOL     OW47235   5.176   1.569   4.093 -0.4018 -0.2334  0.0637
15485SOL    HW147236   5.222   1.644   4.132  1.2921 -0.6909 -0.9709
15485SOL    HW247237   5.136   1.525   4.168  1.3983 -0.1656  1.1322
15486SOL     OW47238   4.483   0.611   7.487  0.4898  0.0446  0.2802
15486SOL    HW147239   4.403   0.609   7.434  0.0400 -0.5501  0.9649
15486SOL    HW247240   4.452   0.622   7.577  1.1638 -0.5048  0.5851
15487SOL     OW47241   6.782   3.399   3.519 -0.3763  0.1151 -0.3445
15487SOL    HW147242   6.877   3.406   3.516 -0.3084 -0.1264  0.8285
15487SOL    HW247243   6.758   3.367   3.432  0.5939  0.3321 -0.7077
15488SOL     OW47244   5.975   0.038   2.231 -0.2980  0.2290 -0.1122
15488SOL    HW147245   5.967   0.128   2.264 -3.2557 -0.1861  0.6318
15488SOL    HW247246   5.888   0.018   2.195  0.6181 -1.9591 -1.2927
15489SOL     OW47247   0.417   0.538   3.867  0.3103  0.2216  0.5144
15489SOL    HW147248   0.338   0.506   3.824  0.6613  0.1768 -0.1111
15489SOL    HW247249   0.407   0.510   3.959 -0.2528 -0.0470  0.3779
15490SOL     OW47250   3.600   3.581   1.399 -0.5054  0.3642  0.0956
15490SOL    HW147251   3.575   3.669   1.428 -1.4597  0.3985 -0.7564
15490SOL    HW247252   3.573   3.578   1.307  3.5920  0.7807 -1.3683
15491SOL     OW47253   2.468   4.232   6.510  0.0305 -0.2437  0.7426
15491SOL    HW147254   2.385   4.228   6.462 -1.5440  0.5868  3.2165
15491SOL    HW247255   2.487   4.326   6.516  2.6632 -0.4485 -2.0461
15492SOL     OW47256   0.219   2.210   7.012  0.0948 -0.3511  0.1787
15492SOL    HW147257   0.132   2.225   6.975  0.3308  1.7696  0.3644
15492SOL    HW247258   0.280   2.234   6.942  0.5628 -2.0613 -0.0352
15493SOL     OW47259   6.152   7.096   2.677 -0.2067  0.2271 -1.1150
15493SOL    HW147260   6.155   7.056   2.764  0.0731  0.6558 -0.9237
15493SOL    HW247261   6.077   7.055   2.634 -0.5194  0.2221 -0.5725
15494SOL     OW47262   5.229   0.915   3.353  0.0750  0.5746  0.0763
15494SOL    HW147263   5.195   0.935   3.440  0.1365  1.7526 -0.1532
15494SOL    HW247264   5.167   0.851   3.317  0.3529 -0.3586  1.1787
15495SOL     OW47265   2.642   7.620   1.940  0.2517  0.0547 -0.3555
15495SOL    HW147266   2.645   7.565   1.861  2.8710  0.2904 -0.5246
15495SOL    HW247267   2.720   7.676   1.932  0.1956  0.5589  2.0745
15496SOL     OW47268   4.352   2.749   1.015 -0.9179 -0.1177 -0.0333
15496SOL    HW147269   4.397   2.674   0.977  0.7243  0.6408  0.3544
15496SOL    HW247270   4.405   2.824   0.992 -1.6097  0.7343  1.0450
15497SOL     OW47271   2.729   6.579   1.709 -0.3762  0.1989 -0.0573
15497SOL    HW147272   2.816   6.561   1.744 -0.7365 -1.0738  0.2289
15497SOL    HW247273   2.734   6.553   1.617 -0.6296 -0.4835  0.1188
15498SOL     OW47274   2.598   2.837   3.631  0.2276  0.0272  0.4590
15498SOL    HW147275   2.671   2.840   3.693  0.1566  0.3403  0.5306
15498SOL    HW247276   2.632   2.789   3.556  0.3273 -0.3262  0.7254
15499SOL     OW47277   6.156   2.050   5.986  0.0362  0.5917  0.2178
15499SOL    HW147278   6.081   2.107   6.001 -0.6614  0.1565 -1.3868
15499SOL    HW247279   6.212   2.098   5.925  1.1686  0.9790  1.5216
15500SOL     OW47280   4.266   7.348   1.452  0.6402  0.0203 -0.2528
15500SOL    HW147281   4.288   7.264   1.413 -0.7239  0.0686 -1.1841
15500SOL    HW247282   4.343   7.403   1.437  1.1701 -0.7714 -0.4824
15501SOL     OW47283   0.385   6.391   6.982  0.1943  0.2743  0.5839
15501SOL    HW147284   0.438   6.464   7.013  0.0576  0.3117  0.7261
15501SOL    HW247285   0.434   6.356   6.907 -0.4787  1.4564 -0.4363
15502SOL     OW47286   6.929   8.263   8.189 -0.4069  0.3889 -0.5124
15502SOL    HW147287   6.848   8.314   8.189  0.0876  1.1951 -1.0801
15502SOL    HW247288   6.938   8.231   8.100  0.2276  0.8481 -0.6186
15503SOL     OW47289   8.120   4.799   5.066 -0.4914 -0.1675  0.1262
15503SOL    HW147290   8.099   4.706   5.064 -0.7944 -0.0828 -0.9004
15503SOL    HW247291   8.155   4.818   4.979 -0.7801  0.7598  0.2027
15504SOL     OW47292   4.655   8.307   7.910  0.0353  0.0264  0.0677
15504SOL    HW147293   4.603   8.265   7.979 -1.5127 -3.8812 -3.0477
15504SOL    HW247294   4.592   8.362   7.863  0.1335 -0.2455 -0.3846
15505SOL     OW47295   6.113   2.530   6.445  0.0993 -0.0723 -0.6285
15505SOL    HW147296   6.054   2.537   6.519  0.7086  0.6024 -0.1942
15505SOL    HW247297   6.115   2.618   6.407  1.4596  0.1460 -0.1210
15506SOL     OW47298   3.923   2.689   4.210 -0.1748 -0.6886  0.3648
15506SOL    HW147299   3.984   2.763   4.207 -0.4739 -0.4663 -0.6787
15506SOL    HW247300   3.948   2.634   4.137  0.3148 -1.8667  1.3922
15507SOL     OW47301   2.907   4.120   5.996 -0.0980 -0.1561  0.2827
15507SOL    HW147302   2.860   4.068   5.931 -0.2420 -1.0772  1.1075
15507SOL    HW247303   2.952   4.187   5.944  1.0103 -1.7690 -0.9489
15508SOL     OW47304   4.793   1.939   3.954  0.5772 -0.5458  0.1018
15508SOL    HW147305   4.819   2.026   3.922  1.0748 -0.1876  1.4232
15508SOL    HW247306   4.765   1.892   3.875  2.9174 -0.1259 -1.0672
15509SOL     OW47307   4.534   4.991   0.339 -0.1923  0.0698 -0.2811
15509SOL    HW147308   4.565   5.080   0.321  0.0606 -0.0691 -0.5438
15509SOL    HW247309   4.567   4.971   0.426 -0.7582  0.4544  0.0295
15510SOL     OW47310   3.405   6.368   3.308  0.6505 -0.4149  0.3746
15510SOL    HW147311   3.383   6.353   3.216  2.2100 -1.6505  0.1543
15510SOL    HW247312   3.357   6.447   3.332  1.3535  0.7745 -1.9184
15511SOL     OW47313   1.093   6.637   6.051 -0.5777 -0.6745 -0.0003
15511SOL    HW147314   1.040   6.717   6.051 -0.2641 -0.4257  1.7910
15511SOL    HW247315   1.180   6.668   6.024  0.0304  0.0200  2.4804
15512SOL     OW47316   2.035   4.899   2.641  0.2115 -0.4687 -0.9679
15512SOL    HW147317   2.072   4.941   2.563 -0.7286  0.8271 -0.7497
15512SOL    HW247318   2.059   4.807   2.633  0.4430 -0.2859 -2.6099
15513SOL     OW47319   1.570   7.206   7.093  0.3595 -0.1908 -0.1389
15513SOL    HW147320   1.598   7.231   7.181  3.1815  1.9079 -1.4778
15513SOL    HW247321   1.528   7.285   7.057 -3.0815 -1.7670  0.0423
15514SOL     OW47322   1.363   4.322   7.809 -0.1520  0.0021  0.9381
15514SOL    HW147323   1.333   4.270   7.734  1.2360  0.2104  0.2107
15514SOL    HW247324   1.402   4.259   7.869  2.7186  0.2219 -0.5229
15515SOL     OW47325   3.819   6.617   4.456 -0.0255  0.0475 -0.1500
15515SOL    HW147326   3.759   6.599   4.383 -0.0786  1.3298 -0.4599
15515SOL    HW247327   3.766   6.665   4.519  0.6224  1.1129 -0.3855
15516SOL     OW47328   2.685   0.697   0.648 -0.1573  0.0960  0.1372
15516SOL    HW147329   2.743   0.772   0.636  0.1147  0.1008  1.3346
15516SOL    HW247330   2.719   0.630   0.589 -0.3555  0.8775 -0.8853
15517SOL     OW47331   3.687   4.641   3.299 -0.6474 -0.3184  0.0458
15517SOL    HW147332   3.681   4.721   3.350 -0.5098  0.2070 -0.7414
15517SOL    HW247333   3.758   4.657   3.237  0.3251 -1.5687  0.7672
15518SOL     OW47334   0.147   1.445   3.394  0.1252  0.0886  0.6692
15518SOL    HW147335   0.063   1.457   3.351  0.7580  2.2096 -0.0724
15518SOL    HW247336   0.126   1.397   3.474 -2.1317  2.3021  1.5389
15519SOL     OW47337   4.308   2.541   7.574 -0.0453  0.2164  0.2671
15519SOL    HW147338   4.220   2.503   7.579 -0.2708  0.5855 -0.6315
15519SOL    HW247339   4.297   2.631   7.605 -0.4134  0.8895 -1.6673
15520SOL     OW47340   0.348   5.439   1.670  0.0823 -0.3323  0.3852
15520SOL    HW147341   0.334   5.517   1.724 -1.1438  1.0498 -1.7507
15520SOL    HW247342   0.265   5.392   1.673  0.1247 -0.4341  0.0276
15521SOL     OW47343   2.074   5.354   6.740 -0.0239 -0.2911 -0.3345
15521SOL    HW147344   2.140   5.409   6.781 -0.5408 -0.3093  0.5459
15521SOL    HW247345   2.057   5.395   6.656 -1.2800  1.6145  0.7886
15522SOL     OW47346   1.931   7.790   4.577  0.0619 -0.4402  0.6595
15522SOL    HW147347   2.002   7.788   4.513  0.3220 -2.7300  0.9290
15522SOL    HW247348   1.857   7.751   4.533 -0.0770 -1.0404  1.4039
15523SOL     OW47349   2.721   0.149   4.317  0.1132  0.1133 -0.1082
15523SOL    HW147350   2.689   0.059   4.311 -1.0567  0.5247 -0.3400
15523SOL    HW247351   2.656   0.201   4.270  1.4458  0.9447 -1.1043
15524SOL     OW47352   4.778   4.043   1.011 -0.0952 -0.4345 -0.4181
15524SOL    HW147353   4.872   4.038   1.029 -0.2287 -1.4184  0.1000
15524SOL    HW247354   4.763   3.976   0.944 -0.6974 -1.6487  0.8543
15525SOL     OW47355   4.903   1.679   8.111  0.0279 -0.0754  0.0524
15525SOL    HW147356   4.871   1.761   8.149  0.6614  0.1105  0.1893
15525SOL    HW247357   4.983   1.704   8.065  1.5490 -0.9781  2.0413
15526SOL     OW47358   2.897   7.307   3.289 -0.1626 -0.1982 -0.2440
15526SOL    HW147359   2.827   7.373   3.291 -0.8829 -0.9707  0.6437
15526SOL    HW247360   2.958   7.335   3.358  0.6179  0.6609 -1.2371
15527SOL     OW47361   4.445   2.808   7.620  0.1376  0.2987  0.0799
15527SOL    HW147362   4.531   2.778   7.592  0.1246  0.8387 -0.5550
15527SOL    HW247363   4.438   2.779   7.711  0.8721  0.0021  0.0458
15528SOL     OW47364   5.239   5.610   1.768 -0.1691  0.3213  0.0730
15528SOL    HW147365   5.324   5.640   1.801 -0.1245  0.7618 -0.4258
15528SOL    HW247366   5.182   5.610   1.845  0.2218  0.2352  0.3673
15529SOL     OW47367   4.634   4.904   1.979 -0.2964 -0.1991  0.2912
15529SOL    HW147368   4.719   4.866   2.000  0.7532  0.4372 -2.3712
15529SOL    HW247369   4.628   4.897   1.883 -1.8907  2.4784  0.0945
15530SOL     OW47370   4.934   0.758   5.776 -0.1696 -0.1006  0.3286
15530SOL    HW147371   4.983   0.720   5.704  1.2345  1.7227  0.2343
15530SOL    HW247372   4.986   0.835   5.802 -3.3151  2.4518 -0.2812
15531SOL     OW47373   3.196   2.185   6.448  0.1699  0.1472  0.7537
15531SOL    HW147374   3.274   2.172   6.503  1.2034  0.6067 -0.5358
15531SOL    HW247375   3.184   2.280   6.448  1.8504  0.4559 -1.9215
15532SOL     OW47376   3.699   7.949   6.807  0.3652 -0.7349 -0.3147
15532SOL    HW147377   3.739   8.022   6.759 -0.9371 -1.1712 -2.1644
15532SOL    HW247378   3.614   7.983   6.835  0.1705 -1.2236 -0.3122
15533SOL     OW47379   4.918   7.969   4.556 -0.2198 -0.1322  0.1704
15533SOL    HW147380   4.890   7.991   4.645  1.2774  0.1289  0.6137
15533SOL    HW247381   4.935   7.875   4.559 -0.6794 -0.2260 -0.0051
15534SOL     OW47382   2.474   2.813   1.496 -0.5480  0.5467 -0.5198
15534SOL    HW147383   2.388   2.772   1.504 -1.1696  1.6684 -1.2145
15534SOL    HW247384   2.469   2.891   1.550  0.3922  0.1138  0.2278
15535SOL     OW47385   2.423   2.901   1.232 -0.5022 -0.3460 -0.4653
15535SOL    HW147386   2.386   2.979   1.273 -0.6032  0.0901 -1.3640
15535SOL    HW247387   2.450   2.846   1.306  1.1868  1.2729  0.2027
15536SOL     OW47388   1.208   0.693   3.821 -0.2830  0.3560 -0.2121
15536SOL    HW147389   1.126   0.724   3.783 -1.7910 -1.9841  0.9178
15536SOL    HW247390   1.206   0.598   3.808  3.1635  0.3493 -1.8133
15537SOL     OW47391   8.137   6.915   3.615  0.1284  0.7509 -0.0651
15537SOL    HW147392   8.162   6.950   3.701  0.7201  1.2165 -0.4148
15537SOL    HW247393   8.215   6.928   3.561 -0.1672  0.2663 -0.6196
15538SOL     OW47394   8.142   2.164   6.143  0.4841  0.2552 -0.3500
15538SOL    HW147395   8.140   2.109   6.221  4.6946  0.4698  0.1652
15538SOL    HW247396   8.141   2.102   6.070 -2.4360  0.0130 -0.2161
15539SOL     OW47397   0.083   4.621   8.204  0.0959  0.0787 -0.2401
15539SOL    HW147398   0.041   4.699   8.240 -1.2824  0.1728 -1.9304
15539SOL    HW247399   0.175   4.644   8.198  0.0147  0.8394  1.1391
15540SOL     OW47400   7.544   5.795   1.886 -0.0622 -0.0808 -0.1497
15540SOL    HW147401   7.486   5.812   1.813 -0.4919  1.0293  0.4315
15540SOL    HW247402   7.631   5.788   1.847 -0.2570  0.6991 -0.7441
15541SOL     OW47403   1.680   8.154   2.233  0.1642 -0.0956  0.2259
15541SOL    HW147404   1.720   8.136   2.318 -0.3606  0.6069  0.6262
15541SOL    HW247405   1.752   8.190   2.180  1.3772 -3.5270 -0.7404
15542SOL     OW47406   0.125   7.950   6.606 -0.4790 -0.0692 -0.3040
15542SOL    HW147407   0.110   8.028   6.552 -2.6840 -1.3806 -1.7290
15542SOL    HW247408   0.148   7.985   6.692  1.2740  2.1121 -1.5313
15543SOL     OW47409   7.236   3.967   0.035 -0.2035  0.3912  0.0076
15543SOL    HW147410   7.227   3.879  -0.003 -0.6571  1.2738 -2.0546
15543SOL    HW247411   7.172   4.020  -0.012 -1.2448  1.4855  2.4867
15544SOL     OW47412   8.150   5.691   0.647  0.0273  0.1718 -0.2390
15544SOL    HW147413   8.170   5.725   0.560 -0.8694  0.9534 -0.1632
15544SOL    HW247414   8.058   5.666   0.643  0.2669 -0.7964  0.1771
15545SOL     OW47415   3.478   2.515   6.558 -0.4878 -0.6109 -0.6723
15545SOL    HW147416   3.546   2.573   6.592 -1.9781  0.0468  1.3877
15545SOL    HW247417   3.521   2.467   6.487  2.0057  0.0209  0.2904
15546SOL     OW47418   4.609   2.351   3.111  0.1663 -0.3032  0.0908
15546SOL    HW147419   4.639   2.312   3.029 -3.2883  0.1040 -1.5476
15546SOL    HW247420   4.598   2.276   3.170 -0.0237 -1.0101 -0.8090
15547SOL     OW47421   2.377   4.163   0.099  0.6639  0.5854 -0.0874
15547SOL    HW147422   2.334   4.240   0.062 -2.4257 -1.1643 -0.4127
15547SOL    HW247423   2.364   4.170   0.193 -0.2556  0.1586 -0.1706
15548SOL     OW47424   6.523   4.057   0.953 -0.2823  0.5681  0.7326
15548SOL    HW147425   6.517   4.113   0.875 -0.9369  3.3285  2.6179
15548SOL    HW247426   6.432   4.037   0.975 -0.1438  0.5313  1.2720
15549SOL     OW47427   2.345   2.297   4.484  0.2926 -0.0715  0.0901
15549SOL    HW147428   2.432   2.335   4.497  0.7007 -1.2857  1.1833
15549SOL    HW247429   2.344   2.270   4.393  1.4027 -0.7862  0.2600
15550SOL     OW47430   2.277   4.221   5.592 -0.2232  0.5310  0.0968
15550SOL    HW147431   2.231   4.288   5.541  2.0274  1.7854 -0.4312
15550SOL    HW247432   2.360   4.262   5.615  1.4207 -2.1953 -0.5281
15551SOL     OW47433   4.519   2.320   6.889 -0.4253  0.1121 -0.2826
15551SOL    HW147434   4.448   2.293   6.947 -0.1375  1.5673  0.7974
15551SOL    HW247435   4.476   2.371   6.821 -0.8944 -2.3808 -2.0064
15552SOL     OW47436   5.708   2.575   1.168  0.3060 -0.6807 -0.3396
15552SOL    HW147437   5.615   2.593   1.154  0.0281 -1.1366  0.8213
15552SOL    HW247438   5.730   2.511   1.100 -0.7355 -2.0428  0.5469
15553SOL     OW47439   0.622   8.266   6.549 -0.2760  0.0032 -0.2848
15553SOL    HW147440   0.706   8.257   6.595 -0.0943  0.1638 -0.5778
15553SOL    HW247441   0.587   8.349   6.580 -0.8005 -0.5240  0.5832
15554SOL     OW47442   3.285   2.417   5.200 -0.0044 -0.1111  0.2063
15554SOL    HW147443   3.298   2.422   5.105  0.0286 -0.4651  0.1887
15554SOL    HW247444   3.366   2.378   5.233  0.1146  0.3147  0.4172
15555SOL     OW47445   7.480   5.082   6.366 -0.1443 -0.0194  0.2517
15555SOL    HW147446   7.470   5.046   6.455 -1.1823  1.3734  0.7418
15555SOL    HW247447   7.434   5.019   6.310 -0.7940 -0.1597  0.9129
15556SOL     OW47448   2.170   1.592   5.986 -0.3370 -0.2368  0.1033
15556SOL    HW147449   2.104   1.661   5.995 -1.5492 -1.4226  0.6081
15556SOL    HW247450   2.176   1.554   6.073 -0.4465 -1.4352 -0.4044
15557SOL     OW47451   0.599   4.371   4.150  0.2292 -0.3762  0.6329
15557SOL    HW147452   0.586   4.417   4.233 -0.6375  0.4555  0.0533
15557SOL    HW247453   0.632   4.437   4.090 -0.7295 -0.5704 -0.1311
15558SOL     OW47454   4.915   5.396   7.613 -0.0239 -0.4372  0.0950
15558SOL    HW147455   4.972   5.467   7.585 -1.1146  0.7046  0.6515
15558SOL    HW247456   4.857   5.380   7.538  0.9921 -1.6104 -0.4788
15559SOL     OW47457   8.257   7.515   5.465  0.0759 -0.2313 -0.3558
15559SOL    HW147458   8.207   7.502   5.545 -1.0939  2.4519 -0.5572
15559SOL    HW247459   8.206   7.471   5.397 -0.8930  0.6039 -0.1928
15560SOL     OW47460   4.139   0.857   7.395 -0.1274 -0.0420 -0.3954
15560SOL    HW147461   4.107   0.772   7.364  0.7775 -0.4447 -0.2618
15560SOL    HW247462   4.090   0.921   7.344 -0.3673 -0.6573 -0.9539
15561SOL     OW47463   1.140   7.806   1.922  0.4219  0.2687 -0.0061
15561SOL    HW147464   1.110   7.893   1.946  1.4237  0.4809  0.5206
15561SOL    HW247465   1.082   7.779   1.851 -0.7929  0.7861  0.7720
15562SOL     OW47466   6.849   1.734   0.226  0.4208 -0.3456 -0.3223
15562SOL    HW147467   6.893   1.651   0.209 -0.2254 -0.9498  0.8072
15562SOL    HW247468   6.888   1.796   0.164  2.5830 -0.9392  0.3497
15563SOL     OW47469   5.727   2.729   5.157 -0.3759 -0.3547 -0.1776
15563SOL    HW147470   5.681   2.649   5.184  0.6587 -0.9666 -0.1505
15563SOL    HW247471   5.677   2.800   5.197 -0.9057 -1.0352  0.4074
15564SOL     OW47472   0.849   3.170   7.851  0.6230 -0.4079  0.1857
15564SOL    HW147473   0.832   3.173   7.757  0.6475 -1.7161  0.1183
15564SOL    HW247474   0.773   3.213   7.891 -0.0173 -0.9687 -0.3888
15565SOL     OW47475   3.467   6.707   2.355 -0.7515 -0.1884 -0.1404
15565SOL    HW147476   3.433   6.760   2.427 -0.5360  0.6716 -0.6535
15565SOL    HW247477   3.473   6.619   2.391 -0.0450  0.3361  1.0889
15566SOL     OW47478   0.487   2.883   1.487  0.1951  0.1304  0.2772
15566SOL    HW147479   0.519   2.924   1.568 -1.0078 -0.5871  1.1377
15566SOL    HW247480   0.397   2.859   1.506 -0.0175 -0.3230 -1.1950
15567SOL     OW47481   0.965   0.212   7.488  0.3687  0.0396 -0.1231
15567SOL    HW147482   1.002   0.254   7.411  0.9272 -0.0566  0.0935
15567SOL    HW247483   0.950   0.121   7.460 -1.6549  0.5527 -0.8742
15568SOL     OW47484   7.112   6.231   6.738  0.5196 -0.2010  0.6872
15568SOL    HW147485   7.073   6.246   6.652  0.3453  0.8259  0.9247
15568SOL    HW247486   7.206   6.245   6.724  0.7553 -2.0246  0.2550
15569SOL     OW47487   0.520   1.265   1.263 -0.3126 -0.5417 -0.0170
15569SOL    HW147488   0.597   1.321   1.257 -0.0123 -0.8370  0.8498
15569SOL    HW247489   0.555   1.176   1.264 -0.7780 -0.7495 -1.2676
15570SOL     OW47490   2.218   5.189   6.157  0.0793  0.2087 -0.3447
15570SOL    HW147491   2.232   5.169   6.065 -0.1913  0.6659 -0.4874
15570SOL    HW247492   2.206   5.104   6.199 -3.2640  0.0723 -1.2840
15571SOL     OW47493   7.131   5.161   0.959 -0.3768  0.4608 -0.0509
15571SOL    HW147494   7.096   5.081   0.999  0.1292  0.9143  1.3644
15571SOL    HW247495   7.055   5.205   0.922 -1.0190  0.4529  1.2140
15572SOL     OW47496   0.358   7.371   0.503 -0.3262  0.4646  0.2819
15572SOL    HW147497   0.370   7.328   0.588 -1.2054 -0.0064  0.1844
15572SOL    HW247498   0.323   7.302   0.447  1.0814  0.5420 -0.7221
15573SOL     OW47499   6.473   0.092   3.529 -0.2548 -0.1881 -0.1190
15573SOL    HW147500   6.551   0.132   3.489 -0.2317  0.7872  0.8488
15573SOL    HW247501   6.405   0.159   3.521 -0.7752 -0.7309 -0.2523
15574SOL     OW47502   2.582   3.909   2.707  0.4892 -0.5065  0.0842
15574SOL    HW147503   2.591   3.860   2.625 -1.4825  1.1203 -1.2386
15574SOL    HW247504   2.663   3.959   2.714 -0.2144  1.1523 -2.2580
15575SOL     OW47505   2.539   8.055   1.964 -0.6997  0.7241  0.2611
15575SOL    HW147506   2.467   8.093   2.015 -0.8689  0.6033  0.1137
15575SOL    HW247507   2.506   7.969   1.937 -1.0365  1.2434 -1.0044
15576SOL     OW47508   3.333   5.793   7.683 -0.7775  0.3089 -0.4959
15576SOL    HW147509   3.336   5.807   7.778 -1.7400 -1.9862 -0.0607
15576SOL    HW247510   3.400   5.727   7.667 -0.4093  0.9128 -1.4790
15577SOL     OW47511   1.139   2.300   5.544 -0.2406  0.3943 -0.9592
15577SOL    HW147512   1.044   2.310   5.540 -0.5321 -1.4961 -0.1584
15577SOL    HW247513   1.173   2.388   5.559 -1.9700  0.9378  0.0272
15578SOL     OW47514   1.834   5.452   0.173  0.0942  0.0884 -0.2007
15578SOL    HW147515   1.891   5.471   0.247  0.9950  0.7887 -1.0459
15578SOL    HW247516   1.754   5.415   0.212 -0.3284  2.3728  1.2662
15579SOL     OW47517   1.736   4.631   7.145 -0.8134  0.4680 -0.6549
15579SOL    HW147518   1.701   4.677   7.222  1.2653  0.5318  0.3228
15579SOL    HW247519   1.760   4.544   7.178  0.3792  0.5990 -1.1217
15580SOL     OW47520   4.555   4.003   5.665 -0.6795  0.8007 -0.3704
15580SOL    HW147521   4.582   3.913   5.645  1.8657  0.9830  1.7064
15580SOL    HW247522   4.459   3.999   5.668 -0.6663 -1.6985 -0.8275
15581SOL     OW47523   4.324   7.990   1.138 -1.1275 -0.4561  0.0563
15581SOL    HW147524   4.251   7.960   1.193 -0.6466 -0.8199  0.5044
15581SOL    HW247525   4.320   7.933   1.061  0.0932 -2.0846  1.1296
15582SOL     OW47526   5.538   3.004   5.670  0.1378 -0.1407  0.4346
15582SOL    HW147527   5.541   3.068   5.599  1.0310  0.9546  1.4034
15582SOL    HW247528   5.599   2.935   5.643 -1.6286 -1.1807 -1.1107
15583SOL     OW47529   6.199   7.582   2.627 -0.1962 -0.1911 -0.4520
15583SOL    HW147530   6.274   7.531   2.659  0.2862 -0.3420 -1.7900
15583SOL    HW247531   6.207   7.580   2.532 -2.3839 -0.9239 -0.6670
15584SOL     OW47532   2.672   8.321   1.608 -0.1003  0.3550  0.3008
15584SOL    HW147533   2.707   8.233   1.621  0.6786  0.6939  0.5907
15584SOL    HW247534   2.579   8.314   1.631 -0.4721 -0.7802 -1.4080
15585SOL     OW47535   0.509   0.406   6.889  0.1501  0.2221 -0.0761
15585SOL    HW147536   0.452   0.477   6.860 -0.4106 -0.5004 -0.8128
15585SOL    HW247537   0.495   0.400   6.983  0.4618  1.3001  0.0459
15586SOL     OW47538   3.930   4.001   5.248 -0.0776 -0.2671 -0.2610
15586SOL    HW147539   3.963   4.087   5.222 -1.4262  0.0955 -0.8379
15586SOL    HW247540   4.005   3.958   5.290  0.4669  1.3805  0.5256
15587SOL     OW47541   0.551   1.783   7.697  0.3944  0.0341  0.2330
15587SOL    HW147542   0.610   1.814   7.628  0.7106  0.0786  0.5265
15587SOL    HW247543   0.589   1.700   7.725  0.3804  0.1201  0.5032
15588SOL     OW47544   8.202   4.295   3.655 -0.0006  0.3622  0.1732
15588SOL    HW147545   8.113   4.270   3.680 -0.3674 -1.0652 -2.2413
15588SOL    HW247546   8.258   4.234   3.704 -0.4559  0.0227  0.2812
15589SOL     OW47547   4.436   0.392   6.515 -0.3980 -0.4698 -0.6603
15589SOL    HW147548   4.487   0.316   6.485 -0.8298 -0.3803 -1.6489
15589SOL    HW247549   4.501   0.451   6.553 -0.1249 -1.5987  0.7219
15590SOL     OW47550   6.038   0.763   3.859 -0.0381 -0.1401  0.0872
15590SOL    HW147551   6.000   0.720   3.782 -0.1143  0.9081 -0.4856
15590SOL    HW247552   6.114   0.810   3.825 -0.9259  1.5464  0.3547
15591SOL     OW47553   1.361   5.764   1.031 -0.0927 -0.3026  0.1715
15591SOL    HW147554   1.334   5.856   1.034 -1.2664 -0.6204  0.0698
15591SOL    HW247555   1.451   5.764   1.062 -0.0440  0.8926  0.0887
15592SOL     OW47556   2.261   6.949   0.675  0.7701  0.3971 -0.3990
15592SOL    HW147557   2.234   6.898   0.598 -0.7583 -1.3317  1.1722
15592SOL    HW247558   2.195   7.017   0.684  0.2783 -0.1402  0.0598
15593SOL     OW47559   4.827   3.172   1.024  0.4207 -0.0365  0.2221
15593SOL    HW147560   4.792   3.109   0.960 -0.2563 -0.6184  1.1346
15593SOL    HW247561   4.886   3.120   1.079 -1.1921 -0.2446  1.8552
15594SOL     OW47562   0.361   0.161   0.654 -0.2871 -0.5487 -0.2132
15594SOL    HW147563   0.397   0.205   0.577 -0.1195  1.3472  0.8708
15594SOL    HW247564   0.421   0.088   0.670  2.5031  1.7272  0.7401
15595SOL     OW47565   3.609   6.485   0.164 -0.2729  0.6672  0.2884
15595SOL    HW147566   3.639   6.471   0.074  0.4248 -0.3078  0.6582
15595SOL    HW247567   3.606   6.580   0.174  0.2834  0.7843 -0.5583
15596SOL     OW47568   1.495   5.340   5.276 -0.7704  0.1604 -0.1460
15596SOL    HW147569   1.559   5.268   5.283 -0.1543  0.5367 -1.5103
15596SOL    HW247570   1.474   5.362   5.366  1.0303  0.0119  0.3536
15597SOL     OW47571   2.156   0.407   7.440 -0.1777  0.0556  0.2277
15597SOL    HW147572   2.091   0.338   7.455 -1.7834  1.0791 -1.5696
15597SOL    HW247573   2.171   0.406   7.345 -0.2847  2.1613  0.1455
15598SOL     OW47574   4.813   3.721   6.092  0.5738 -0.0956  0.0914
15598SOL    HW147575   4.839   3.795   6.146  0.6036 -0.0406  0.0007
15598SOL    HW247576   4.894   3.671   6.079  0.8599  0.6387 -1.0836
15599SOL     OW47577   7.484   3.419   4.767  0.0380 -0.7440 -0.5730
15599SOL    HW147578   7.543   3.493   4.782  0.4917 -0.4646 -3.3480
15599SOL    HW247579   7.520   3.348   4.821  1.5763  0.0930 -0.4585
15600SOL     OW47580   7.778   4.961   5.664 -0.4788 -0.6152 -0.3817
15600SOL    HW147581   7.740   5.026   5.723 -0.3737  0.4681 -1.4782
15600SOL    HW247582   7.703   4.919   5.623 -0.5339 -0.7161 -0.1807
15601SOL     OW47583   0.917   5.860   1.654  0.2785 -0.1119  0.8102
15601SOL    HW147584   0.851   5.792   1.642  0.6685 -0.5642  1.1997
15601SOL    HW247585   0.885   5.934   1.602  0.8468 -1.2453 -1.2586
15602SOL     OW47586   6.551   2.823   4.122 -0.4040  0.2203 -0.0607
15602SOL    HW147587   6.641   2.832   4.089 -0.3188  0.5183  0.2505
15602SOL    HW247588   6.554   2.862   4.209 -0.3469 -1.5814  0.7754
15603SOL     OW47589   6.295   4.602   5.289  0.2131 -0.1886 -0.5500
15603SOL    HW147590   6.254   4.688   5.301 -0.7859 -0.5076 -1.5408
15603SOL    HW247591   6.341   4.586   5.372  1.2970  1.7445 -0.7210
15604SOL     OW47592   2.430   7.886   2.213 -0.0807  0.1250 -0.0532
15604SOL    HW147593   2.395   7.901   2.301  0.1809  2.7654 -0.3137
15604SOL    HW247594   2.515   7.844   2.228 -0.3724 -0.1658  0.9001
15605SOL     OW47595   5.049   3.029   6.031  0.1697 -0.0366  0.1912
15605SOL    HW147596   5.026   3.100   6.091 -0.7197 -0.8111  0.7842
15605SOL    HW247597   5.129   3.060   5.988 -0.1293  1.2682  0.5191
15606SOL     OW47598   0.220   7.038   0.396 -0.2513  0.0265 -0.1831
15606SOL    HW147599   0.266   6.955   0.382 -0.6501 -0.2299 -0.0004
15606SOL    HW247600   0.215   7.078   0.309 -1.8029 -1.0684 -0.6416
15607SOL     OW47601   5.159   4.095   3.867  0.0759 -0.0549 -0.0384
15607SOL    HW147602   5.117   4.177   3.892  0.7085  0.3960 -0.4123
15607SOL    HW247603   5.095   4.052   3.810  0.0007  0.4967 -0.3818
15608SOL     OW47604   1.657   5.160   4.183  0.2668 -0.5491  0.1603
15608SOL    HW147605   1.563   5.152   4.200  0.3190 -1.3164  0.1180
15608SOL    HW247606   1.687   5.226   4.245 -0.1211 -1.0223  0.8731
15609SOL     OW47607   5.732   5.559   1.185  0.3531  0.3034 -0.1264
15609SOL    HW147608   5.701   5.646   1.213  0.1411  0.3657 -0.5386
15609SOL    HW247609   5.661   5.500   1.209  0.2386  0.3340 -0.3873
15610SOL     OW47610   1.669   7.290   2.951  0.0508  0.0993  0.3089
15610SOL    HW147611   1.748   7.266   2.903 -0.1521 -0.8749  0.4257
15610SOL    HW247612   1.603   7.305   2.883  0.1781  0.3107  0.2323
15611SOL     OW47613   8.202   2.793   7.069  1.0907 -0.1902 -0.4181
15611SOL    HW147614   8.139   2.725   7.045 -1.0336  0.4686  2.7769
15611SOL    HW247615   8.176   2.870   7.019  0.5582 -0.4532 -0.5463
15612SOL     OW47616   2.877   5.222   1.117  0.1030  0.0899  0.1877
15612SOL    HW147617   2.882   5.318   1.117 -1.1333  0.1739  0.8206
15612SOL    HW247618   2.961   5.194   1.155  1.3696  0.8223 -1.9026
15613SOL     OW47619   5.784   3.334   7.840 -0.1792 -0.0328  0.2832
15613SOL    HW147620   5.832   3.262   7.799 -1.3509 -0.7045  0.0453
15613SOL    HW247621   5.833   3.352   7.920  1.3220  0.3287 -0.6521
15614SOL     OW47622   3.461   8.022   5.733  0.2501  0.1707 -0.3660
15614SOL    HW147623   3.553   8.036   5.713  0.0773 -0.5271 -1.7155
15614SOL    HW247624   3.453   7.928   5.746 -0.1804  0.2932  0.3274
15615SOL     OW47625   6.320   7.358   1.251 -0.1020  0.2738  0.1087
15615SOL    HW147626   6.245   7.354   1.192 -1.8341 -1.7286  2.2233
15615SOL    HW247627   6.336   7.451   1.265  0.0193  0.8076 -2.9303
15616SOL     OW47628   8.132   5.624   2.776  0.0597  0.4829  0.5290
15616SOL    HW147629   8.145   5.686   2.847  3.3315 -0.7297  1.1736
15616SOL    HW247630   8.078   5.555   2.815 -0.8794  1.3535  0.8031
15617SOL     OW47631   6.586   1.322   5.055  0.4463  0.0371 -0.0237
15617SOL    HW147632   6.663   1.367   5.021 -1.4287  2.2870 -1.6003
15617SOL    HW247633   6.513   1.383   5.039 -1.5392 -1.4767  2.3989
15618SOL     OW47634   3.435   4.580   2.763 -0.0859 -0.0696 -0.1148
15618SOL    HW147635   3.524   4.560   2.733 -0.0417  1.1218 -0.8374
15618SOL    HW247636   3.442   4.665   2.806 -0.5965 -0.6947  1.2835
15619SOL     OW47637   4.681   6.567   1.108 -0.1208 -0.2863  0.5415
15619SOL    HW147638   4.630   6.640   1.144 -1.3721 -2.1714  2.8731
15619SOL    HW247639   4.625   6.529   1.041  1.1704  1.7044 -1.8122
15620SOL     OW47640   6.796   5.735   1.825  0.3362  0.2113 -1.5118
15620SOL    HW147641   6.883   5.727   1.785  0.3892  1.7284 -1.7571
15620SOL    HW247642   6.782   5.651   1.869  3.1928  0.9126  1.0896
15621SOL     OW47643   0.055   5.077   2.928  0.4295  0.4724 -0.0585
15621SOL    HW147644   0.043   5.128   3.008  0.8868  0.1956  0.1881
15621SOL    HW247645  -0.022   5.097   2.875 -0.2145  0.1278  0.7348
15622SOL     OW47646   1.966   0.636   0.433 -0.4758 -0.3366 -0.2207
15622SOL    HW147647   1.904   0.660   0.501 -2.2048 -0.2221 -1.7563
15622SOL    HW247648   1.951   0.543   0.419 -1.3236 -0.0296 -1.5347
15623SOL     OW47649   1.237   2.544   5.536 -0.0261 -0.3949 -0.0626
15623SOL    HW147650   1.304   2.582   5.593 -0.0802 -1.4318  0.7125
15623SOL    HW247651   1.258   2.578   5.449 -0.5564  2.0744  0.6820
15624SOL     OW47652   3.930   5.774   3.414  0.3063 -0.6459 -0.3933
15624SOL    HW147653   3.958   5.683   3.422  0.9234 -0.4846 -0.6675
15624SOL    HW247654   3.930   5.807   3.504 -2.0692 -1.5162  0.0021
15625SOL     OW47655   7.606   5.447   6.072 -0.0231 -0.1304  0.0768
15625SOL    HW147656   7.629   5.354   6.065  2.0414  0.2390  1.3400
15625SOL    HW247657   7.535   5.449   6.136 -0.6042 -0.8762 -0.5102
15626SOL     OW47658   5.267   6.910   7.999  0.5077  0.0128  0.3407
15626SOL    HW147659   5.356   6.941   7.982  0.1153  1.0143  0.0158
15626SOL    HW247660   5.276   6.816   8.012  1.4864 -0.0697 -0.7278
15627SOL     OW47661   7.881   2.169   7.086 -0.0788  0.2556 -0.4674
15627SOL    HW147662   7.893   2.097   7.024  0.0383  1.2473 -1.6332
15627SOL    HW247663   7.931   2.143   7.162 -0.8722 -1.3728 -0.4403
15628SOL     OW47664   6.312   2.856   5.772 -1.1651 -0.1011 -0.2117
15628SOL    HW147665   6.298   2.931   5.714  2.3655  0.5385 -0.4545
15628SOL    HW247666   6.319   2.781   5.714 -0.9697  0.0014 -0.3215
15629SOL     OW47667   6.013   1.062   4.893 -0.6854  0.4219 -0.1668
15629SOL    HW147668   6.071   0.999   4.850 -0.4155  0.7160 -0.2405
15629SOL    HW247669   5.931   1.014   4.906  0.2915 -0.7774  2.0403
15630SOL     OW47670   6.246   4.263   4.420  0.0353 -0.5623 -0.2109
15630SOL    HW147671   6.248   4.276   4.515 -0.1106  1.5705 -0.4555
15630SOL    HW247672   6.338   4.255   4.396  0.1397  0.0601 -0.0251
15631SOL     OW47673   3.569   5.591   7.009 -1.0391 -0.1643 -0.1042
15631SOL    HW147674   3.520   5.606   7.089  0.5828 -0.2753  0.9605
15631SOL    HW247675   3.566   5.674   6.962  0.5237  0.8921  1.5486
15632SOL     OW47676   2.182   0.482   1.468  0.2587 -0.1372 -0.0279
15632SOL    HW147677   2.166   0.388   1.478  1.2145 -0.3665 -0.5828
15632SOL    HW247678   2.249   0.502   1.532  0.9135 -0.0855 -0.7122
15633SOL     OW47679   7.816   1.132   7.135 -0.0642 -0.4727  0.2473
15633SOL    HW147680   7.884   1.193   7.165  0.2100 -0.7604  0.2196
15633SOL    HW247681   7.742   1.188   7.112  0.1361 -0.1602  0.3514
15634SOL     OW47682   7.875   7.130   5.706 -0.3244 -0.3019 -0.0321
15634SOL    HW147683   7.815   7.111   5.634 -0.7548  0.0651  0.2234
15634SOL    HW247684   7.877   7.049   5.757  1.3369 -1.1821 -1.3822
15635SOL     OW47685   4.665   6.872   2.067  0.0849 -0.3087  0.4885
15635SOL    HW147686   4.684   6.829   1.984 -0.3105 -2.2579  1.3447
15635SOL    HW247687   4.596   6.819   2.106  0.1301  0.6728  1.9705
15636SOL     OW47688   2.321   5.569   1.474  0.3009 -0.1350  0.3718
15636SOL    HW147689   2.400   5.537   1.517  1.4603  1.4742 -0.4370
15636SOL    HW247690   2.305   5.655   1.514 -0.7240 -0.2137  0.1492
15637SOL     OW47691   7.310   0.235   6.649 -0.7785  0.2926 -0.3994
15637SOL    HW147692   7.375   0.280   6.703  1.5392 -0.2551 -2.5745
15637SOL    HW247693   7.239   0.298   6.640  1.1694  2.5316 -1.1235
15638SOL     OW47694   5.861   3.571   0.192  0.6048 -0.1645  0.2606
15638SOL    HW147695   5.811   3.507   0.142 -0.5753 -1.2339  2.6679
15638SOL    HW247696   5.935   3.523   0.227  1.6101  0.6536 -0.6726
15639SOL     OW47697   0.406   2.770   4.127 -0.3710 -0.6691  0.4153
15639SOL    HW147698   0.372   2.856   4.102 -0.6846 -0.8952  0.0380
15639SOL    HW247699   0.365   2.710   4.065  1.9786 -0.7875 -1.1441
15640SOL     OW47700   3.942   6.983   0.358  0.0776  0.4040  0.1265
15640SOL    HW147701   3.993   6.902   0.367  0.3485  0.6449  0.8240
15640SOL    HW247702   3.946   7.003   0.264 -0.6725 -0.8204 -0.1838
15641SOL     OW47703   0.983   3.041   1.664  0.4730  0.1800 -0.1742
15641SOL    HW147704   0.945   3.103   1.725 -0.5272  0.2684 -0.8651
15641SOL    HW247705   0.919   2.970   1.659  1.0900 -0.3827 -0.2362
15642SOL     OW47706   7.657   6.315   0.369  0.6602  0.2319  0.0945
15642SOL    HW147707   7.572   6.273   0.368  0.8622 -0.2349 -1.9781
15642SOL    HW247708   7.639   6.406   0.395 -0.4734  0.1524 -0.3882
15643SOL     OW47709   4.596   6.845   6.173 -0.5139 -0.1580 -0.4028
15643SOL    HW147710   4.525   6.787   6.200 -0.7508 -0.1574 -1.0204
15643SOL    HW247711   4.654   6.790   6.121 -0.6691  0.1255 -0.8778
15644SOL     OW47712   6.084   4.031   4.565  0.7075 -0.3367 -0.3617
15644SOL    HW147713   6.036   3.977   4.502 -0.1766  1.1332 -1.0009
15644SOL    HW247714   6.113   4.106   4.515  1.7390 -0.0931  0.5598
15645SOL     OW47715   6.222   1.349   5.214 -0.0480  0.3374  0.2421
15645SOL    HW147716   6.237   1.255   5.208  0.5551  0.4868 -0.8489
15645SOL    HW247717   6.150   1.366   5.153  0.4483  0.7019 -0.2536
15646SOL     OW47718   7.620   6.727   6.525 -0.2306  0.0124  0.1728
15646SOL    HW147719   7.656   6.670   6.457 -1.6181 -0.8053  0.0740
15646SOL    HW247720   7.674   6.709   6.602  0.3297 -0.2840 -0.2814
15647SOL     OW47721   7.345   7.524   3.718  0.0589  0.7632 -0.1281
15647SOL    HW147722   7.432   7.494   3.746  0.6771  0.0975 -2.5269
15647SOL    HW247723   7.358   7.616   3.694 -0.0950  0.8987  0.3117
15648SOL     OW47724   5.700   7.893   7.120 -0.0623  0.0712 -0.3045
15648SOL    HW147725   5.724   7.827   7.055 -1.0766  0.2485 -0.8855
15648SOL    HW247726   5.611   7.868   7.147  0.1706  0.2659  0.6849
15649SOL     OW47727   6.404   5.033   6.784  0.1341 -0.0910  0.5059
15649SOL    HW147728   6.463   4.967   6.820  0.4785 -1.1911 -1.8405
15649SOL    HW247729   6.332   4.982   6.746  0.0900  0.8955 -0.8102
15650SOL     OW47730   7.868   3.990   4.724  0.2395  0.4729 -0.3837
15650SOL    HW147731   7.773   4.000   4.719  0.3537  1.0558 -1.6768
15650SOL    HW247732   7.903   4.078   4.709  0.9828  0.4039  0.8074
15651SOL     OW47733   5.338   5.696   2.957  0.2876 -0.0403 -0.9150
15651SOL    HW147734   5.357   5.785   2.988 -1.6918  0.3059 -0.5721
15651SOL    HW247735   5.406   5.642   2.998  1.1885  1.2173 -0.6791
15652SOL     OW47736   3.047   3.414   3.477 -0.2965  0.2465  0.5176
15652SOL    HW147737   3.059   3.322   3.502  1.4602  0.2016 -0.3285
15652SOL    HW247738   3.132   3.455   3.494 -1.0250  1.7056  0.8009
15653SOL     OW47739   1.187   3.735   8.018 -0.1792  0.1476  0.7166
15653SOL    HW147740   1.095   3.733   8.045 -0.4537  2.1272  0.0177
15653SOL    HW247741   1.229   3.794   8.081  0.6701 -0.8433  1.1104
15654SOL     OW47742   4.548   1.756   7.774 -0.0088  0.4045 -0.6698
15654SOL    HW147743   4.592   1.813   7.837  0.9576 -0.1075 -0.8770
15654SOL    HW247744   4.618   1.710   7.729 -0.7693 -1.3060 -0.1898
15655SOL     OW47745   1.623   0.324   4.449  0.8477 -0.2715 -0.0705
15655SOL    HW147746   1.589   0.411   4.427 -2.8737 -1.2220  1.0609
15655SOL    HW247747   1.600   0.270   4.373  2.3191 -0.4944 -0.3840
15656SOL     OW47748   4.923   4.573   2.917 -0.1852 -0.2697  0.4766
15656SOL    HW147749   4.964   4.506   2.863 -0.4281 -1.4490  1.7192
15656SOL    HW247750   4.935   4.654   2.867  3.6819 -0.4916  0.7780
15657SOL     OW47751   5.638   4.417   0.619 -0.1140  0.0674 -0.3608
15657SOL    HW147752   5.726   4.388   0.645 -0.9048 -1.2092  1.0352
15657SOL    HW247753   5.608   4.471   0.693 -1.2915 -1.2544  0.1815
15658SOL     OW47754   2.791   4.502   7.549  0.2115 -0.1599  0.3206
15658SOL    HW147755   2.830   4.587   7.568 -0.4097 -0.2127  2.0228
15658SOL    HW247756   2.837   4.440   7.606 -2.0870 -0.2562  2.2429
15659SOL     OW47757   1.517   3.825   3.720  0.5251 -0.2046  0.3761
15659SOL    HW147758   1.601   3.869   3.705 -0.3355  1.2088 -0.6193
15659SOL    HW247759   1.540   3.733   3.734  2.2149  0.1103 -0.0948
15660SOL     OW47760   0.101   5.849   1.972  0.1640  0.2856 -0.2682
15660SOL    HW147761   0.041   5.877   1.904  1.2212  1.7102 -0.6547
15660SOL    HW247762   0.080   5.904   2.047  0.9579  0.7924 -0.4051
15661SOL     OW47763   4.556   1.004   4.870  0.1736 -0.9226  0.1391
15661SOL    HW147764   4.578   0.995   4.778  1.9009 -0.4860  0.4733
15661SOL    HW247765   4.623   1.062   4.906  0.0778 -1.7749  1.8471
15662SOL     OW47766   5.259   4.063   5.771 -0.1282 -0.0014 -0.4396
15662SOL    HW147767   5.243   4.145   5.818  0.7582 -1.1283  2.0402
15662SOL    HW247768   5.179   4.013   5.783 -0.7251  0.4969 -2.0779
15663SOL     OW47769   0.713   2.089   6.516 -0.0280 -0.3243 -0.4494
15663SOL    HW147770   0.682   2.015   6.464  0.1339  0.4441 -1.6986
15663SOL    HW247771   0.774   2.135   6.457 -0.4486  1.0199  0.1391
15664SOL     OW47772   8.012   0.468   4.303 -0.0068  0.1444  0.2248
15664SOL    HW147773   8.032   0.499   4.214 -0.5556 -2.3747 -0.8564
15664SOL    HW247774   8.007   0.548   4.355 -3.1428  2.1443 -2.6837
15665SOL     OW47775   2.798   3.838   7.447  0.0608 -0.8787  0.0207
15665SOL    HW147776   2.768   3.813   7.534 -0.7272 -0.5700 -0.1469
15665SOL    HW247777   2.893   3.838   7.453  0.0108 -0.3201  1.0437
15666SOL     OW47778   5.038   5.265   6.199  0.4662 -0.1614  0.1732
15666SOL    HW147779   5.053   5.188   6.144 -0.4674  0.9142 -1.6825
15666SOL    HW247780   4.950   5.252   6.234 -1.0165  1.3459 -2.5962
15667SOL     OW47781   3.884   3.537   3.558  0.1574 -0.1793 -0.0052
15667SOL    HW147782   3.948   3.608   3.554  2.8290 -2.4837 -1.2430
15667SOL    HW247783   3.898   3.496   3.643 -0.1568 -0.3007 -0.0118
15668SOL     OW47784   1.098   4.826   6.345  0.1314 -0.0586  0.1308
15668SOL    HW147785   1.131   4.863   6.263  2.0101  1.0066  1.2782
15668SOL    HW247786   1.061   4.901   6.392 -2.1636 -0.8914 -0.2458
15669SOL     OW47787   6.445   6.245   2.621  0.1043  0.2422 -0.2521
15669SOL    HW147788   6.443   6.277   2.531 -0.3116 -2.3635 -1.2489
15669SOL    HW247789   6.537   6.244   2.645  0.2757  0.3132 -0.9062
15670SOL     OW47790   6.763   2.376   6.310  0.5605  0.0917  0.4691
15670SOL    HW147791   6.808   2.341   6.387 -0.3567 -1.6473  0.2557
15670SOL    HW247792   6.670   2.372   6.333  0.3389  0.5743 -0.3197
15671SOL     OW47793   6.872   5.258   6.608 -0.7703 -0.8179 -0.1244
15671SOL    HW147794   6.813   5.220   6.543 -1.0762  0.9460 -0.9220
15671SOL    HW247795   6.821   5.329   6.648  0.2849 -0.2597  0.2611
15672SOL     OW47796   1.577   1.473   4.982 -0.1692  0.0819  0.3830
15672SOL    HW147797   1.488   1.502   4.963 -0.5261  0.4668  2.3447
15672SOL    HW247798   1.586   1.485   5.077  1.0747 -2.4013  0.6595
15673SOL     OW47799   5.637   7.635   3.364  0.1413  0.1082 -0.1965
15673SOL    HW147800   5.548   7.651   3.333  0.0186 -1.8740 -1.0546
15673SOL    HW247801   5.689   7.624   3.284  0.7880 -0.4615  0.2800
15674SOL     OW47802   1.955   1.138   0.098  0.3711  0.0119 -0.1701
15674SOL    HW147803   2.043   1.133   0.059  0.7009 -3.0169  0.7110
15674SOL    HW247804   1.897   1.110   0.027  0.5140 -1.2617  0.1932
15675SOL     OW47805   8.293   2.019   5.687 -0.3078 -0.0640 -0.6494
15675SOL    HW147806   8.274   2.025   5.594  0.7608  0.5236 -0.8430
15675SOL    HW247807   8.342   1.937   5.696 -3.5871 -2.1608  0.0088
15676SOL     OW47808   7.083   7.384   4.883  0.6841 -0.0619  0.6969
15676SOL    HW147809   7.109   7.465   4.840  1.0611 -0.8886 -0.6702
15676SOL    HW247810   7.040   7.413   4.964  1.6521  1.4617  0.6987
15677SOL     OW47811   2.619   8.301   3.809 -0.1624  0.2875  0.6067
15677SOL    HW147812   2.644   8.348   3.730 -2.7233  2.1641  0.7941
15677SOL    HW247813   2.667   8.345   3.879 -0.0104  0.4627  0.3942
15678SOL     OW47814   3.472   4.569   0.042  0.5292  0.4976 -0.1606
15678SOL    HW147815   3.549   4.572  -0.014  0.8953  0.9213  0.3533
15678SOL    HW247816   3.462   4.659   0.074 -0.3850  0.5318 -0.4982
15679SOL     OW47817   1.758   6.209   7.260 -0.3070  0.1896 -0.1005
15679SOL    HW147818   1.699   6.280   7.236  1.4002  1.6883 -0.1449
15679SOL    HW247819   1.839   6.228   7.212 -0.3876 -2.9572 -1.7509
15680SOL     OW47820   6.451   0.756   5.111 -0.0537  0.1442  0.2605
15680SOL    HW147821   6.458   0.832   5.168 -0.9313  0.1949  0.3161
15680SOL    HW247822   6.395   0.695   5.159 -2.0160  0.7576 -1.0810
15681SOL     OW47823   3.341   2.840   5.137 -0.4636 -0.3483  0.3158
15681SOL    HW147824   3.290   2.838   5.055  0.5871  0.1993 -0.3707
15681SOL    HW247825   3.308   2.917   5.183  2.2125  2.3115 -1.8435
15682SOL     OW47826   2.955   1.024   2.742  0.0768 -0.4356  0.2312
15682SOL    HW147827   2.949   1.118   2.726  2.2676  0.0143  1.6896
15682SOL    HW247828   2.884   1.006   2.804  0.7360  0.6353  1.3357
15683SOL     OW47829   8.076   2.529   4.284 -0.3220 -0.1083 -0.1720
15683SOL    HW147830   8.137   2.532   4.357 -1.5704  0.2884  0.8765
15683SOL    HW247831   8.132   2.513   4.207  0.9010 -1.5890  0.9678
15684SOL     OW47832   5.815   5.099   3.474  0.2268  0.2970 -0.6751
15684SOL    HW147833   5.724   5.075   3.457  0.1374  0.5576 -0.5574
15684SOL    HW247834   5.865   5.054   3.404  0.0442 -0.1039 -0.5506
15685SOL     OW47835   0.951   2.502   4.603  0.2707  0.5331 -0.2845
15685SOL    HW147836   0.987   2.591   4.602 -0.9893  1.2704  3.2493
15685SOL    HW247837   0.856   2.514   4.606  0.1020 -0.7553  2.0577
15686SOL     OW47838   1.033   0.275   2.832 -0.3511 -0.2196 -0.4732
15686SOL    HW147839   1.045   0.346   2.769  1.7257  0.4848  0.5931
15686SOL    HW247840   1.051   0.195   2.783 -1.0556  0.1232 -1.2973
15687SOL     OW47841   6.562   7.196   7.658 -0.0676 -0.0768 -0.3758
15687SOL    HW147842   6.494   7.131   7.677 -1.0275  1.0859  0.3067
15687SOL    HW247843   6.591   7.176   7.569 -0.3710 -1.3946 -0.1941
15688SOL     OW47844   0.659   6.438   6.249  0.0159 -0.4835  0.0500
15688SOL    HW147845   0.671   6.499   6.322  1.7384 -0.3045 -0.3386
15688SOL    HW247846   0.627   6.357   6.289  0.5032 -0.2413  0.9436
15689SOL     OW47847   3.208   2.274   4.249  0.2467 -0.2213  0.4703
15689SOL    HW147848   3.264   2.338   4.293  0.7270  1.0737 -1.8467
15689SOL    HW247849   3.124   2.280   4.294  0.2411  2.1751  0.2602
15690SOL     OW47850   5.052   5.602   4.885 -0.6195 -0.4888 -0.7444
15690SOL    HW147851   5.066   5.511   4.858 -2.5737 -0.0065 -3.9888
15690SOL    HW247852   5.062   5.653   4.804  2.1863  2.5192  1.2336
15691SOL     OW47853   4.729   3.804   2.627  0.0453 -0.4499  0.5043
15691SOL    HW147854   4.801   3.854   2.667 -0.6028  0.2581  0.8019
15691SOL    HW247855   4.753   3.712   2.642  0.7215 -0.2225  0.8969
15692SOL     OW47856   0.352   2.027   0.705  0.5944  0.0119 -0.0361
15692SOL    HW147857   0.441   2.001   0.679  0.5921 -2.9423  2.4247
15692SOL    HW247858   0.295   1.961   0.665 -0.4911  1.3912 -0.8766
15693SOL     OW47859   1.075   4.893   4.046 -0.1589  0.2783  0.2871
15693SOL    HW147860   1.038   4.808   4.024  0.0130  0.7619 -2.1646
15693SOL    HW247861   1.054   4.948   3.971 -0.8444  2.6212  2.0839
15694SOL     OW47862   5.928   6.805   2.040 -0.2770  0.3696  0.0510
15694SOL    HW147863   6.007   6.855   2.023 -1.2986  2.0638  0.0862
15694SOL    HW247864   5.863   6.870   2.065 -2.0545 -0.8223 -1.2281
15695SOL     OW47865   5.928   0.788   8.204 -0.0864 -0.3908  0.2191
15695SOL    HW147866   5.998   0.805   8.141 -1.6412 -0.4539 -1.6277
15695SOL    HW247867   5.904   0.874   8.237  0.5628 -0.3256  0.5395
15696SOL     OW47868   5.555   2.852   6.370  0.0132  0.2353 -0.1936
15696SOL    HW147869   5.603   2.927   6.405 -1.4968  1.4409 -0.5771
15696SOL    HW247870   5.475   2.848   6.423  0.4638 -1.6918  0.4137
15697SOL     OW47871   4.909   3.534   7.713  0.4216 -0.0892 -0.3844
15697SOL    HW147872   4.910   3.480   7.634  1.3672  0.7991 -1.0074
15697SOL    HW247873   4.981   3.596   7.701  0.2699  0.3855  0.9573
15698SOL     OW47874   5.193   6.349   6.644  0.1115 -0.3381 -0.5796
15698SOL    HW147875   5.279   6.379   6.617 -0.5335  2.0197 -0.2017
15698SOL    HW247876   5.144   6.336   6.563  0.6841 -1.3700 -0.7781
15699SOL     OW47877   5.282   2.319   5.079 -0.4400 -0.1078  0.1545
15699SOL    HW147878   5.212   2.272   5.034 -1.4418 -0.0930  1.5930
15699SOL    HW247879   5.247   2.335   5.167  1.0527  0.6636  0.6529
15700SOL     OW47880   6.067   4.887   8.042 -0.2569 -0.1256  0.4486
15700SOL    HW147881   6.155   4.914   8.067  0.2599  1.0333 -2.3023
15700SOL    HW247882   6.073   4.791   8.033  1.0150  0.0248 -0.5910
15701SOL     OW47883   4.323   3.730   0.149 -0.0585  0.3846 -0.2776
15701SOL    HW147884   4.231   3.726   0.127  0.0810 -1.2899 -0.6589
15701SOL    HW247885   4.361   3.792   0.087 -0.9832  1.4414  0.1875
15702SOL     OW47886   0.296   3.192   2.697  0.3004  0.0736  0.1878
15702SOL    HW147887   0.317   3.267   2.752 -0.1397  1.7695 -1.8521
15702SOL    HW247888   0.202   3.200   2.679  0.4958 -0.2686 -1.0502
15703SOL     OW47889   2.825   2.718   0.986  0.0231  0.1579 -0.1193
15703SOL    HW147890   2.748   2.701   0.933  0.5666  1.0179 -1.2397
15703SOL    HW247891   2.881   2.641   0.973  1.1849  1.2915 -2.7939
15704SOL     OW47892   5.649   6.419   3.723 -0.5403  0.1143  0.8165
15704SOL    HW147893   5.562   6.455   3.706  0.3986  1.6686 -1.0692
15704SOL    HW247894   5.709   6.477   3.676  1.4917 -1.2402  1.5864
15705SOL     OW47895   5.339   3.271   0.505 -0.3041  0.4491 -0.3345
15705SOL    HW147896   5.260   3.256   0.558 -0.5176  0.0350 -0.7560
15705SOL    HW247897   5.350   3.366   0.504 -0.5499  0.4847  0.0861
15706SOL     OW47898   4.842   4.510   0.813 -0.3286  0.1060  0.0278
15706SOL    HW147899   4.876   4.573   0.877 -2.2264  0.5380  0.6838
15706SOL    HW247900   4.781   4.561   0.759  0.6096 -0.4488 -1.6296
15707SOL     OW47901   4.573   6.744   0.498 -0.3346  0.3530 -0.7595
15707SOL    HW147902   4.552   6.808   0.431  3.0156  2.2856 -0.1779
15707SOL    HW247903   4.655   6.704   0.469 -1.0957 -2.0167  0.0925
15708SOL     OW47904   2.986   8.059   1.706 -0.2428 -0.1298 -0.1000
15708SOL    HW147905   3.015   7.980   1.750  1.4872  0.8835  0.6673
15708SOL    HW247906   2.900   8.078   1.744 -0.5983 -1.5132 -0.1748
15709SOL     OW47907   8.249   4.618   6.896 -0.4538 -0.3530  0.6750
15709SOL    HW147908   8.167   4.591   6.938 -0.7433 -0.7948 -0.1452
15709SOL    HW247909   8.245   4.578   6.809  0.7042 -0.4907  0.6776
15710SOL     OW47910   6.670   1.310   3.090 -0.3671 -0.0763  0.3149
15710SOL    HW147911   6.665   1.219   3.121  0.2794  0.4715  2.1850
15710SOL    HW247912   6.764   1.325   3.075 -0.5727 -0.0177 -1.0646
15711SOL     OW47913   7.753   4.865   7.836 -0.3587  0.0409 -0.0009
15711SOL    HW147914   7.795   4.867   7.750 -0.5774  0.0147 -0.1100
15711SOL    HW247915   7.769   4.776   7.869 -1.0083 -0.2232 -0.3865
15712SOL     OW47916   1.665   2.979   5.453  0.0406 -0.5533 -0.2519
15712SOL    HW147917   1.738   3.001   5.511 -1.6459  0.6421  1.5387
15712SOL    HW247918   1.656   2.884   5.460 -0.1065 -0.4387  1.4776
15713SOL     OW47919   4.856   6.647   3.802 -0.3125 -0.0997 -0.2150
15713SOL    HW147920   4.871   6.670   3.710 -0.4215  2.3158  0.3071
15713SOL    HW247921   4.760   6.647   3.810 -0.2926  0.5476  0.0721
15714SOL     OW47922   4.579   1.498   2.610  0.6219  0.5532  0.5831
15714SOL    HW147923   4.622   1.581   2.629  0.1460  0.6435  1.2947
15714SOL    HW247924   4.489   1.522   2.589  0.8884  0.3696 -0.9337
15715SOL     OW47925   4.358   0.772   0.655 -0.1340 -0.0155  0.0832
15715SOL    HW147926   4.432   0.725   0.695 -0.9363 -2.2700 -0.9373
15715SOL    HW247927   4.292   0.705   0.641 -1.2542  1.3853 -1.7543
15716SOL     OW47928   5.159   0.157   5.023  0.5144  0.1299 -0.2341
15716SOL    HW147929   5.188   0.093   4.958 -0.2269 -0.1938 -0.2635
15716SOL    HW247930   5.129   0.104   5.097 -0.0559  0.4437 -0.2356
15717SOL     OW47931   6.917   4.126   6.625 -0.0198  0.7100  0.3415
15717SOL    HW147932   6.885   4.062   6.561  0.4111  0.7063  0.1285
15717SOL    HW247933   6.875   4.208   6.600  1.3903  1.0764 -0.9459
15718SOL     OW47934   3.501   3.892   4.528  0.0541 -0.0319  0.4153
15718SOL    HW147935   3.587   3.900   4.569 -0.0974  1.5244  0.4893
15718SOL    HW247936   3.519   3.901   4.434  0.0126 -0.0473  0.4060
15719SOL     OW47937   0.047   1.520   1.827 -0.5745 -0.3495  0.0551
15719SOL    HW147938   0.139   1.540   1.810 -0.6091  0.4006  0.7282
15719SOL    HW247939   0.050   1.440   1.879 -0.2354  0.3923  1.2034
15720SOL     OW47940   5.027   7.140   7.170  0.0930 -0.4160 -0.1624
15720SOL    HW147941   4.946   7.190   7.168  0.6976  0.6601  0.8450
15720SOL    HW247942   5.078   7.180   7.240  2.2083  0.1121 -1.8769
15721SOL     OW47943   5.526   2.429   1.633 -0.2819 -0.1723  0.0687
15721SOL    HW147944   5.587   2.455   1.565 -0.3636  1.3824  0.5510
15721SOL    HW247945   5.439   2.445   1.596 -0.3601 -0.6676  0.0323
15722SOL     OW47946   7.232   8.132   4.651  0.5262  0.3554  0.0814
15722SOL    HW147947   7.307   8.079   4.679  0.1833  0.7170  1.7909
15722SOL    HW247948   7.250   8.152   4.559  1.0267 -2.0677 -0.4122
15723SOL     OW47949   5.445   8.251   2.517 -0.1830  0.1142 -0.5720
15723SOL    HW147950   5.539   8.244   2.496 -0.3580 -1.1254 -1.0030
15723SOL    HW247951   5.402   8.195   2.452 -1.2018  0.4111 -0.1666
15724SOL     OW47952   7.751   0.042   7.838  0.0541  0.6258 -0.5879
15724SOL    HW147953   7.844   0.058   7.821  0.1567  0.3291 -0.3116
15724SOL    HW247954   7.739   0.066   7.930 -0.6265  2.7924 -1.1784
15725SOL     OW47955   3.513   5.190   3.111  0.5135  0.2236 -0.1411
15725SOL    HW147956   3.464   5.222   3.187  0.0188  0.3287 -0.5066
15725SOL    HW247957   3.556   5.268   3.076 -0.2559  0.4006 -0.7071
15726SOL     OW47958   2.970   4.033   4.259  0.2940 -0.1325 -0.1851
15726SOL    HW147959   3.045   3.997   4.306 -0.1192 -2.0469 -0.9228
15726SOL    HW247960   2.988   4.127   4.255  2.6933 -0.5380 -0.4158
15727SOL     OW47961   3.505   6.190   3.637 -0.1456 -0.3330  0.0286
15727SOL    HW147962   3.440   6.217   3.702  0.5878 -0.9721  1.0449
15727SOL    HW247963   3.499   6.095   3.636 -1.6007 -0.3163 -2.3786
15728SOL     OW47964   7.050   0.362   0.534  0.0820  0.4939  0.1314
15728SOL    HW147965   7.082   0.273   0.553  2.4944  1.4953  1.2425
15728SOL    HW247966   6.969   0.369   0.583  0.7166 -0.5853  1.4044
15729SOL     OW47967   0.896   7.509   7.071  0.1506  0.4690  0.0479
15729SOL    HW147968   0.861   7.532   7.157  0.5044  3.2571 -0.4851
15729SOL    HW247969   0.824   7.524   7.010  0.6575  0.9634 -0.4357
15730SOL     OW47970   1.430   1.215   6.559  0.5113  0.4223  0.5574
15730SOL    HW147971   1.361   1.222   6.493 -1.5469  1.5148  2.6526
15730SOL    HW247972   1.446   1.306   6.586  0.5244 -0.0494  2.2513
15731SOL     OW47973   0.816   0.147   4.445 -0.1431 -0.5985 -0.6548
15731SOL    HW147974   0.830   0.148   4.351 -1.2410 -0.8383 -0.8326
15731SOL    HW247975   0.834   0.057   4.471 -0.3586 -0.6603 -0.7197
15732SOL     OW47976   3.609   5.111   1.837  0.2273  0.5094 -0.0491
15732SOL    HW147977   3.602   5.180   1.903  1.5301 -0.4854  1.1853
15732SOL    HW247978   3.542   5.047   1.862  1.0814 -0.1298  0.6844
15733SOL     OW47979   6.022   4.405   4.607 -0.1854 -0.2833 -0.1742
15733SOL    HW147980   5.980   4.401   4.522  0.0106 -2.6259 -0.2286
15733SOL    HW247981   6.101   4.456   4.592 -0.8421  0.4990 -1.0678
15734SOL     OW47982   5.451   8.292   2.120  0.2049 -0.0390 -0.1408
15734SOL    HW147983   5.407   8.218   2.161  0.3488 -1.2486 -2.0241
15734SOL    HW247984   5.403   8.306   2.038 -0.1515  2.3403  0.4056
15735SOL     OW47985   1.596   4.412   7.622 -0.0911 -0.1971 -0.2352
15735SOL    HW147986   1.532   4.348   7.654 -0.3869 -0.5996 -1.5728
15735SOL    HW247987   1.546   4.466   7.560  1.0640 -1.1085 -2.0224
15736SOL     OW47988   8.063   2.518   4.682  0.0820  0.2844  0.0029
15736SOL    HW147989   8.108   2.512   4.598 -0.4217  0.3833 -0.2782
15736SOL    HW247990   7.989   2.577   4.666  0.7378  1.3693  0.8596
15737SOL     OW47991   5.425   1.731   6.731 -0.5961 -0.3572  0.0222
15737SOL    HW147992   5.408   1.782   6.652 -0.2642  0.7256  0.6116
15737SOL    HW247993   5.474   1.791   6.788  1.2340 -1.8711  0.1422
15738SOL     OW47994   6.678   3.146   2.176  0.2462  0.0134 -0.7326
15738SOL    HW147995   6.632   3.168   2.257  0.7144  0.2396 -0.5200
15738SOL    HW247996   6.621   3.178   2.106  0.4850  1.0939 -0.4565
15739SOL     OW47997   3.122   1.341   0.349  0.2815  0.1253 -0.0137
15739SOL    HW147998   3.138   1.301   0.264 -1.8981  0.1573 -0.5003
15739SOL    HW247999   3.209   1.358   0.385  1.2453 -1.2234 -1.5898
15740SOL     OW48000   1.207   1.961   5.134 -0.0084 -0.0929  0.3591
15740SOL    HW148001   1.256   1.892   5.089  1.6105 -1.2593  3.6033
15740SOL    HW248002   1.256   2.041   5.116  0.9929 -0.6452  0.5696
15741SOL     OW48003   8.200   5.700   5.603 -0.1981  0.6985 -0.4184
15741SOL    HW148004   8.155   5.755   5.667  0.4523  2.2520 -1.2541
15741SOL    HW248005   8.129   5.657   5.555 -0.7041 -0.8956  1.5769
15742SOL     OW48006   1.180   4.082   6.783  0.2208  0.5202  0.0931
15742SOL    HW148007   1.208   4.152   6.843 -1.4191  0.6676  0.7367
15742SOL    HW248008   1.123   4.026   6.836 -0.4941  0.0963 -1.0794
15743SOL     OW48009   3.531   3.651   2.807  0.2247  0.2862  0.3287
15743SOL    HW148010   3.453   3.669   2.754 -0.1688  0.2497  0.8827
15743SOL    HW248011   3.509   3.569   2.853  0.9418 -0.1970 -0.1762
15744SOL     OW48012   0.160   4.606   4.985  0.0131  0.3305  0.0311
15744SOL    HW148013   0.085   4.627   5.041 -0.3396 -0.5077 -0.1200
15744SOL    HW248014   0.166   4.510   4.988 -0.8429  0.1404 -2.4193
15745SOL     OW48015   6.599   7.687   5.245 -0.0168 -0.7501 -0.5992
15745SOL    HW148016   6.540   7.718   5.176  0.7063  3.0399  0.2595
15745SOL    HW248017   6.547   7.692   5.325  0.1623 -1.7948 -0.4085
15746SOL     OW48018   3.716   1.544   3.630  0.0170 -0.3029 -0.6077
15746SOL    HW148019   3.726   1.639   3.623  0.4713 -0.2776  0.2093
15746SOL    HW248020   3.796   1.509   3.589  1.0450 -0.2460  1.2435
15747SOL     OW48021   7.939   5.005   4.753 -0.2106  0.4374 -0.1418
15747SOL    HW148022   8.026   5.042   4.771 -0.6853  0.7415  1.6712
15747SOL    HW248023   7.907   4.976   4.838 -1.4359 -0.7085 -0.9571
15748SOL     OW48024   4.524   2.460   1.879  0.2965  0.1226  0.5473
15748SOL    HW148025   4.565   2.526   1.823 -1.2334  1.3456  0.8112
15748SOL    HW248026   4.430   2.469   1.862  0.0174 -1.8248  0.7901
15749SOL     OW48027   0.575   3.572   3.674  0.1609  0.5593  0.4244
15749SOL    HW148028   0.611   3.487   3.649  1.5206  0.7029  1.7800
15749SOL    HW248029   0.613   3.591   3.760 -1.5388  1.7164  0.9794
15750SOL     OW48030   2.385   1.991   6.327  0.3525  0.1188 -0.3506
15750SOL    HW148031   2.470   2.034   6.316  0.1675  0.3020 -1.1434
15750SOL    HW248032   2.363   1.960   6.239 -0.9366  1.0986 -0.4095
15751SOL     OW48033   4.969   4.893   1.850 -0.0402  0.1869 -0.2279
15751SOL    HW148034   5.020   4.866   1.927  0.3888 -0.1041 -0.6050
15751SOL    HW248035   4.959   4.987   1.859 -0.0374  0.1480  0.2112
15752SOL     OW48036   6.886   0.275   8.323  0.3555 -0.3151 -0.5732
15752SOL    HW148037   6.800   0.241   8.350  0.1311 -0.0404 -0.9333
15752SOL    HW248038   6.895   0.246   8.232  0.4389  0.0561 -0.6850
15753SOL     OW48039   3.739   6.877   7.365  0.3533  0.3426 -0.0091
15753SOL    HW148040   3.745   6.844   7.275  1.5817  2.1492 -0.6619
15753SOL    HW248041   3.646   6.872   7.386  0.3010 -2.0771 -0.5602
15754SOL     OW48042   3.238   6.889   3.659  0.0045 -0.4598  0.8322
15754SOL    HW148043   3.244   6.796   3.678 -0.1909 -0.3760  1.3321
15754SOL    HW248044   3.285   6.931   3.732  0.7338 -0.2019  0.2235
15755SOL     OW48045   5.336   1.892   7.941 -0.2131  0.0532 -0.0233
15755SOL    HW148046   5.327   1.987   7.948 -0.0108  0.1739 -1.2370
15755SOL    HW248047   5.429   1.877   7.925  0.0808 -0.4940  2.0054
15756SOL     OW48048   0.771   5.279   6.835 -0.0966 -0.3746  0.6778
15756SOL    HW148049   0.865   5.259   6.836  0.2477  1.1154  1.6538
15756SOL    HW248050   0.735   5.232   6.910 -0.1059 -0.7825  0.4222
15757SOL     OW48051   6.776   1.132   0.260  0.3488 -0.1193 -0.1814
15757SOL    HW148052   6.833   1.112   0.185 -1.1242  0.4695 -1.5075
15757SOL    HW248053   6.834   1.172   0.325  1.6689 -0.6933 -0.9790
15758SOL     OW48054   2.059   0.344   1.773 -0.3945  0.2267  0.2212
15758SOL    HW148055   1.982   0.307   1.817 -0.8654  0.2025 -0.6010
15758SOL    HW248056   2.022   0.407   1.711  0.1002 -1.1805 -1.5805
15759SOL     OW48057   3.298   7.211   0.098  0.3206 -0.2342  0.4210
15759SOL    HW148058   3.328   7.234   0.185  0.5898 -1.4792  0.6860
15759SOL    HW248059   3.378   7.201   0.047  0.1244  2.8847 -0.6805
15760SOL     OW48060   3.937   1.903   8.020  0.0072  0.5411 -0.3243
15760SOL    HW148061   3.901   1.855   8.095 -1.9209  0.3070 -1.3477
15760SOL    HW248062   3.882   1.980   8.012  0.9198  1.1631 -0.8323
15761SOL     OW48063   1.322   7.198   7.357 -0.1085  0.5539  0.1457
15761SOL    HW148064   1.361   7.212   7.443 -0.4383  1.1439  0.1982
15761SOL    HW248065   1.302   7.285   7.324  2.0173  0.5234 -1.4853
15762SOL     OW48066   2.551   7.937   6.371  0.0224 -0.3923  0.2007
15762SOL    HW148067   2.605   8.000   6.324 -0.8140  1.2562  1.3341
15762SOL    HW248068   2.537   7.977   6.457 -2.2787 -1.1211  0.2383
15763SOL     OW48069   6.034   3.466   3.755  0.2413  0.2232  0.1200
15763SOL    HW148070   6.129   3.462   3.758  0.1886 -2.0380  1.8971
15763SOL    HW248071   6.006   3.375   3.753 -1.9238  0.8110 -3.1153
15764SOL     OW48072   4.402   6.899   2.173 -0.1660 -0.0691 -0.3453
15764SOL    HW148073   4.384   6.900   2.079 -0.9590  0.1505 -0.2057
15764SOL    HW248074   4.339   6.836   2.208 -2.1935  2.1984  0.4330
15765SOL     OW48075   8.109   3.946   2.757 -0.0779  0.1300 -0.6309
15765SOL    HW148076   8.193   3.945   2.803 -0.2281  1.6748 -0.2872
15765SOL    HW248077   8.117   3.877   2.691  1.3218  0.0196 -0.3647
15766SOL     OW48078   7.655   8.220   4.861  0.0789 -0.0632 -0.5451
15766SOL    HW148079   7.678   8.141   4.812 -1.0368 -0.4582 -0.4543
15766SOL    HW248080   7.639   8.286   4.794 -1.0122 -0.4844 -0.7196
15767SOL     OW48081   5.743   7.502   8.047 -0.1888 -0.2618  0.8909
15767SOL    HW148082   5.778   7.573   7.992 -0.8114  0.0826  0.9242
15767SOL    HW248083   5.774   7.422   8.005  0.9627  0.0387  1.1513
15768SOL     OW48084   7.039   7.257   1.860  0.4059 -0.1010  0.0316
15768SOL    HW148085   6.948   7.230   1.855  0.3894 -0.1134  0.3920
15768SOL    HW248086   7.068   7.228   1.947  0.4129  0.9608  0.4016
15769SOL     OW48087   2.712   3.154   6.188  0.5366 -0.5524 -0.3774
15769SOL    HW148088   2.623   3.155   6.223  0.8274  1.8973  0.4994
15769SOL    HW248089   2.701   3.160   6.093 -0.2075 -2.7106 -0.4770
15770SOL     OW48090   5.520   0.330   7.355 -0.2376 -0.2927  0.3947
15770SOL    HW148091   5.478   0.281   7.426  0.0703  1.7678  2.0928
15770SOL    HW248092   5.589   0.379   7.398  0.4226  0.5110 -1.4821
15771SOL     OW48093   0.925   1.728   0.481 -0.2681 -0.2289 -1.1606
15771SOL    HW148094   0.954   1.644   0.517  0.0417  0.3617  0.0436
15771SOL    HW248095   1.004   1.783   0.483 -1.0714  0.9927  0.8890
15772SOL     OW48096   0.286   4.683   1.677 -0.0118 -1.1808 -0.0114
15772SOL    HW148097   0.360   4.648   1.628 -0.8299 -2.0101 -0.6863
15772SOL    HW248098   0.272   4.771   1.641 -1.1355 -2.0739 -1.9480
15773SOL     OW48099   6.400   1.313   0.864  0.1595 -0.2902 -0.3544
15773SOL    HW148100   6.326   1.297   0.805 -0.4354  1.2023 -0.0709
15773SOL    HW248101   6.362   1.306   0.952  1.0778 -2.6709 -0.0834
15774SOL     OW48102   7.928   5.319   6.967 -1.0875 -0.3408  0.6608
15774SOL    HW148103   7.966   5.318   7.055  1.6320  2.9181 -0.2971
15774SOL    HW248104   7.872   5.397   6.966  1.1334  1.3375 -1.2071
15775SOL     OW48105   5.681   0.927   3.802 -0.1228  0.0768  0.0079
15775SOL    HW148106   5.602   0.893   3.845  0.2951 -1.7815 -0.6278
15775SOL    HW248107   5.699   0.866   3.732  1.8901  0.4718  0.1106
15776SOL     OW48108   4.991   5.268   1.511  0.6547  0.0826 -0.4991
15776SOL    HW148109   4.921   5.241   1.452  0.8198 -0.2670 -0.5411
15776SOL    HW248110   4.957   5.248   1.598  0.6266  0.0850 -0.5096
15777SOL     OW48111   1.640   4.666   1.186  0.0233 -0.1346  0.4439
15777SOL    HW148112   1.712   4.718   1.222  0.2747  1.3321 -1.9263
15777SOL    HW248113   1.676   4.579   1.174 -0.0567 -0.6834  3.4849
15778SOL     OW48114   4.383   6.069   6.115  0.0151 -0.7523 -0.2096
15778SOL    HW148115   4.395   5.976   6.099  3.1587 -0.7892  1.5730
15778SOL    HW248116   4.458   6.111   6.073  0.6211  0.5265  1.9982
15779SOL     OW48117   5.647   1.072   0.981 -0.2872  0.1827  0.0270
15779SOL    HW148118   5.598   1.126   1.042 -0.2763 -0.0711  0.2589
15779SOL    HW248119   5.616   1.099   0.894  0.8799  1.7280  0.0477
15780SOL     OW48120   1.442   3.923   4.691  0.5584 -0.0611 -0.2711
15780SOL    HW148121   1.352   3.946   4.712  0.3235  0.5905 -1.8357
15780SOL    HW248122   1.492   4.002   4.710  0.7142 -0.2279  0.0256
15781SOL     OW48123   3.914   5.324   4.954  0.4648 -0.1534 -0.7663
15781SOL    HW148124   3.864   5.296   5.031  0.9798 -0.1002 -0.4073
15781SOL    HW248125   3.982   5.382   4.990 -1.7390  3.2473 -1.6265
15782SOL     OW48126   7.069   3.749   0.723  0.0182  0.3608 -0.0854
15782SOL    HW148127   7.031   3.674   0.678 -0.3606 -1.2969  2.7604
15782SOL    HW248128   6.998   3.783   0.778  1.2829  0.2173  1.7078
15783SOL     OW48129   3.614   3.365   5.829  0.4406  0.7906  0.3099
15783SOL    HW148130   3.554   3.321   5.769  1.7202 -1.8982  0.8809
15783SOL    HW248131   3.700   3.330   5.809  1.5447  2.9128  1.0051
15784SOL     OW48132   4.485   3.932   0.782  0.4195  0.1387  0.9989
15784SOL    HW148133   4.422   3.982   0.834  0.6085  1.2201  0.2157
15784SOL    HW248134   4.471   3.841   0.809 -3.0643 -0.0023 -0.7405
15785SOL     OW48135   3.388   5.857   1.758  0.2952  0.2052 -0.1989
15785SOL    HW148136   3.339   5.924   1.804 -1.2843  0.3928 -2.0041
15785SOL    HW248137   3.412   5.898   1.675  0.5127 -1.0091 -0.7584
15786SOL     OW48138   7.797   0.140   8.110  0.6534  0.1892  0.0950
15786SOL    HW148139   7.774   0.226   8.075 -0.2145  0.2307  0.7487
15786SOL    HW248140   7.770   0.143   8.202  1.1472 -0.5864  0.2798
15787SOL     OW48141   6.101   5.889   7.736  0.0889 -0.1864  0.0658
15787SOL    HW148142   6.074   5.809   7.782  1.0156 -0.3052  0.4242
15787SOL    HW248143   6.153   5.858   7.662  1.4321  0.0982  0.8595
15788SOL     OW48144   7.824   6.999   3.354  0.2176  0.3114  0.0573
15788SOL    HW148145   7.785   6.912   3.345  0.4637  0.2366 -0.3024
15788SOL    HW248146   7.753   7.054   3.388  0.1672 -0.1084  0.6363
15789SOL     OW48147   0.675   3.351   2.180  0.4303 -0.1277 -0.7189
15789SOL    HW148148   0.760   3.378   2.216  0.2727 -0.3007 -0.2039
15789SOL    HW248149   0.655   3.269   2.226 -0.0216 -0.0803 -0.8266
15790SOL     OW48150   0.550   4.080   1.640 -0.8790  0.7153 -0.1733
15790SOL    HW148151   0.547   4.171   1.671  0.6920  0.2731  1.4075
15790SOL    HW248152   0.463   4.046   1.661 -0.2105  0.7050  3.1944
15791SOL     OW48153   1.284   4.439   4.124  0.0457 -0.5493 -0.4421
15791SOL    HW148154   1.214   4.492   4.085  0.1377 -1.9260 -2.6945
15791SOL    HW248155   1.364   4.468   4.078  0.3798 -1.3839 -0.3974
15792SOL     OW48156   4.182   0.126   7.845  0.1636  0.3309  0.2379
15792SOL    HW148157   4.188   0.079   7.762  0.5365 -0.9475  0.9673
15792SOL    HW248158   4.252   0.090   7.899 -0.1186  1.0856  1.1399
15793SOL     OW48159   3.677   7.747   0.212 -0.1465  0.7002  0.3407
15793SOL    HW148160   3.584   7.724   0.223 -0.1678  1.3817  1.8698
15793SOL    HW248161   3.688   7.825   0.267  1.3682  0.5275  0.2983
15794SOL     OW48162   7.421   7.823   1.384  0.4037 -0.3293 -0.2332
15794SOL    HW148163   7.367   7.887   1.431  0.5609  1.3492 -2.2220
15794SOL    HW248164   7.359   7.772   1.333  0.5318  0.6322 -1.3877
15795SOL     OW48165   7.004   7.545   6.512 -0.0615 -0.0051  0.4592
15795SOL    HW148166   7.017   7.485   6.438  0.0887 -0.0267  0.5037
15795SOL    HW248167   7.084   7.538   6.563 -0.3210 -0.2772  0.8345
15796SOL     OW48168   0.955   2.996   7.436  0.2907  0.4457  0.4510
15796SOL    HW148169   0.909   3.075   7.463 -2.5614 -0.3180 -1.6504
15796SOL    HW248170   0.993   2.961   7.516 -2.2122  1.5815  2.2644
15797SOL     OW48171   5.294   0.915   7.210 -0.6730  0.3907 -0.5944
15797SOL    HW148172   5.261   0.970   7.139  0.0566  0.7488 -0.6698
15797SOL    HW248173   5.350   0.851   7.167  0.4977  1.1716 -0.2722
15798SOL     OW48174   6.238   2.862   5.462  0.5530 -0.2111  0.0383
15798SOL    HW148175   6.241   2.775   5.422  0.8737  0.2833 -1.0256
15798SOL    HW248176   6.145   2.879   5.476  0.4557 -0.4976 -0.2568
15799SOL     OW48177   8.042   3.354   1.913  0.5946  0.6866  0.3239
15799SOL    HW148178   8.103   3.281   1.924  0.4383  0.4612 -0.2798
15799SOL    HW248179   8.098   3.431   1.910  0.8846  0.4562 -0.5188
15800SOL     OW48180   6.106   6.393   1.984  0.3072 -0.1776  0.2080
15800SOL    HW148181   6.142   6.329   1.923  0.9324 -0.2514  0.6470
15800SOL    HW248182   6.181   6.422   2.035  0.0550  0.9694 -0.0391
15801SOL     OW48183   4.261   7.332   1.896 -0.1323  0.4087  0.2596
15801SOL    HW148184   4.227   7.264   1.954 -0.1620 -0.1020 -0.3543
15801SOL    HW248185   4.226   7.310   1.810 -0.2010  1.2421  0.0678
15802SOL     OW48186   1.122   5.921   7.079  0.3336 -0.2651 -0.0643
15802SOL    HW148187   1.103   5.855   7.145  0.8497  0.3330  0.7017
15802SOL    HW248188   1.217   5.930   7.081  0.3624 -0.2358 -0.9014
15803SOL     OW48189   0.661   2.073   1.894 -0.2235  0.0869 -0.5568
15803SOL    HW148190   0.633   2.086   1.803 -0.1589 -1.9741 -0.9099
15803SOL    HW248191   0.756   2.080   1.891 -0.1350 -1.0127 -0.8760
15804SOL     OW48192   7.330   4.874   1.450 -0.3876 -0.3544  0.8607
15804SOL    HW148193   7.287   4.790   1.461  0.1951 -0.7913 -0.1308
15804SOL    HW248194   7.276   4.935   1.500 -1.0007 -1.2473  1.3138
15805SOL     OW48195   1.222   7.637   4.222 -0.2993 -0.0931 -0.0662
15805SOL    HW148196   1.147   7.584   4.249  0.0765 -0.4702  0.2588
15805SOL    HW248197   1.184   7.709   4.171 -0.8155 -0.7082 -0.5717
15806SOL     OW48198   2.409   6.013   2.782  0.0770  0.1629 -0.2353
15806SOL    HW148199   2.335   6.074   2.784 -0.4213 -0.4443  0.5245
15806SOL    HW248200   2.415   5.987   2.690 -0.1114  0.8638 -0.4527
15807SOL     OW48201   7.942   1.279   1.223  0.5060  0.1440 -0.3347
15807SOL    HW148202   7.954   1.208   1.160 -0.7273  1.0286 -1.6359
15807SOL    HW248203   7.871   1.249   1.280  0.4633  0.0423 -0.4411
15808SOL     OW48204   4.212   7.617   4.307  0.4537  0.1807  0.7324
15808SOL    HW148205   4.188   7.694   4.256 -2.3510 -1.3449 -0.4512
15808SOL    HW248206   4.297   7.640   4.346  0.0312  3.5800 -0.0244
15809SOL     OW48207   4.365   0.089   0.377 -1.0800  0.0920  0.4539
15809SOL    HW148208   4.457   0.108   0.390 -0.7188 -1.1340 -0.1116
15809SOL    HW248209   4.325   0.173   0.353 -0.0166  0.5330  0.1938
15810SOL     OW48210   6.227   3.289   4.398 -1.0297  0.3626 -0.4035
15810SOL    HW148211   6.206   3.198   4.376 -0.7553  0.1870  0.0431
15810SOL    HW248212   6.322   3.291   4.406 -0.8894  1.0340 -1.8772
15811SOL     OW48213   4.222   6.397   7.195  0.3739 -0.2652 -0.2760
15811SOL    HW148214   4.292   6.408   7.130  0.0650  0.6086 -0.4716
15811SOL    HW248215   4.223   6.478   7.246 -1.7868  0.6633 -1.5578
15812SOL     OW48216   1.736   0.848   5.021 -0.1719 -0.1363 -0.4940
15812SOL    HW148217   1.677   0.792   5.073  0.1529 -1.1567 -1.1904
15812SOL    HW248218   1.723   0.820   4.931  1.1675 -0.1904 -0.6902
15813SOL     OW48219   5.510   0.003   4.835 -0.0081  0.2029  0.3099
15813SOL    HW148220   5.520   0.072   4.769 -1.5789 -1.3916 -1.7214
15813SOL    HW248221   5.416  -0.004   4.848  0.0769 -1.9820 -0.0149
15814SOL     OW48222   1.296   5.356   4.367  0.2331 -0.8793 -0.4955
15814SOL    HW148223   1.201   5.346   4.361  0.2757 -1.4360 -0.2654
15814SOL    HW248224   1.310   5.451   4.358 -0.3555 -0.7686 -0.3231
15815SOL     OW48225   6.287   3.455   6.305  0.3526  0.7201  0.0704
15815SOL    HW148226   6.193   3.440   6.313  0.3311  0.7749 -0.0696
15815SOL    HW248227   6.312   3.500   6.386  0.6020 -0.9618  0.9576
15816SOL     OW48228   4.487   6.515   1.546  0.4786 -0.0275 -0.1176
15816SOL    HW148229   4.505   6.468   1.464 -0.1077 -0.6629  0.1048
15816SOL    HW248230   4.401   6.556   1.532  0.9325  0.9024 -0.2666
15817SOL     OW48231   2.527   6.916   3.461  0.2819  0.4090  0.6959
15817SOL    HW148232   2.509   6.915   3.555 -3.5808 -1.3522  0.1255
15817SOL    HW248233   2.555   6.827   3.440 -0.2006  0.4051  0.0238
15818SOL     OW48234   7.878   0.892   3.897 -0.1488  0.2788 -0.1361
15818SOL    HW148235   7.962   0.847   3.905 -0.3073  0.2366  1.6041
15818SOL    HW248236   7.894   0.962   3.834  0.0274 -2.3167 -3.2645
15819SOL     OW48237   7.048   3.866   2.454  0.3226  0.3871  0.3757
15819SOL    HW148238   6.980   3.803   2.428 -0.6003  1.2387  0.6387
15819SOL    HW248239   7.130   3.826   2.425 -0.3629 -0.2818 -0.7212
15820SOL     OW48240   2.388   0.342   5.373  0.4132  0.2172 -0.1530
15820SOL    HW148241   2.412   0.406   5.440 -0.0014  1.1388 -0.8666
15820SOL    HW248242   2.459   0.348   5.308  0.8459 -0.7148  0.2060
15821SOL     OW48243   3.998   8.027   0.832 -0.5072 -0.3405 -0.0508
15821SOL    HW148244   4.086   8.027   0.796 -0.0238  1.2440  0.9972
15821SOL    HW248245   3.986   7.939   0.867 -0.4322 -1.4391 -2.5846
15822SOL     OW48246   4.942   1.646   5.653 -0.1625 -0.0732 -0.2361
15822SOL    HW148247   4.924   1.636   5.747  1.2765  0.5537  0.1307
15822SOL    HW248248   4.920   1.560   5.615 -0.0525 -0.5694  0.7894
15823SOL     OW48249   0.115   5.973   5.269  0.3148  0.1468 -0.4552
15823SOL    HW148250   0.051   5.982   5.199  0.6146  0.7040 -0.6679
15823SOL    HW248251   0.063   5.956   5.348 -0.1571  1.3984 -0.4779
15824SOL     OW48252   0.199   4.213   2.524  0.2018  0.3099 -0.4188
15824SOL    HW148253   0.157   4.299   2.518 -2.2000 -0.8109 -0.8569
15824SOL    HW248254   0.132   4.157   2.563  1.8734 -1.2879  0.2553
15825SOL     OW48255   4.731   5.291   2.467  0.2639 -0.6224 -0.4114
15825SOL    HW148256   4.682   5.233   2.525 -0.4454  0.0527 -0.3266
15825SOL    HW248257   4.823   5.270   2.485  0.1430  0.6575  2.1053
15826SOL     OW48258   0.829   6.662   3.739  0.0907 -0.2995 -0.3060
15826SOL    HW148259   0.762   6.684   3.803 -0.7036  0.5367 -1.3862
15826SOL    HW248260   0.879   6.743   3.727  0.4661 -0.5510 -0.4668
15827SOL     OW48261   2.856   7.413   3.769  0.5073 -0.4458  0.1119
15827SOL    HW148262   2.934   7.357   3.764  0.2300 -0.7867 -0.4513
15827SOL    HW248263   2.882   7.494   3.726  0.6710 -0.4182  0.2621
15828SOL     OW48264   2.134   7.403   0.083  0.2833 -0.0038 -0.0627
15828SOL    HW148265   2.107   7.314   0.062 -0.0613 -0.2038  1.1110
15828SOL    HW248266   2.062   7.458   0.053  0.4653 -0.1258 -0.7245
15829SOL     OW48267   2.839   2.080   1.344  0.0893  0.3026 -0.1269
15829SOL    HW148268   2.867   2.075   1.436 -0.4783  1.9052  0.1606
15829SOL    HW248269   2.839   1.989   1.315  0.9324 -0.1835  1.2590
15830SOL     OW48270   4.929   7.756   2.762  0.3955  0.3815  0.1658
15830SOL    HW148271   4.861   7.733   2.699  0.9691  1.9524 -1.0842
15830SOL    HW248272   4.888   7.819   2.821  0.0735 -0.5338  0.9381
15831SOL     OW48273   0.676   4.982   3.621  0.2673 -0.4475  0.4745
15831SOL    HW148274   0.656   4.908   3.678 -0.5378 -0.0385  0.7390
15831SOL    HW248275   0.637   4.959   3.537  0.3425 -0.4923  0.4522
15832SOL     OW48276   4.294   8.198   6.196  0.7254 -0.2811  0.6296
15832SOL    HW148277   4.237   8.273   6.180  0.4238 -0.7749 -0.7161
15832SOL    HW248278   4.313   8.202   6.290  2.5271  2.7549  0.2776
15833SOL     OW48279   2.410   7.815   1.939 -0.7521 -0.8324 -0.0509
15833SOL    HW148280   2.407   7.827   2.034  0.3875 -1.3764  0.0684
15833SOL    HW248281   2.449   7.729   1.927 -0.3065 -0.5072 -1.0235
15834SOL     OW48282   6.230   0.954   3.365 -0.1772  0.3405 -0.0613
15834SOL    HW148283   6.289   0.974   3.292 -1.5405 -1.0790 -1.6427
15834SOL    HW248284   6.219   1.038   3.410  1.4675  1.0531 -0.9001
15835SOL     OW48285   0.787   6.137   3.634  0.1364  0.1797 -0.4590
15835SOL    HW148286   0.854   6.104   3.573  0.1420 -0.3676 -0.1664
15835SOL    HW248287   0.828   6.211   3.678 -0.0757  0.9818 -1.5515
15836SOL     OW48288   3.741   3.943   0.559  0.4170  0.4000  0.0227
15836SOL    HW148289   3.824   3.991   0.555  0.4853  0.1973 -1.4842
15836SOL    HW248290   3.702   3.955   0.473 -0.7852 -0.1174  0.4751
15837SOL     OW48291   1.896   8.019   5.267  0.0311 -0.1378  0.0193
15837SOL    HW148292   1.837   7.993   5.198  0.4884 -2.3185  0.3762
15837SOL    HW248293   1.962   8.073   5.223  0.4653 -1.6882 -1.3394
15838SOL     OW48294   7.765   5.091   1.243 -0.1089 -0.2375  0.0835
15838SOL    HW148295   7.716   5.015   1.276  0.4926 -0.9065 -0.5315
15838SOL    HW248296   7.803   5.061   1.161 -0.3058  0.9140 -0.4474
15839SOL     OW48297   3.988   6.303   5.736  0.3697 -0.0343 -0.0673
15839SOL    HW148298   4.038   6.227   5.767  2.5247  1.4390  0.2903
15839SOL    HW248299   4.039   6.335   5.661  0.5391  2.0826  0.8804
15840SOL     OW48300   5.966   2.913   4.302 -0.5958 -0.0681  0.1097
15840SOL    HW148301   5.994   2.959   4.223 -0.0302  0.0393  0.3670
15840SOL    HW248302   5.965   2.821   4.277  1.8006 -0.2808  0.5794
15841SOL     OW48303   4.166   1.155   3.791  0.4371  0.5254 -0.1654
15841SOL    HW148304   4.078   1.130   3.764  0.8166 -2.2712  0.8670
15841SOL    HW248305   4.170   1.249   3.776 -1.8766  0.3556 -2.5529
15842SOL     OW48306   3.355   8.324   2.149 -0.1261 -0.5010 -0.3872
15842SOL    HW148307   3.429   8.265   2.163  0.2908  0.3560  1.2346
15842SOL    HW248308   3.280   8.266   2.136 -0.2408 -1.5788  3.6880
15843SOL     OW48309   4.751   3.502   3.945  0.0549  0.5087  0.0508
15843SOL    HW148310   4.815   3.501   4.016  0.2162 -0.9997 -0.0968
15843SOL    HW248311   4.774   3.579   3.893  0.3105  1.2973  1.2597
15844SOL     OW48312   2.169   1.671   1.026 -0.2936  0.2843  0.4999
15844SOL    HW148313   2.196   1.620   0.949  0.5094  0.9182  0.3434
15844SOL    HW248314   2.074   1.675   1.020 -0.1841  1.3641 -1.1623
15845SOL     OW48315   1.273   3.557   3.433 -0.3063  0.0541 -0.5908
15845SOL    HW148316   1.252   3.499   3.507 -0.8964  1.0096  0.0111
15845SOL    HW248317   1.188   3.575   3.392 -0.1464  0.6083 -0.6798
15846SOL     OW48318   7.671   6.516   0.652 -0.1748 -0.8656 -0.6233
15846SOL    HW148319   7.744   6.578   0.656 -0.8829 -0.0758  1.2907
15846SOL    HW248320   7.712   6.430   0.663  0.5577 -0.5168 -0.5693
15847SOL     OW48321   6.089   1.713   6.453 -0.2860  0.2020  0.3494
15847SOL    HW148322   6.085   1.750   6.365  1.4105  0.8767  0.5092
15847SOL    HW248323   6.000   1.720   6.486 -0.5418  1.8522 -0.5741
15848SOL     OW48324   8.014   1.242   7.570 -0.7476 -0.9493  0.2908
15848SOL    HW148325   8.064   1.162   7.586 -0.7167 -0.7392  1.3172
15848SOL    HW248326   8.078   1.312   7.580  0.0801 -0.8145 -3.8576
15849SOL     OW48327   7.434   1.141   6.935  0.1293 -0.0401 -0.3682
15849SOL    HW148328   7.376   1.207   6.897 -0.6607 -0.9649 -0.8208
15849SOL    HW248329   7.393   1.118   7.019  0.4980  0.1769 -0.1283
15850SOL     OW48330   1.818   0.609   1.917  0.0004 -0.6814  0.1715
15850SOL    HW148331   1.764   0.544   1.962  0.4285 -1.0791  0.1191
15850SOL    HW248332   1.789   0.605   1.826 -0.5255 -0.2261  0.3131
15851SOL     OW48333   2.142   3.326   3.613  0.8992 -0.5166  0.2792
15851SOL    HW148334   2.153   3.403   3.558  1.1581 -1.0880 -0.4880
15851SOL    HW248335   2.099   3.359   3.692 -1.6288 -0.0174 -1.1828
15852SOL     OW48336   3.241   4.477   5.546 -0.0612  0.0860  0.0246
15852SOL    HW148337   3.290   4.420   5.487  0.4484  0.7018 -0.1569
15852SOL    HW248338   3.307   4.513   5.605 -0.3169  0.8353 -0.1473
15853SOL     OW48339   1.316   4.885   4.184 -0.1856  0.3131  0.0381
15853SOL    HW148340   1.353   4.973   4.187 -0.1981  0.3618 -1.0288
15853SOL    HW248341   1.241   4.892   4.126 -1.8694  0.1905  2.0494
15854SOL     OW48342   7.833   3.735   8.121 -0.3247 -0.0659  0.3722
15854SOL    HW148343   7.755   3.680   8.129 -0.7413  0.7748  2.7885
15854SOL    HW248344   7.861   3.751   8.211  1.4381  1.3597 -0.3667
15855SOL     OW48345   0.734   5.721   4.678  0.0072  0.0987 -0.3225
15855SOL    HW148346   0.822   5.747   4.650  0.5719 -1.1320  0.2656
15855SOL    HW248347   0.716   5.777   4.753  0.9840 -0.7695  0.5835
15856SOL     OW48348   3.352   0.535   1.106  0.1278 -0.7393  0.3211
15856SOL    HW148349   3.296   0.596   1.057 -1.2311 -2.8717 -0.9404
15856SOL    HW248350   3.418   0.507   1.043  0.1909 -1.2578  0.6129
15857SOL     OW48351   6.894   7.941   1.856 -0.0636 -0.3127 -0.6568
15857SOL    HW148352   6.910   7.869   1.794  0.2183 -0.3709 -0.5178
15857SOL    HW248353   6.934   7.912   1.938 -0.3207 -0.1773 -0.4822
15858SOL     OW48354   5.306   2.577   5.838 -0.2782 -0.0130 -0.1266
15858SOL    HW148355   5.304   2.623   5.754 -1.8993 -0.2153 -0.2202
15858SOL    HW248356   5.269   2.640   5.900 -0.2831 -0.3352  0.1958
15859SOL     OW48357   5.803   7.231   8.288  0.0704 -0.5364  0.0601
15859SOL    HW148358   5.880   7.287   8.304 -0.4700  0.0468  0.7100
15859SOL    HW248359   5.786   7.241   8.194 -1.2703  2.1320  0.4756
15860SOL     OW48360   1.985   0.783   6.875 -0.2758 -0.3660  0.0833
15860SOL    HW148361   1.942   0.796   6.960 -0.9112 -1.2723 -0.0868
15860SOL    HW248362   1.938   0.841   6.815 -0.7206 -0.7355  0.0717
15861SOL     OW48363   2.805   4.947   7.998 -0.1216 -0.2167  0.0475
15861SOL    HW148364   2.900   4.948   8.004 -0.1837 -0.0404  1.6331
15861SOL    HW248365   2.777   5.026   8.045 -1.0550 -0.7796  0.4786
15862SOL     OW48366   5.851   3.099   2.040 -0.8321 -0.5361  0.3983
15862SOL    HW148367   5.829   3.070   1.951  0.3080 -0.8924  0.2050
15862SOL    HW248368   5.815   3.187   2.047 -1.0158 -0.5423 -0.3878
15863SOL     OW48369   7.866   7.435   1.075  0.7149  0.3737 -0.2091
15863SOL    HW148370   7.939   7.420   1.136  0.6903  0.1894 -0.2250
15863SOL    HW248371   7.907   7.435   0.989  0.9029  1.6156 -0.1376
15864SOL     OW48372   4.288   4.171   0.121 -0.0594 -0.4787 -0.3474
15864SOL    HW148373   4.196   4.196   0.130  0.3005  0.8167 -0.1101
15864SOL    HW248374   4.310   4.132   0.206  0.0399  0.7243  0.2041
15865SOL     OW48375   4.905   0.592   3.728 -0.4234 -0.6280 -0.1344
15865SOL    HW148376   4.869   0.661   3.783 -0.5029 -0.7080 -0.0869
15865SOL    HW248377   4.888   0.621   3.638 -1.1477 -0.9570 -0.1068
15866SOL     OW48378   3.514   7.154   8.027  0.4306 -0.2181 -0.2912
15866SOL    HW148379   3.610   7.154   8.030  0.5726 -2.3183 -2.4707
15866SOL    HW248380   3.492   7.230   7.973  0.9371 -0.4235 -0.7965
15867SOL     OW48381   3.198   7.855   0.263  0.5338  0.1068 -0.0865
15867SOL    HW148382   3.161   7.771   0.235  1.4331  0.3535 -2.1838
15867SOL    HW248383   3.268   7.831   0.324 -2.4081 -0.3904  3.4297
15868SOL     OW48384   5.737   4.055   7.879  0.5829 -0.1543 -0.1405
15868SOL    HW148385   5.789   4.131   7.906 -0.4784 -0.0055  1.6546
15868SOL    HW248386   5.790   3.979   7.903  0.0337 -0.0037  1.7292
15869SOL     OW48387   6.135   5.578   0.724 -0.6997  0.2510  0.2468
15869SOL    HW148388   6.089   5.661   0.738 -0.0356  0.6111  0.3340
15869SOL    HW248389   6.188   5.566   0.802  1.9834  1.5873 -1.2239
15870SOL     OW48390   7.303   0.708   0.515 -0.0990  0.3365 -0.5194
15870SOL    HW148391   7.266   0.673   0.596 -0.6102 -0.4402 -1.0725
15870SOL    HW248392   7.395   0.724   0.536 -0.1123 -0.3191  0.0783
15871SOL     OW48393   2.695   3.378   8.126  0.2650  0.4115 -0.0225
15871SOL    HW148394   2.662   3.289   8.143  0.9155  0.3661  1.0926
15871SOL    HW248395   2.755   3.367   8.053 -1.2688  0.3125 -1.3294
15872SOL     OW48396   7.290   5.021   4.527 -0.2830 -0.6434  0.2547
15872SOL    HW148397   7.268   5.097   4.581  0.6637  0.0575 -0.3102
15872SOL    HW248398   7.384   5.030   4.511 -0.0002 -2.3490  0.7967
15873SOL     OW48399   2.411   6.599   0.015  0.9639  0.0276 -0.1500
15873SOL    HW148400   2.428   6.530   0.079  1.1768 -0.2608 -0.5154
15873SOL    HW248401   2.491   6.653   0.016  2.2693 -1.6600 -2.2903
15874SOL     OW48402   6.086   5.855   0.072  0.0891  0.4653 -0.4581
15874SOL    HW148403   6.117   5.909   0.144  0.3578  1.9554 -1.6334
15874SOL    HW248404   6.163   5.843   0.016  0.0346 -1.1646 -0.2336
15875SOL     OW48405   2.207   4.086   3.763 -0.4072  0.6041  0.3950
15875SOL    HW148406   2.151   4.157   3.793  0.3225  0.6831  1.6088
15875SOL    HW248407   2.290   4.099   3.809  0.7724  0.6985 -1.6187
15876SOL     OW48408   8.196   7.377   3.972 -0.2166 -0.4301 -0.1300
15876SOL    HW148409   8.241   7.293   3.964  0.1697 -0.2617  0.2117
15876SOL    HW248410   8.213   7.404   4.063 -0.2547  0.0607 -0.2681
15877SOL     OW48411   1.078   5.509   1.452 -0.4374 -0.1603  0.0914
15877SOL    HW148412   1.103   5.556   1.373 -1.2226 -0.7863 -0.5576
15877SOL    HW248413   1.014   5.566   1.494 -1.1846 -0.4960 -0.5516
15878SOL     OW48414   1.366   5.356   5.497  0.0066  0.2950 -0.5705
15878SOL    HW148415   1.362   5.326   5.588 -0.3636  0.0368 -0.6703
15878SOL    HW248416   1.275   5.376   5.475  0.3358  2.5515 -0.1531
15879SOL     OW48417   1.154   3.345   5.844 -0.1131  0.0261 -0.3737
15879SOL    HW148418   1.076   3.325   5.793  0.0273 -0.6832 -0.3206
15879SOL    HW248419   1.203   3.262   5.846  0.2255  0.2400  0.3044
15880SOL     OW48420   4.453   1.279   3.862  0.3538  0.7784 -0.0075
15880SOL    HW148421   4.491   1.342   3.801  0.5349  0.5295 -0.1476
15880SOL    HW248422   4.366   1.260   3.825  0.9219 -0.2858 -0.8368
15881SOL     OW48423   4.888   2.751   1.367  0.5113 -0.0607 -0.0651
15881SOL    HW148424   4.866   2.807   1.441 -1.2016 -0.3448 -0.3134
15881SOL    HW248425   4.966   2.703   1.395  0.7925  0.9539  0.9340
15882SOL     OW48426   3.460   2.524   1.524 -0.3279 -0.1609  0.1696
15882SOL    HW148427   3.536   2.482   1.564  0.6129  0.8761 -0.4560
15882SOL    HW248428   3.399   2.453   1.507  0.8743 -1.1526 -0.1165
15883SOL     OW48429   6.498   8.059   6.997 -0.4871  0.2981 -0.6825
15883SOL    HW148430   6.587   8.077   6.968 -0.1415 -2.0502 -1.2838
15883SOL    HW248431   6.482   8.122   7.067  2.0621  0.0298  0.2420
15884SOL     OW48432   5.807   3.657   0.806 -0.2361 -0.1641  0.1277
15884SOL    HW148433   5.727   3.670   0.755 -0.1705  0.9513  0.2858
15884SOL    HW248434   5.874   3.707   0.759  0.0254  0.1562  0.8230
15885SOL     OW48435   2.326   4.445   2.564 -0.1427 -0.4719 -0.1510
15885SOL    HW148436   2.421   4.451   2.560 -0.2090  0.4544 -0.6600
15885SOL    HW248437   2.295   4.534   2.544 -1.1256 -0.9804 -1.0515
15886SOL     OW48438   7.869   5.419   4.848  0.2382 -0.7015 -0.6893
15886SOL    HW148439   7.861   5.326   4.826 -2.4613 -0.8058  0.3127
15886SOL    HW248440   7.820   5.429   4.930  1.5414  1.4034 -0.0732
15887SOL     OW48441   0.862   0.457   3.395 -0.1940 -0.5853  0.1929
15887SOL    HW148442   0.877   0.544   3.360 -0.4616 -0.5546  0.1543
15887SOL    HW248443   0.792   0.420   3.340 -0.9394 -0.3660  0.9680
15888SOL     OW48444   7.571   6.893   8.210 -0.4455  0.5416  0.1418
15888SOL    HW148445   7.639   6.828   8.228 -0.6242  0.4720  0.5828
15888SOL    HW248446   7.489   6.845   8.223 -0.6236  0.0521 -2.3793
15889SOL     OW48447   2.044   3.410   1.464  0.1792  0.0589  0.4508
15889SOL    HW148448   2.071   3.418   1.555 -1.2639 -3.9293  1.4685
15889SOL    HW248449   2.079   3.325   1.436 -0.7567  0.4386 -2.1833
15890SOL     OW48450   0.653   3.736   8.000 -0.6059  0.4216  0.1302
15890SOL    HW148451   0.683   3.816   8.042 -0.4082  1.1033 -1.2293
15890SOL    HW248452   0.623   3.764   7.913  0.1990 -1.0682 -0.6783
15891SOL     OW48453   1.419   2.448   3.396  0.2505  0.3093  0.1564
15891SOL    HW148454   1.399   2.355   3.407 -0.1495  0.5001  1.1483
15891SOL    HW248455   1.349   2.481   3.339 -0.6596  0.3670  1.2714
15892SOL     OW48456   7.753   5.797   2.368  0.0289  0.0203  0.1712
15892SOL    HW148457   7.710   5.726   2.416 -2.1897 -0.5701 -2.4417
15892SOL    HW248458   7.743   5.873   2.425 -1.2379 -0.9006  1.2525
15893SOL     OW48459   7.370   8.274   1.393  0.2483 -0.8573 -0.2543
15893SOL    HW148460   7.339   8.238   1.310  0.6389  0.8510 -1.1961
15893SOL    HW248461   7.461   8.297   1.376  0.4131 -0.7368  0.7523
15894SOL     OW48462   6.249   1.712   4.392 -0.3352  0.5490 -0.2935
15894SOL    HW148463   6.230   1.625   4.427 -0.8817  0.3684 -0.9974
15894SOL    HW248464   6.198   1.716   4.311  0.8892  0.9301 -1.0766
15895SOL     OW48465   6.840   8.208   0.902 -0.0807  0.4819 -0.0770
15895SOL    HW148466   6.850   8.282   0.842 -0.2092 -0.1058 -0.8433
15895SOL    HW248467   6.768   8.156   0.865 -0.3175  0.2251  0.7151
15896SOL     OW48468   7.756   2.339   2.788 -0.4054 -0.1499  0.1186
15896SOL    HW148469   7.736   2.380   2.872 -2.6762  0.8966 -0.8290
15896SOL    HW248470   7.735   2.247   2.801 -3.8747  0.4705 -0.0464
15897SOL     OW48471   1.046   7.505   1.313 -0.1716  0.6322 -0.6949
15897SOL    HW148472   1.108   7.473   1.248 -0.4581 -0.7461 -0.3264
15897SOL    HW248473   1.098   7.562   1.371  1.0741 -1.4167  0.3121
15898SOL     OW48474   5.665   6.133   8.162 -0.4719  0.4736 -0.1280
15898SOL    HW148475   5.659   6.204   8.226 -0.7960 -0.2399  0.6537
15898SOL    HW248476   5.575   6.102   8.153 -0.1492 -0.7214  0.5741
15899SOL     OW48477   3.668   5.004   3.807 -0.9864  0.1070 -0.4369
15899SOL    HW148478   3.703   5.088   3.779  0.1780 -1.0018 -2.5912
15899SOL    HW248479   3.573   5.013   3.801 -1.2417  2.5322  3.5415
15900SOL     OW48480   8.169   4.397   1.041 -0.5720 -0.2446  0.1040
15900SOL    HW148481   8.241   4.334   1.046 -0.3536  0.0180  0.3342
15900SOL    HW248482   8.099   4.351   0.994 -1.3186 -1.5523  2.3086
15901SOL     OW48483   4.205   6.703   6.000 -0.2347  0.6640  0.0576
15901SOL    HW148484   4.240   6.786   6.033 -3.6291  2.3434 -0.0176
15901SOL    HW248485   4.229   6.702   5.907 -1.8151  2.6934 -0.4474
15902SOL     OW48486   6.922   2.367   7.906  0.1700 -0.0193 -0.2707
15902SOL    HW148487   6.940   2.381   7.999  1.8621 -1.6296 -0.2929
15902SOL    HW248488   6.835   2.405   7.893 -0.3785 -0.2519  2.1042
15903SOL     OW48489   1.124   6.703   6.865 -0.1484  0.2747 -0.1586
15903SOL    HW148490   1.218   6.688   6.863 -0.0952  0.6202 -1.4351
15903SOL    HW248491   1.107   6.758   6.788 -1.3262  0.6020  0.3079
15904SOL     OW48492   0.660   3.455   6.137 -0.1209 -0.5115 -0.1953
15904SOL    HW148493   0.696   3.449   6.225 -0.4098 -0.1480 -0.0517
15904SOL    HW248494   0.715   3.396   6.085  1.6485  1.1012 -0.3004
15905SOL     OW48495   6.162   7.553   1.025  0.1971  0.2410 -0.0448
15905SOL    HW148496   6.100   7.574   1.095  1.2694 -1.0328  1.3519
15905SOL    HW248497   6.117   7.488   0.972 -0.2125  0.3899  0.1155
15906SOL     OW48498   5.054   5.943   4.498 -0.0542  0.7574 -0.0851
15906SOL    HW148499   5.107   6.023   4.508 -2.8431  2.5917  1.6837
15906SOL    HW248500   4.989   5.966   4.431  0.0010 -0.6033 -0.6228
15907SOL     OW48501   1.426   3.202   0.704 -0.1413 -0.7383  0.0688
15907SOL    HW148502   1.451   3.293   0.686  0.1822 -1.1830 -1.9555
15907SOL    HW248503   1.455   3.154   0.627  0.5160 -2.7369  1.4950
15908SOL     OW48504   6.819   6.829   7.608 -0.3413 -0.6114 -0.0847
15908SOL    HW148505   6.740   6.792   7.568 -0.8201  0.0129  0.2618
15908SOL    HW248506   6.884   6.827   7.538 -1.1258  0.3511 -0.8679
15909SOL     OW48507   3.506   6.535   3.913 -0.1599  0.5154 -0.7102
15909SOL    HW148508   3.500   6.598   3.841  0.6805  0.1096 -1.1527
15909SOL    HW248509   3.503   6.450   3.870 -2.0468  0.2002 -0.0582
15910SOL     OW48510   7.150   7.277   5.948 -0.1664  0.6455 -0.1505
15910SOL    HW148511   7.163   7.230   6.030  1.0976  1.8789  0.3948
15910SOL    HW248512   7.110   7.213   5.889 -0.5674 -0.4170  1.2458
15911SOL     OW48513   2.898   6.152   7.090 -0.2968  0.9365 -0.0240
15911SOL    HW148514   2.887   6.136   7.184  0.3753 -0.5257 -0.1535
15911SOL    HW248515   2.955   6.080   7.061  1.3369  2.5980 -1.1321
15912SOL     OW48516   5.489   4.184   7.787  0.5979  0.0360  0.3708
15912SOL    HW148517   5.536   4.267   7.772  2.1836 -0.7360  0.8209
15912SOL    HW248518   5.558   4.122   7.810 -0.5340 -1.4962 -0.2426
15913SOL     OW48519   5.551   4.615   3.919 -0.2002 -1.3254 -0.0963
15913SOL    HW148520   5.584   4.702   3.895 -0.3002 -1.1790  0.2962
15913SOL    HW248521   5.472   4.604   3.866 -2.1974  0.2836  2.3365
15914SOL     OW48522   7.541   3.191   1.659 -0.2520 -0.8053  0.4160
15914SOL    HW148523   7.492   3.266   1.692 -1.5608 -1.5929  0.3547
15914SOL    HW248524   7.546   3.131   1.733 -0.5392 -1.2859  0.0556
15915SOL     OW48525   6.598   6.110   0.553  0.1073  0.1704 -0.6536
15915SOL    HW148526   6.617   6.200   0.528 -0.2910  0.9883  1.7789
15915SOL    HW248527   6.504   6.108   0.566  0.3235 -0.0918  1.0307
15916SOL     OW48528   0.881   6.542   3.383 -0.3532 -0.1992 -0.2992
15916SOL    HW148529   0.813   6.483   3.416 -0.1251 -0.8467 -0.9545
15916SOL    HW248530   0.947   6.484   3.346  1.3391  0.3464  1.6945
15917SOL     OW48531   1.552   5.062   5.690  0.3993 -0.0139 -0.6828
15917SOL    HW148532   1.596   4.976   5.690 -0.7765 -0.6482  0.1356
15917SOL    HW248533   1.483   5.054   5.624 -1.5342 -0.7411  1.2884
15918SOL     OW48534   7.130   8.287   2.150 -0.1825 -0.0502 -0.2684
15918SOL    HW148535   7.221   8.260   2.145 -0.2785 -0.3947 -0.1704
15918SOL    HW248536   7.080   8.206   2.145 -0.5601  0.2581 -2.3873
15919SOL     OW48537   1.846   4.031   4.239  0.4277 -0.0787  0.3503
15919SOL    HW148538   1.786   3.958   4.256  0.4770 -0.3045 -0.3880
15919SOL    HW248539   1.919   4.017   4.300  0.1523 -0.3145  0.6253
15920SOL     OW48540   3.687   7.311   0.116  0.0722  0.5489  0.0344
15920SOL    HW148541   3.631   7.283   0.189  0.4199  1.8986  0.8647
15920SOL    HW248542   3.664   7.253   0.044  0.2071 -1.3142  1.4091
15921SOL     OW48543   7.521   6.250   1.459 -0.3533  0.4664  0.0463
15921SOL    HW148544   7.608   6.216   1.479 -0.4602  0.4531  0.5031
15921SOL    HW248545   7.501   6.215   1.372 -0.7319 -1.2359  0.7692
15922SOL     OW48546   7.727   0.863   6.285  0.8044  0.2279  0.2401
15922SOL    HW148547   7.719   0.775   6.246  1.6423  0.7484 -1.2035
15922SOL    HW248548   7.743   0.847   6.378  1.4266 -1.1855 -0.0819
15923SOL     OW48549   6.936   7.951   3.758 -0.3181 -0.4779 -0.0930
15923SOL    HW148550   7.017   7.904   3.782  0.9287  0.8829 -1.4378
15923SOL    HW248551   6.945   7.966   3.664 -1.6422  0.6749 -0.0518
15924SOL     OW48552   1.184   1.614   4.227  0.6571  0.8451  0.3510
15924SOL    HW148553   1.110   1.637   4.283 -0.1396 -1.3049  0.2723
15924SOL    HW248554   1.145   1.566   4.154  2.1094 -0.5085  0.4074
15925SOL     OW48555   0.457   6.625   4.970  0.3525  0.5824  0.1449
15925SOL    HW148556   0.547   6.628   5.003  0.1675  1.7702  0.6128
15925SOL    HW248557   0.464   6.587   4.883  1.4534  1.6221 -0.2397
15926SOL     OW48558   2.003   7.287   6.322 -0.6888 -0.2800 -0.2746
15926SOL    HW148559   2.039   7.331   6.245 -1.1914 -0.7615 -0.7939
15926SOL    HW248560   1.994   7.195   6.296 -0.2949 -0.5654  0.5650
15927SOL     OW48561   7.505   4.868   5.562 -0.2908  0.2667 -0.0200
15927SOL    HW148562   7.444   4.915   5.619 -0.4815 -0.0007 -0.0008
15927SOL    HW248563   7.462   4.784   5.545  1.1021 -0.9385  1.9612
15928SOL     OW48564   2.897   0.807   5.407 -0.2749  0.0782  0.4337
15928SOL    HW148565   2.846   0.750   5.348 -0.6798  0.0574  0.7943
15928SOL    HW248566   2.906   0.889   5.359 -0.9786  0.2086  0.5170
15929SOL     OW48567   1.756   7.041   2.488  0.9682 -0.4279 -0.2972
15929SOL    HW148568   1.731   6.999   2.406 -1.0797 -1.9831  1.0224
15929SOL    HW248569   1.794   6.971   2.540 -1.2778 -0.4689  1.4444
15930SOL     OW48570   4.357   2.382   8.271  0.0863 -0.4635 -0.5697
15930SOL    HW148571   4.292   2.319   8.301 -0.9735 -0.3321 -2.4750
15930SOL    HW248572   4.422   2.385   8.342 -0.8017 -2.2724  0.3764
15931SOL     OW48573   1.886   2.993   4.985  1.0955 -0.0067 -0.2987
15931SOL    HW148574   1.946   2.920   4.993 -0.3094 -1.1560  0.1296
15931SOL    HW248575   1.802   2.960   5.017 -0.6510  0.4736 -3.8179
15932SOL     OW48576   2.743   7.956   7.956  0.7637 -0.0057  0.1668
15932SOL    HW148577   2.831   7.950   7.994  0.8297 -0.1171 -0.0053
15932SOL    HW248578   2.723   8.050   7.956 -0.0017 -0.1253  2.2321
15933SOL     OW48579   1.459   1.221   3.870 -0.4996 -0.2138 -0.2113
15933SOL    HW148580   1.538   1.262   3.836  0.0483 -0.9607  0.1394
15933SOL    HW248581   1.435   1.275   3.945 -0.3346  0.0188 -0.3224
15934SOL     OW48582   3.837   4.775   3.102 -0.6035 -0.0522  0.4393
15934SOL    HW148583   3.904   4.826   3.148 -0.6132 -0.5693  1.0556
15934SOL    HW248584   3.847   4.799   3.010  1.5269 -1.2939  0.2775
15935SOL     OW48585   5.691   0.214   7.985 -0.1697  0.3391 -0.7954
15935SOL    HW148586   5.738   0.144   8.029  0.6177  2.7725  2.6705
15935SOL    HW248587   5.637   0.254   8.054 -2.6084  1.5678 -3.1910
15936SOL     OW48588   7.667   3.904   2.787 -0.1013 -0.5704  0.3691
15936SOL    HW148589   7.585   3.856   2.782 -0.5093  0.2228 -1.2646
15936SOL    HW248590   7.690   3.922   2.696  1.6476 -0.3627  0.8136
15937SOL     OW48591   6.014   8.191   0.435 -0.8412  0.4227 -0.5223
15937SOL    HW148592   5.983   8.224   0.351 -1.0619  1.7507  0.0424
15937SOL    HW248593   6.087   8.133   0.413 -1.2495  0.3151 -1.6469
15938SOL     OW48594   6.974   2.693   2.176 -0.1964 -0.1162 -0.1118
15938SOL    HW148595   6.908   2.643   2.224 -0.0476  0.1720  0.4127
15938SOL    HW248596   6.929   2.772   2.148  0.0089  0.2525  0.5656
15939SOL     OW48597   7.205   1.497   2.469 -0.0440  0.5644 -0.4395
15939SOL    HW148598   7.160   1.413   2.476  0.4310  0.4029  1.1535
15939SOL    HW248599   7.174   1.534   2.387 -0.9776 -0.7534 -0.7154
15940SOL     OW48600   3.540   7.744   6.661  0.2934 -0.1043 -0.2079
15940SOL    HW148601   3.486   7.718   6.735  0.7753  0.6278  0.4137
15940SOL    HW248602   3.611   7.795   6.699  1.9050 -1.7264 -0.9001
15941SOL     OW48603   2.841   6.502   2.390 -0.4443 -0.1622 -0.5648
15941SOL    HW148604   2.846   6.589   2.430 -1.2469 -0.9464  1.3901
15941SOL    HW248605   2.825   6.443   2.464  1.7005 -2.2046 -1.5777
15942SOL     OW48606   0.053   1.305   7.849 -0.8269 -0.2432  0.1196
15942SOL    HW148607   0.039   1.350   7.766 -0.3971 -2.1381 -1.0271
15942SOL    HW248608  -0.034   1.302   7.890 -1.2459 -0.2281 -0.7600
15943SOL     OW48609   1.653   2.494   3.147  0.6691  0.3891 -0.2366
15943SOL    HW148610   1.658   2.581   3.188  2.2493 -0.0501  0.5854
15943SOL    HW248611   1.669   2.511   3.054  1.1623  0.9770 -0.0573
15944SOL     OW48612   1.227   6.348   8.170 -0.2843 -0.1671  0.2289
15944SOL    HW148613   1.265   6.436   8.165  0.3153 -0.4088  0.4498
15944SOL    HW248614   1.301   6.289   8.153 -0.8441 -0.6055 -0.7279
15945SOL     OW48615   3.257   1.646   0.440  0.2803  0.3032  0.0301
15945SOL    HW148616   3.231   1.639   0.348 -0.4399  0.6703  0.1937
15945SOL    HW248617   3.308   1.567   0.457 -0.3393 -0.2138 -0.4559
15946SOL     OW48618   4.151   1.049   1.003  0.4371 -0.4226 -0.3416
15946SOL    HW148619   4.118   1.010   0.923 -0.9565  0.1780 -0.0853
15946SOL    HW248620   4.083   1.032   1.068  0.4067  1.2487  0.0984
15947SOL     OW48621   0.016   5.334   0.696  0.2566 -0.1040  0.1547
15947SOL    HW148622   0.038   5.241   0.691  0.5522  0.0230 -3.1648
15947SOL    HW248623  -0.050   5.347   0.628 -1.4763  1.7743  2.0261
15948SOL     OW48624   5.732   1.209   1.866  0.4830 -0.2178 -0.2195
15948SOL    HW148625   5.689   1.136   1.822 -0.4165 -0.0972  0.4299
15948SOL    HW248626   5.817   1.174   1.894 -0.4175 -1.3913  1.1446
15949SOL     OW48627   2.318   2.717   6.861 -0.1033  0.1054 -0.5502
15949SOL    HW148628   2.267   2.637   6.851  0.7582 -0.4907 -0.3357
15949SOL    HW248629   2.323   2.754   6.772  1.4564 -1.3389 -1.1193
15950SOL     OW48630   3.257   1.676   3.263  0.2184  0.2748  1.1175
15950SOL    HW148631   3.220   1.631   3.339 -1.6805 -1.4672 -0.6968
15950SOL    HW248632   3.212   1.760   3.260  0.5575  0.5050  2.0637
15951SOL     OW48633   4.857   3.930   1.519  0.0822 -0.6528 -0.2881
15951SOL    HW148634   4.887   3.917   1.429 -0.8518 -1.2634 -0.5200
15951SOL    HW248635   4.913   3.872   1.571  0.3455 -0.6116 -0.5248
15952SOL     OW48636   2.989   0.695   0.665 -0.5703  0.1221 -0.1833
15952SOL    HW148637   3.070   0.723   0.708 -0.0925 -0.9786 -0.3116
15952SOL    HW248638   2.977   0.758   0.594 -0.3740  0.8840  0.4505
15953SOL     OW48639   0.050   7.604   1.490 -0.8347 -0.0447 -0.2251
15953SOL    HW148640  -0.014   7.668   1.459  1.0464  2.9226  1.4893
15953SOL    HW248641   0.117   7.603   1.422 -0.0108  1.2913  0.5060
15954SOL     OW48642   1.950   7.613   6.534  0.0225  0.5069 -0.0343
15954SOL    HW148643   1.979   7.600   6.625  1.7006  0.3067 -0.5559
15954SOL    HW248644   1.908   7.531   6.511 -1.8255  1.0982  1.0141
15955SOL     OW48645   1.924   3.461   4.796 -0.3925  0.3528 -1.0613
15955SOL    HW148646   1.941   3.515   4.719 -0.7857 -0.8801 -2.0442
15955SOL    HW248647   1.867   3.515   4.850  1.3392  1.9681 -0.7270
15956SOL     OW48648   1.532   6.443   3.470  0.2148  0.4438 -0.4722
15956SOL    HW148649   1.496   6.531   3.455 -0.5647  0.2845  0.3407
15956SOL    HW248650   1.510   6.394   3.391 -1.6693  0.2727  0.1047
15957SOL     OW48651   4.121   2.773   3.316 -0.1899 -0.0665  0.5885
15957SOL    HW148652   4.127   2.863   3.286 -1.1303 -0.4517 -0.8791
15957SOL    HW248653   4.140   2.720   3.238 -0.8616 -1.1273  1.1169
15958SOL     OW48654   3.596   4.791   1.122  0.4930  0.1973  0.0664
15958SOL    HW148655   3.649   4.712   1.113  0.9751  0.3707  1.1668
15958SOL    HW248656   3.567   4.789   1.213  0.1511  1.0645 -0.0196
15959SOL     OW48657   2.974   1.683   5.737  0.4797 -0.2372 -0.1863
15959SOL    HW148658   2.969   1.705   5.830 -0.7107 -0.7960 -0.0877
15959SOL    HW248659   3.033   1.608   5.733  0.9144  0.0931  0.0607
15960SOL     OW48660   1.719   7.697   4.409 -0.0807  0.2796 -0.3811
15960SOL    HW148661   1.637   7.689   4.457 -0.6524  1.1136 -1.1805
15960SOL    HW248662   1.693   7.701   4.317  1.0504 -2.2907 -0.8977
15961SOL     OW48663   3.090   3.387   1.397 -0.0989  0.0876 -0.0907
15961SOL    HW148664   3.168   3.333   1.388  0.5045  1.1353 -1.6622
15961SOL    HW248665   3.031   3.356   1.328 -1.5286 -1.3210  1.6549
15962SOL     OW48666   7.126   8.147   7.557 -0.2505  0.2383 -0.3061
15962SOL    HW148667   7.153   8.138   7.466 -0.1928  0.5011 -0.3142
15962SOL    HW248668   7.085   8.233   7.562 -0.9538 -0.0880 -0.2609
15963SOL     OW48669   4.851   1.000   0.556 -0.0569 -0.1894 -0.0613
15963SOL    HW148670   4.863   0.997   0.461 -1.4851  0.6065 -0.2784
15963SOL    HW248671   4.935   0.967   0.591  0.8512  0.4282 -1.5598
15964SOL     OW48672   5.820   1.660   8.303  0.6523  0.0480  0.4584
15964SOL    HW148673   5.879   1.598   8.260 -0.0052  0.1383 -0.6347
15964SOL    HW248674   5.838   1.744   8.261  0.3744  0.2572  0.7482
15965SOL     OW48675   5.842   8.299   5.289 -0.1216 -0.0103  0.2501
15965SOL    HW148676   5.867   8.370   5.349  1.1295  0.6806 -1.0202
15965SOL    HW248677   5.907   8.304   5.219 -2.6912  0.5273 -2.2413
15966SOL     OW48678   8.263   7.725   3.701 -0.3337 -0.9124  0.2539
15966SOL    HW148679   8.354   7.742   3.677 -0.6684 -0.4566 -0.7336
15966SOL    HW248680   8.253   7.630   3.694 -0.0463 -0.9231 -0.0285
15967SOL     OW48681   2.329   7.284   5.886 -0.0019 -0.2023  0.0174
15967SOL    HW148682   2.323   7.188   5.888 -0.5800 -0.1663  0.3238
15967SOL    HW248683   2.362   7.307   5.973  0.6971 -0.1531 -0.2558
15968SOL     OW48684   5.804   5.886   2.336  0.3560 -0.5330 -0.0375
15968SOL    HW148685   5.785   5.796   2.311  0.7698 -0.1046 -2.0546
15968SOL    HW248686   5.816   5.933   2.253 -0.9841  1.6581  0.9045
15969SOL     OW48687   7.726   3.095   7.982  0.2590  0.0332  0.4564
15969SOL    HW148688   7.714   3.031   8.051 -0.8022 -0.8888 -0.5415
15969SOL    HW248689   7.643   3.094   7.933  0.7811  1.0442 -0.5061
15970SOL     OW48690   3.935   2.606   8.094  0.4748  0.6732  0.1184
15970SOL    HW148691   4.023   2.644   8.094  0.8276 -0.0978  0.9163
15970SOL    HW248692   3.932   2.552   8.015  1.0566 -0.0126  0.5484
15971SOL     OW48693   1.568   0.677   5.188  0.4033 -0.8563  0.5469
15971SOL    HW148694   1.503   0.637   5.130 -0.7217  0.7323  0.6535
15971SOL    HW248695   1.610   0.603   5.232 -0.8609 -1.9458 -0.0234
15972SOL     OW48696   1.527   5.712   3.909  0.4867 -0.2913  0.3402
15972SOL    HW148697   1.530   5.796   3.955  1.1315 -0.5650  0.8178
15972SOL    HW248698   1.449   5.718   3.853  0.7667  0.7784  0.0455
15973SOL     OW48699   5.520   8.089   0.512 -0.2725  0.0853  0.1108
15973SOL    HW148700   5.557   8.020   0.456 -0.8079 -0.2903  0.2025
15973SOL    HW248701   5.588   8.156   0.517 -0.7220  0.7999 -2.1530
15974SOL     OW48702   3.101   5.415   5.231  0.4623 -0.1278  0.2866
15974SOL    HW148703   3.060   5.483   5.283 -0.0885 -0.1850 -0.0664
15974SOL    HW248704   3.156   5.463   5.169 -0.4924  0.0493 -0.4529
15975SOL     OW48705   7.763   2.745   0.265  0.1326 -0.7407 -0.3848
15975SOL    HW148706   7.771   2.712   0.175  3.2901 -0.9272 -0.1460
15975SOL    HW248707   7.777   2.667   0.319 -1.1405 -0.5164  0.2931
15976SOL     OW48708   7.406   0.983   4.433  0.1872 -0.3866 -0.1308
15976SOL    HW148709   7.355   0.910   4.469 -0.0075 -0.0667  0.2526
15976SOL    HW248710   7.383   0.984   4.340 -1.2272  0.3220  0.2009
15977SOL     OW48711   5.792   0.446   6.746  0.3825 -0.2585  0.0777
15977SOL    HW148712   5.799   0.396   6.664 -1.0859  0.7550 -0.7069
15977SOL    HW248713   5.862   0.512   6.740 -0.4595  0.5697 -0.9357
15978SOL     OW48714   6.233   4.654   4.592  1.7168 -0.2055 -0.3754
15978SOL    HW148715   6.250   4.622   4.681  0.0401  0.9871  0.4412
15978SOL    HW248716   6.249   4.748   4.598 -3.3793  0.9239  0.2424
15979SOL     OW48717   5.112   7.771   6.568 -0.2925 -0.3228 -0.1458
15979SOL    HW148718   5.195   7.738   6.601 -1.4380 -2.4618  0.7443
15979SOL    HW248719   5.046   7.709   6.600 -2.5062  2.3297  0.8371
15980SOL     OW48720   0.871   1.299   1.818  0.3299  0.3473 -0.4490
15980SOL    HW148721   0.850   1.206   1.820 -0.2888  0.4681 -0.8377
15980SOL    HW248722   0.961   1.304   1.849  0.3736 -0.3810 -0.4329
15981SOL     OW48723   4.833   1.502   1.256 -0.1596 -0.0159 -0.0222
15981SOL    HW148724   4.845   1.465   1.169  0.8125  0.3634 -0.0644
15981SOL    HW248725   4.909   1.559   1.268 -0.8943  0.8543  0.6053
15982SOL     OW48726   0.567   4.862   6.531 -0.4960 -0.6339  0.8577
15982SOL    HW148727   0.507   4.790   6.512 -0.8936 -0.0276 -0.2993
15982SOL    HW248728   0.520   4.918   6.593 -2.4512  1.3561 -2.1271
15983SOL     OW48729   6.196   5.280   5.257  0.5167 -0.3432 -0.1949
15983SOL    HW148730   6.269   5.263   5.318 -1.0613 -0.4068  1.7755
15983SOL    HW248731   6.210   5.370   5.228  1.5442 -0.4625 -0.1125
15984SOL     OW48732   4.590   7.829   6.654  0.0240  0.3249  0.3984
15984SOL    HW148733   4.664   7.887   6.674 -0.3388  1.6938 -1.8758
15984SOL    HW248734   4.512   7.881   6.675 -0.3306 -0.5141  1.2439
15985SOL     OW48735   1.709   0.350   2.987  0.5200 -0.0170  0.0464
15985SOL    HW148736   1.725   0.256   2.985  0.9424  0.0446  0.3469
15985SOL    HW248737   1.649   0.366   2.915 -0.8903 -0.7630  1.0093
15986SOL     OW48738   1.890   7.226   7.192  0.0515  0.5456 -0.2310
15986SOL    HW148739   1.936   7.164   7.250  0.3799 -0.4431 -1.4964
15986SOL    HW248740   1.908   7.193   7.104 -1.0341  1.6042 -0.8665
15987SOL     OW48741   8.240   2.885   0.980  0.1735  0.6506 -0.9778
15987SOL    HW148742   8.263   2.978   0.983 -0.3830  0.8575 -2.2721
15987SOL    HW248743   8.152   2.881   1.017  0.4896  0.5218 -0.2292
15988SOL     OW48744   8.252   7.282   4.415  0.1490 -0.0385  0.4026
15988SOL    HW148745   8.190   7.323   4.475  0.4174  2.1910 -0.7196
15988SOL    HW248746   8.197   7.239   4.349 -0.3093  1.8234 -0.5209
15989SOL     OW48747   6.301   6.306   7.744  0.6553  0.1495 -0.1455
15989SOL    HW148748   6.339   6.237   7.798 -0.4208  0.2700  0.8154
15989SOL    HW248749   6.211   6.276   7.727  0.4947  0.8444 -0.5618
15990SOL     OW48750   3.013   5.484   2.313 -0.3066 -0.4667 -0.1807
15990SOL    HW148751   3.085   5.502   2.374 -0.4712 -0.6478  0.0703
15990SOL    HW248752   2.962   5.416   2.356 -1.3788  0.5819  0.2504
15991SOL     OW48753   5.950   6.740   5.045 -0.0865 -0.2182  0.0844
15991SOL    HW148754   6.031   6.698   5.074 -0.2215 -1.6888 -1.4937
15991SOL    HW248755   5.979   6.816   4.995  0.2649  0.0012  0.6116
15992SOL     OW48756   4.778   2.889   8.015  0.1913 -1.2205 -0.2557
15992SOL    HW148757   4.820   2.975   8.010  0.4523 -1.4021 -1.6884
15992SOL    HW248758   4.742   2.875   7.927 -2.1221 -1.4645  0.6511
15993SOL     OW48759   3.070   3.633   5.582 -0.1127  0.3923  0.5209
15993SOL    HW148760   3.086   3.696   5.512  1.1958  0.2381  0.6641
15993SOL    HW248761   3.090   3.679   5.663  0.6102 -0.1201  0.6427
15994SOL     OW48762   6.282   1.263   7.945 -0.2443  0.3830 -0.0968
15994SOL    HW148763   6.289   1.185   7.891 -0.1163  0.0791  0.3578
15994SOL    HW248764   6.224   1.321   7.895  0.1450  0.2451 -0.7181
15995SOL     OW48765   2.571   3.143   2.608 -0.3077  0.4740 -0.3426
15995SOL    HW148766   2.480   3.167   2.590 -0.0021  0.6833 -1.7422
15995SOL    HW248767   2.571   3.047   2.610 -0.4868  0.4599 -0.8238
15996SOL     OW48768   5.849   8.058   5.991  0.1187  0.2546  0.0616
15996SOL    HW148769   5.812   8.143   5.970 -0.3008  0.0845  0.1010
15996SOL    HW248770   5.871   8.020   5.906  1.3324  0.8499  0.0946
15997SOL     OW48771   0.102   5.068   0.290  0.9652 -0.8957  0.1018
15997SOL    HW148772   0.060   5.064   0.204  1.5309  0.7983 -0.3073
15997SOL    HW248773   0.055   5.005   0.344  1.0649 -2.5462 -1.6413
15998SOL     OW48774   5.332   6.039   3.521  0.3487  0.3746  0.0952
15998SOL    HW148775   5.251   6.043   3.572  0.2273  0.6605 -0.1154
15998SOL    HW248776   5.391   5.985   3.573  0.3247  0.9034  0.6799
15999SOL     OW48777   2.823   2.902   6.973  0.3723 -0.2765  0.4325
15999SOL    HW148778   2.753   2.929   6.913  0.0654 -0.0131  0.8985
15999SOL    HW248779   2.787   2.826   7.019 -0.4421  1.0795  2.1402
16000SOL     OW48780   5.772   0.539   4.310  0.1707 -0.2074  0.0737
16000SOL    HW148781   5.708   0.601   4.274  1.2516 -0.1443 -1.8810
16000SOL    HW248782   5.856   0.571   4.280  0.8030 -2.3973 -0.6918
16001SOL     OW48783   2.873   3.464   2.551  0.1429  0.1081 -0.2500
16001SOL    HW148784   2.938   3.524   2.588  0.5381 -0.7896  0.5332
16001SOL    HW248785   2.867   3.393   2.615 -1.9223  0.3707 -0.0863
16002SOL     OW48786   7.693   5.178   4.940 -0.1020 -0.9260 -0.0740
16002SOL    HW148787   7.622   5.204   4.999  0.2519 -0.3825  0.1215
16002SOL    HW248788   7.773   5.186   4.992  0.2472 -0.1062 -0.7084
16003SOL     OW48789   3.474   4.512   6.863 -0.1897  0.3462  0.1539
16003SOL    HW148790   3.519   4.592   6.837  2.9320 -0.8223  1.4064
16003SOL    HW248791   3.529   4.442   6.827 -1.8101 -1.2487  0.6608
16004SOL     OW48792   1.199   0.114   4.002 -0.0128  0.2916 -0.3284
16004SOL    HW148793   1.236   0.132   3.915 -0.7354 -0.2764 -0.7696
16004SOL    HW248794   1.113   0.155   4.000 -0.6012 -0.9087 -0.3976
16005SOL     OW48795   4.803   6.001   3.376 -0.1886 -0.1503  0.3260
16005SOL    HW148796   4.845   6.081   3.345  2.1087 -1.4343 -0.0872
16005SOL    HW248797   4.861   5.930   3.347 -1.8581 -1.9495  1.1290
16006SOL     OW48798   5.348   6.445   0.681 -0.1473  0.0103 -0.1296
16006SOL    HW148799   5.263   6.414   0.650 -0.6760  1.1669  0.1391
16006SOL    HW248800   5.368   6.388   0.755 -0.2228 -0.8953 -0.7892
16007SOL     OW48801   2.419   3.496   3.271  0.1572 -0.1568 -0.2142
16007SOL    HW148802   2.397   3.584   3.241 -0.8603 -0.0286  0.8091
16007SOL    HW248803   2.335   3.457   3.293  0.7482 -0.5728  1.4685
16008SOL     OW48804   1.128   3.825   2.032  0.4377 -1.1767  0.3701
16008SOL    HW148805   1.196   3.791   2.089  0.0075 -0.5278  1.3026
16008SOL    HW248806   1.150   3.792   1.945  1.4176 -1.7254  0.8146
16009SOL     OW48807   0.055   0.029   5.669  0.5620  0.0213 -0.8112
16009SOL    HW148808   0.105  -0.014   5.737  0.6044  0.3013 -0.6656
16009SOL    HW248809   0.012  -0.043   5.622 -0.7864 -0.1016  0.5212
16010SOL     OW48810   0.650   6.439   3.106 -0.0783 -0.2873 -0.0003
16010SOL    HW148811   0.560   6.471   3.110  0.2037  0.5385 -0.1726
16010SOL    HW248812   0.704   6.515   3.127  0.5534 -1.0039  1.0547
16011SOL     OW48813   6.802   1.852   1.750  0.1123 -0.5566 -0.0721
16011SOL    HW148814   6.805   1.844   1.845 -0.6101  0.0218  0.0073
16011SOL    HW248815   6.893   1.844   1.723  0.3152 -0.8342  0.6531
16012SOL     OW48816   3.675   0.463   0.599  0.3762 -0.4328  0.2971
16012SOL    HW148817   3.648   0.518   0.526  0.4019 -0.6291  0.1378
16012SOL    HW248818   3.706   0.525   0.665  1.6899 -0.2987 -0.3992
16013SOL     OW48819   3.218   5.706   7.118 -0.1664 -0.7092 -0.0632
16013SOL    HW148820   3.303   5.697   7.161  0.4410 -0.6250 -1.2130
16013SOL    HW248821   3.219   5.640   7.048 -0.5295  0.1237 -0.8840
16014SOL     OW48822   3.797   7.803   1.682 -0.1780  0.2894 -0.0770
16014SOL    HW148823   3.887   7.776   1.701 -0.7480 -1.0187  1.0113
16014SOL    HW248824   3.804   7.860   1.606  1.6688  1.0208  0.5748
16015SOL     OW48825   5.515   1.766   5.482  0.1878  0.3913 -0.5118
16015SOL    HW148826   5.502   1.835   5.547 -0.1067  0.2420 -0.4111
16015SOL    HW248827   5.428   1.748   5.448  0.2507 -0.0046 -0.4643
16016SOL     OW48828   1.763   1.415   3.137  0.4529  0.3185 -0.1242
16016SOL    HW148829   1.785   1.322   3.133 -0.1861  0.0143  2.0474
16016SOL    HW248830   1.737   1.429   3.228 -1.5964  2.1525 -0.9239
16017SOL     OW48831   4.620   5.448   4.268  0.0643 -0.1327 -0.3160
16017SOL    HW148832   4.709   5.483   4.273  0.1426 -0.4331  0.7357
16017SOL    HW248833   4.632   5.353   4.272 -0.1862 -0.3038 -2.3992
16018SOL     OW48834   5.226   2.789   2.528  0.7360 -0.1244 -0.2324
16018SOL    HW148835   5.278   2.741   2.463  1.0337 -0.6140  0.3565
16018SOL    HW248836   5.263   2.763   2.612 -1.3250 -1.5232  0.3047
16019SOL     OW48837   2.007   3.456   6.112  0.0694  0.0321 -0.1269
16019SOL    HW148838   2.078   3.517   6.091  1.0326 -1.0998 -0.3085
16019SOL    HW248839   2.038   3.409   6.189  0.0626 -1.2738 -0.8733
16020SOL     OW48840   6.433   3.575   5.304 -0.3186 -0.8439  0.2748
16020SOL    HW148841   6.450   3.495   5.254 -0.2566  0.1629 -1.3952
16020SOL    HW248842   6.343   3.565   5.335 -0.8402 -0.9173 -1.2039
16021SOL     OW48843   2.391   1.778   1.494  0.2361 -0.2751  0.2982
16021SOL    HW148844   2.369   1.765   1.586 -0.1215 -0.1829  0.2264
16021SOL    HW248845   2.326   1.726   1.446 -0.4163  0.7379  0.0548
16022SOL     OW48846   6.778   2.331   0.830 -0.0032 -0.3880 -0.1750
16022SOL    HW148847   6.698   2.319   0.881 -0.3542  2.2417  0.0021
16022SOL    HW248848   6.848   2.329   0.895  0.0597 -2.0116 -0.2503
16023SOL     OW48849   1.783   7.316   1.172 -0.2813 -0.3288  0.2082
16023SOL    HW148850   1.779   7.308   1.267 -1.4113  0.5431  0.2563
16023SOL    HW248851   1.876   7.306   1.151  0.0323 -0.1493  1.4417
16024SOL     OW48852   8.266   5.097   0.901  0.1787 -0.3214 -0.7526
16024SOL    HW148853   8.244   5.038   0.974  1.7854 -1.3820 -1.0656
16024SOL    HW248854   8.362   5.095   0.898  0.2099  1.3452 -1.5973
16025SOL     OW48855   7.948   5.630   5.529 -0.2835  0.1178  0.2690
16025SOL    HW148856   7.895   5.700   5.491 -0.7733  0.4886  1.5600
16025SOL    HW248857   7.897   5.550   5.513  0.2275  0.0437 -1.1178
16026SOL     OW48858   5.148   5.998   1.625 -0.8255  0.0457  0.3690
16026SOL    HW148859   5.169   6.086   1.594  0.3357 -0.2006  0.4213
16026SOL    HW248860   5.193   5.939   1.565  0.0081 -0.4704  1.4544
16027SOL     OW48861   6.531   0.035   2.682 -0.7535  0.5199  0.0136
16027SOL    HW148862   6.598   0.065   2.621 -1.9721  0.0167 -1.6248
16027SOL    HW248863   6.477   0.113   2.699  0.3225  0.9903  1.5311
16028SOL     OW48864   6.393   1.695   0.971  0.0126  0.1293  0.0782
16028SOL    HW148865   6.469   1.637   0.979 -0.4198 -0.1627  3.6942
16028SOL    HW248866   6.318   1.635   0.962 -0.0613  0.3063 -0.5072
16029SOL     OW48867   4.283   6.322   4.451  0.3947  0.4850  0.1738
16029SOL    HW148868   4.198   6.279   4.444  0.8526 -0.2650 -1.2065
16029SOL    HW248869   4.262   6.414   4.467 -0.6882  0.3444 -0.3460
16030SOL     OW48870   8.015   6.427   1.528  0.6318 -0.0333  0.9358
16030SOL    HW148871   7.968   6.356   1.484  0.5084  0.6973 -0.1504
16030SOL    HW248872   8.103   6.424   1.491  0.4000  0.8718  0.3145
16031SOL     OW48873   6.058   6.452   2.324 -0.0929  0.2062  0.0279
16031SOL    HW148874   6.031   6.404   2.402  0.7368  0.1490  0.2923
16031SOL    HW248875   6.146   6.419   2.305  0.0233  0.7879 -0.4657
16032SOL     OW48876   5.130   7.393   5.644 -0.5702  0.1137  0.3988
16032SOL    HW148877   5.180   7.315   5.619 -0.8819 -0.1264  0.5125
16032SOL    HW248878   5.041   7.361   5.656 -1.1241  0.8661 -1.5144
16033SOL     OW48879   0.821   7.901   7.631 -0.7965  0.4795  0.4200
16033SOL    HW148880   0.896   7.849   7.658 -1.0121 -0.2375 -0.3003
16033SOL    HW248881   0.804   7.960   7.704  1.5600  1.9145 -0.1096
16034SOL     OW48882   5.474   7.557   6.604  0.3883 -0.1969 -0.1482
16034SOL    HW148883   5.524   7.476   6.612 -0.2387 -0.4151  3.0955
16034SOL    HW248884   5.382   7.529   6.610  0.1216  0.6358 -0.1594
16035SOL     OW48885   6.383   6.784   5.713  0.4042  0.1034 -0.5743
16035SOL    HW148886   6.387   6.705   5.660 -2.3609 -1.5819  1.4677
16035SOL    HW248887   6.409   6.756   5.801  0.2437  1.6709  0.0069
16036SOL     OW48888   4.632   5.376   6.095 -0.0458  0.4766 -0.0427
16036SOL    HW148889   4.697   5.359   6.163  0.3099  0.0167 -0.4891
16036SOL    HW248890   4.653   5.313   6.026 -0.3929  0.9406 -0.5804
16037SOL     OW48891   6.722   0.252   5.560  0.3569  0.2466  0.5308
16037SOL    HW148892   6.706   0.299   5.642 -0.2894 -0.8859  1.0789
16037SOL    HW248893   6.635   0.231   5.527  0.6306 -0.3600  0.1745
16038SOL     OW48894   4.709   6.118   0.213 -0.5804  0.1996  0.3511
16038SOL    HW148895   4.667   6.203   0.205  0.4973  0.7696  0.5439
16038SOL    HW248896   4.641   6.060   0.247 -1.3407  0.9611  0.1441
16039SOL     OW48897   1.630   5.271   0.923 -0.0203 -0.1524 -0.2597
16039SOL    HW148898   1.605   5.179   0.930  1.4882 -0.5225  0.7321
16039SOL    HW248899   1.688   5.286   0.998  0.7648  1.2673 -1.1036
16040SOL     OW48900   5.694   0.901   5.823 -0.0811  0.5263 -0.1439
16040SOL    HW148901   5.600   0.916   5.811 -0.0003  1.1021 -0.0826
16040SOL    HW248902   5.736   0.979   5.786  0.3597  0.3995  0.0799
16041SOL     OW48903   0.631   0.944   6.094  0.4316 -0.1994 -0.2964
16041SOL    HW148904   0.693   1.007   6.058  0.1703 -1.2674 -2.7673
16041SOL    HW248905   0.682   0.865   6.107 -0.2408 -0.9140 -1.8118
16042SOL     OW48906   5.138   7.395   3.523 -0.3043  0.3122 -0.0334
16042SOL    HW148907   5.182   7.444   3.453 -0.9587  2.2083  0.8019
16042SOL    HW248908   5.146   7.303   3.498  1.2540  0.8203 -1.5400
16043SOL     OW48909   2.761   0.610   3.131  0.3644  0.7960 -0.3471
16043SOL    HW148910   2.817   0.564   3.192 -0.1766  0.3570 -0.1720
16043SOL    HW248911   2.678   0.621   3.178 -0.4741 -0.6505 -1.4253
16044SOL     OW48912   3.845   4.019   7.737 -0.4778  0.2403  0.0056
16044SOL    HW148913   3.842   3.975   7.652 -2.4202 -0.3193  0.3144
16044SOL    HW248914   3.811   3.955   7.799  1.2616  0.5092  1.3050
16045SOL     OW48915   1.022   2.649   0.180 -0.1449 -0.1046  0.8012
16045SOL    HW148916   0.976   2.655   0.097  0.9552 -1.2578  0.0702
16045SOL    HW248917   1.115   2.647   0.156  0.1587 -1.5353  1.9756
16046SOL     OW48918   4.603   1.270   1.596  0.1194 -0.3378  0.0720
16046SOL    HW148919   4.629   1.201   1.658 -0.9234 -0.8443 -0.0399
16046SOL    HW248920   4.681   1.283   1.542  0.3796 -1.3303  0.1882
16047SOL     OW48921   2.684   0.237   7.820  0.9626 -0.9428  0.1775
16047SOL    HW148922   2.680   0.288   7.901 -0.8775 -1.2997  0.3343
16047SOL    HW248923   2.770   0.193   7.824  2.2247  1.3809  0.4550
16048SOL     OW48924   0.341   4.532   1.878  0.0076 -0.2425  0.3477
16048SOL    HW148925   0.369   4.458   1.825  0.7208  0.1176  0.2127
16048SOL    HW248926   0.298   4.591   1.816 -1.1861 -0.8424  0.5722
16049SOL     OW48927   7.932   4.967   3.288 -0.1358  0.1968  0.0372
16049SOL    HW148928   7.969   4.971   3.200 -0.5205 -1.3392 -0.2281
16049SOL    HW248929   7.954   5.051   3.328  0.3570  0.7695 -1.3991
16050SOL     OW48930   5.771   1.277   7.224 -0.3602 -0.5689 -0.2157
16050SOL    HW148931   5.678   1.296   7.231 -0.2441  1.5976 -2.8879
16050SOL    HW248932   5.807   1.303   7.308 -1.7697  1.6344 -0.2078
16051SOL     OW48933   2.923   2.695   1.973 -0.7135  0.6323 -0.4526
16051SOL    HW148934   2.984   2.622   1.971  1.0667  1.9703  1.0283
16051SOL    HW248935   2.932   2.732   2.061 -2.2757  2.0340 -0.8216
16052SOL     OW48936   6.840   1.211   3.338 -0.0585  0.0803  0.2493
16052SOL    HW148937   6.873   1.232   3.251  1.5852 -0.1319  0.8012
16052SOL    HW248938   6.856   1.118   3.348 -0.6260  0.0183  0.6433
16053SOL     OW48939   4.152   3.327   7.487 -0.0037 -0.1314  0.4687
16053SOL    HW148940   4.213   3.281   7.429  0.4472  0.3353  0.5641
16053SOL    HW248941   4.066   3.298   7.458  0.2720 -1.2375  0.6901
16054SOL     OW48942   1.672   4.153   3.432  0.1741  0.0476 -0.1569
16054SOL    HW148943   1.641   4.095   3.502 -2.2412  0.9167 -0.4113
16054SOL    HW248944   1.756   4.186   3.464 -1.4018  1.4471  3.0353
16055SOL     OW48945   1.096   8.269   5.672  0.1495  0.7777  0.6183
16055SOL    HW148946   1.171   8.278   5.730 -1.0125  1.7619  2.0567
16055SOL    HW248947   1.039   8.205   5.715 -0.1571  0.5638 -0.0857
16056SOL     OW48948   4.462   0.360   2.028 -0.6473 -0.8242  0.3190
16056SOL    HW148949   4.391   0.310   1.989 -0.1340 -0.7887 -0.6913
16056SOL    HW248950   4.535   0.351   1.966 -0.1531  0.1310  0.7417
16057SOL     OW48951   7.078   5.428   3.795  0.5395 -0.2068  0.5246
16057SOL    HW148952   7.114   5.375   3.866 -0.9704  0.2882  1.7279
16057SOL    HW248953   7.139   5.501   3.786  2.5276 -1.9279 -1.0036
16058SOL     OW48954   0.624   2.928   3.302  0.0962  0.1322  0.0843
16058SOL    HW148955   0.613   2.995   3.370  1.0237  0.2712  0.1161
16058SOL    HW248956   0.576   2.852   3.334  0.4832  0.2126  0.8846
16059SOL     OW48957   5.471   1.992   5.646  0.1755  0.5342 -0.2690
16059SOL    HW148958   5.419   2.041   5.582  1.6156  1.2455 -0.9331
16059SOL    HW248959   5.406   1.950   5.702 -1.1831 -0.9033 -2.7407
16060SOL     OW48960   7.288   7.484   5.438 -0.2652 -0.0168 -0.6690
16060SOL    HW148961   7.333   7.567   5.423 -2.0674  1.1790  0.0907
16060SOL    HW248962   7.358   7.420   5.451  1.2322  1.8165  0.9858
16061SOL     OW48963   1.163   5.740   6.380  0.6029 -0.6496 -0.1765
16061SOL    HW148964   1.069   5.741   6.400  0.9687  0.1997  1.7705
16061SOL    HW248965   1.190   5.649   6.396  0.0042 -1.0896 -1.5163
16062SOL     OW48966   1.641   5.673   4.626 -0.4446  0.4234  0.4978
16062SOL    HW148967   1.577   5.606   4.651 -1.0574  1.2028  1.0891
16062SOL    HW248968   1.628   5.684   4.532 -0.7458  0.1141  0.5012
16063SOL     OW48969   6.040   5.703   6.537 -0.4777  0.2350 -0.6163
16063SOL    HW148970   6.020   5.795   6.554 -1.0291  0.0063  0.0372
16063SOL    HW248971   6.006   5.686   6.449 -1.6365  0.3063 -0.2017
16064SOL     OW48972   4.550   1.578   1.203  0.3550 -0.1927 -0.0919
16064SOL    HW148973   4.571   1.579   1.110  0.1293  1.4335 -0.1541
16064SOL    HW248974   4.628   1.542   1.245  0.8762  0.0731 -0.8155
16065SOL     OW48975   0.555   7.013   8.246 -0.3824 -0.1365 -0.3321
16065SOL    HW148976   0.553   6.927   8.287 -0.0360  1.0873  2.4446
16065SOL    HW248977   0.644   7.044   8.258 -0.5831  0.7640 -1.0055
16066SOL     OW48978   4.378   4.228   6.956 -0.1896  0.0929 -0.5771
16066SOL    HW148979   4.363   4.190   6.869 -0.0942 -4.1762  1.0748
16066SOL    HW248980   4.296   4.216   7.002 -0.1701  2.1335  0.0805
16067SOL     OW48981   6.956   8.283   3.535  0.0823 -0.1606 -0.4823
16067SOL    HW148982   6.880   8.225   3.541 -1.3498  1.0261 -4.2549
16067SOL    HW248983   6.945   8.344   3.608 -2.3606 -0.3309 -0.6119
16068SOL     OW48984   2.825   3.164   4.709  0.2813  0.5351  0.5236
16068SOL    HW148985   2.761   3.229   4.737  1.0687  2.0205 -0.9568
16068SOL    HW248986   2.775   3.082   4.703 -1.2628  1.4525  0.3217
16069SOL     OW48987   3.898   5.654   2.035 -1.0255  0.7194  0.2798
16069SOL    HW148988   3.820   5.623   2.081 -1.7930  1.5145 -0.4316
16069SOL    HW248989   3.967   5.593   2.059 -1.7952  0.1890  1.1861
16070SOL     OW48990   4.499   7.810   4.388 -0.1451  0.0457 -0.2213
16070SOL    HW148991   4.508   7.902   4.412  1.7763  0.6404 -2.7569
16070SOL    HW248992   4.563   7.797   4.318 -0.9251 -3.0342 -0.5152
16071SOL     OW48993   2.151   3.779   4.286  0.3430  0.0488  0.1525
16071SOL    HW148994   2.156   3.690   4.250  0.9103 -0.0156  0.3645
16071SOL    HW248995   2.144   3.836   4.210 -0.1787 -0.1871  0.0199
16072SOL     OW48996   0.202   2.659   7.580 -0.1990  0.2775  0.3277
16072SOL    HW148997   0.243   2.745   7.592 -1.4213  0.7132  1.7885
16072SOL    HW248998   0.209   2.618   7.666 -1.1043 -0.4058  0.0863
16073SOL     OW48999   7.037   5.256   5.899  0.0072  0.3641 -0.6962
16073SOL    HW149000   7.056   5.343   5.932 -1.2817 -0.1234  1.5282
16073SOL    HW249001   6.952   5.265   5.855 -0.3646  0.1353 -0.0278
16074SOL     OW49002   0.785   2.016   7.017  0.1804 -0.1031 -0.2137
16074SOL    HW149003   0.749   2.053   6.936 -0.4929 -1.3415 -0.5030
16074SOL    HW249004   0.799   2.092   7.074  0.8046  0.8055 -1.5319
16075SOL     OW49005   5.694   2.329   7.195  0.3734 -0.1528  0.1113
16075SOL    HW149006   5.752   2.356   7.267  1.0552 -3.4507  0.9611
16075SOL    HW249007   5.606   2.350   7.227  0.8354  1.2518  0.5370
16076SOL     OW49008   1.367   0.458   1.069 -0.1710 -0.3568  0.2973
16076SOL    HW149009   1.451   0.503   1.058 -0.6264  0.7930  1.3196
16076SOL    HW249010   1.390   0.365   1.064  1.2071 -0.0750  0.7684
16077SOL     OW49011   2.946   2.664   6.244 -0.2383 -0.2200 -0.1779
16077SOL    HW149012   2.907   2.692   6.327  0.2478 -1.1534  0.3924
16077SOL    HW249013   2.908   2.578   6.227  0.9230 -0.7827 -0.0314
16078SOL     OW49014   5.730   1.582   8.009 -0.0124 -0.2794  0.6895
16078SOL    HW149015   5.694   1.564   8.096  0.2572  0.8924  1.0645
16078SOL    HW249016   5.747   1.496   7.972 -2.3274 -0.8727  0.8537
16079SOL     OW49017   7.586   1.358   3.035 -0.4348  0.1373  0.4379
16079SOL    HW149018   7.573   1.307   3.115  0.6735  1.0572  1.2434
16079SOL    HW249019   7.498   1.384   3.008 -0.8530 -0.5429  1.1267
16080SOL     OW49020   4.654   4.950   3.373 -0.0174 -0.1930  0.2318
16080SOL    HW149021   4.627   4.902   3.451  2.0252  0.3102  1.3353
16080SOL    HW249022   4.734   4.907   3.344 -0.2476  0.1888 -1.0768
16081SOL     OW49023   7.757   0.960   5.088 -0.1190  0.0314 -0.4159
16081SOL    HW149024   7.758   1.055   5.095 -0.0361 -0.0493  0.9384
16081SOL    HW249025   7.665   0.935   5.097 -0.0794 -0.0529 -0.2431
16082SOL     OW49026   4.856   7.842   8.004  0.1260  0.0463  0.3162
16082SOL    HW149027   4.899   7.824   8.088 -2.4634  2.6002  2.4088
16082SOL    HW249028   4.924   7.829   7.939  2.7402 -0.5149  2.9487
16083SOL     OW49029   5.855   0.634   3.302  0.7237 -0.3584  0.2487
16083SOL    HW149030   5.803   0.554   3.296  1.5464 -1.0235  1.4254
16083SOL    HW249031   5.791   0.705   3.303 -0.2369 -1.1730  2.2202
16084SOL     OW49032   3.075   1.877   4.056 -0.0316  0.1630 -0.4681
16084SOL    HW149033   3.090   1.888   3.962  1.5017 -0.4397 -0.3275
16084SOL    HW249034   3.142   1.814   4.083 -0.4628  0.3214  1.0307
16085SOL     OW49035   0.748   5.189   7.298  0.6553 -0.5899  0.5693
16085SOL    HW149036   0.662   5.230   7.311  1.1303  0.6736 -0.1315
16085SOL    HW249037   0.764   5.141   7.379 -0.1486  0.2241  1.2307
16086SOL     OW49038   6.541   6.336   2.936  0.0094  0.1312 -0.3315
16086SOL    HW149039   6.524   6.245   2.962 -2.0203  0.9344  1.4810
16086SOL    HW249040   6.456   6.380   2.946  0.7165  2.0587 -2.0497
16087SOL     OW49041   0.672   4.992   4.004 -0.5684 -0.0882  0.1775
16087SOL    HW149042   0.634   4.929   4.066  1.7406  0.0378  1.8761
16087SOL    HW249043   0.673   4.947   3.920 -0.3252 -1.7764  1.0528
16088SOL     OW49044   1.821   0.801   6.423 -0.1801  0.0752 -1.0852
16088SOL    HW149045   1.914   0.820   6.435 -0.5266  0.0682  2.9579
16088SOL    HW249046   1.810   0.713   6.459 -1.6557 -0.2570 -2.2656
16089SOL     OW49047   6.812   4.802   6.993  0.2319 -0.5085  0.1478
16089SOL    HW149048   6.890   4.762   7.033  0.0956  1.4042  2.5982
16089SOL    HW249049   6.744   4.736   7.004  0.8818 -1.1252  0.5919
16090SOL     OW49050   3.289   3.602   4.394  0.0309 -0.0805 -0.6650
16090SOL    HW149051   3.335   3.587   4.476  0.1806  1.9932 -0.3053
16090SOL    HW249052   3.276   3.515   4.356 -0.7531 -1.1738  1.9193
16091SOL     OW49053   3.627   1.964   3.231  0.0841 -0.1495 -0.0645
16091SOL    HW149054   3.571   1.985   3.305 -0.8133  0.8106 -0.9874
16091SOL    HW249055   3.633   1.868   3.232 -0.2657 -0.1748  0.9747
16092SOL     OW49056   3.524   6.761   7.926 -0.9281 -0.2348 -0.0652
16092SOL    HW149057   3.431   6.745   7.912 -0.9150  0.2182 -0.7341
16092SOL    HW249058   3.563   6.674   7.935 -1.2779 -0.4623 -0.7152
16093SOL     OW49059   4.286   3.976   7.337 -0.0756 -0.3557 -0.2672
16093SOL    HW149060   4.212   4.036   7.327  0.1606  1.2751  4.9881
16093SOL    HW249061   4.257   3.896   7.293 -1.4977  2.4370 -5.3179
16094SOL     OW49062   0.720   3.421   7.033 -0.3211  0.1622 -0.6001
16094SOL    HW149063   0.673   3.371   7.100 -0.6873  3.0247  1.4875
16094SOL    HW249064   0.795   3.459   7.080 -0.8026  2.5945 -1.6231
16095SOL     OW49065   7.931   4.438   4.258 -0.0306  0.0717 -0.2874
16095SOL    HW149066   7.928   4.512   4.197 -0.9473  0.2205 -0.0758
16095SOL    HW249067   7.905   4.475   4.342  0.8775 -0.2083  0.1316
16096SOL     OW49068   7.621   3.581   2.999  0.5975  0.0478 -0.3990
16096SOL    HW149069   7.586   3.580   2.910 -0.2342 -0.8212 -0.0866
16096SOL    HW249070   7.643   3.672   3.016 -0.9048  0.5249 -0.8700
16097SOL     OW49071   2.463   1.755   0.973  0.2573 -0.3285 -0.0338
16097SOL    HW149072   2.369   1.748   0.954  0.4533 -1.6086 -0.6227
16097SOL    HW249073   2.492   1.831   0.923 -1.1668  2.6213  3.1963
16098SOL     OW49074   0.478   2.969   2.212  0.4976 -0.0637  0.7313
16098SOL    HW149075   0.442   2.886   2.243 -0.5747  0.8472  2.0295
16098SOL    HW249076   0.402   3.019   2.183  0.9967  0.9263  1.0957
16099SOL     OW49077   5.402   8.101   1.391 -0.1491 -0.1689  0.1179
16099SOL    HW149078   5.427   8.147   1.311  1.7562 -1.5637 -0.1467
16099SOL    HW249079   5.309   8.081   1.378  0.3250 -1.1916 -2.2163
16100SOL     OW49080   7.938   5.492   5.115  0.2270  0.0101 -0.2954
16100SOL    HW149081   7.873   5.561   5.132  0.2228 -0.1291  0.2998
16100SOL    HW249082   7.962   5.503   5.024  0.4550  0.9992 -0.1218
16101SOL     OW49083   4.018   7.891   1.146  0.1915 -0.0984 -0.4469
16101SOL    HW149084   4.058   7.828   1.206  1.8372  1.0809 -0.2123
16101SOL    HW249085   3.952   7.935   1.198  1.1463  0.4484  0.3342
16102SOL     OW49086   6.663   6.444   2.464 -0.2782  0.5019 -0.5319
16102SOL    HW149087   6.617   6.508   2.409  0.6474 -0.9127 -3.1147
16102SOL    HW249088   6.654   6.361   2.417  0.7228 -0.7756  1.4173
16103SOL     OW49089   1.660   0.079   2.980  0.1267  0.2669  0.5065
16103SOL    HW149090   1.587   0.020   3.004  1.0898 -0.2354  2.4549
16103SOL    HW249091   1.738   0.027   2.996  0.9628  1.3488  0.0410
16104SOL     OW49092   1.560   6.048   3.709  0.3517  0.3581  0.4083
16104SOL    HW149093   1.586   6.138   3.729 -0.1578  0.6553 -0.2342
16104SOL    HW249094   1.552   6.046   3.614  1.0368 -0.5618  0.3515
16105SOL     OW49095   2.391   4.382   0.885 -0.0487  0.2605 -0.2668
16105SOL    HW149096   2.342   4.329   0.947 -0.2169  1.9001  1.0881
16105SOL    HW249097   2.479   4.389   0.922  0.6967 -1.0089 -1.6660
16106SOL     OW49098   3.055   5.135   2.820  0.1236 -0.1240  0.3298
16106SOL    HW149099   3.036   5.083   2.898  1.0177  0.5648  1.0288
16106SOL    HW249100   3.143   5.171   2.835 -0.8157  2.3879  0.3265
16107SOL     OW49101   4.864   8.308   6.931  0.0109 -0.2283 -0.2584
16107SOL    HW149102   4.957   8.333   6.934  0.6189 -2.2378  3.1508
16107SOL    HW249103   4.865   8.214   6.917 -1.4638 -0.4097  0.6694
16108SOL     OW49104   2.245   2.679   1.519 -0.3847 -0.0300  0.5915
16108SOL    HW149105   2.244   2.603   1.462 -0.4770  0.4902 -0.1139
16108SOL    HW249106   2.238   2.643   1.607 -0.7035 -0.8187  0.2525
16109SOL     OW49107   6.657   3.301   1.302  0.5831  0.0848 -0.1998
16109SOL    HW149108   6.580   3.347   1.333  0.2749  0.4806 -1.5016
16109SOL    HW249109   6.717   3.370   1.273  0.7535 -0.2618 -0.6954
16110SOL     OW49110   7.630   6.662   7.449 -0.6044  0.0963 -0.4036
16110SOL    HW149111   7.540   6.657   7.416 -0.6527  0.5158 -0.3402
16110SOL    HW249112   7.644   6.755   7.466  0.3018  0.2343 -1.7024
16111SOL     OW49113   6.243   8.235   2.052  0.2493  0.2173  0.0687
16111SOL    HW149114   6.323   8.251   2.103  1.3141 -1.0835 -1.1237
16111SOL    HW249115   6.183   8.195   2.115  0.9364  0.1885  0.7197
16112SOL     OW49116   4.087   8.282   7.026 -0.2219  0.3063  0.1485
16112SOL    HW149117   4.150   8.351   7.003 -0.5780  0.6398  0.1747
16112SOL    HW249118   4.001   8.324   7.019 -0.5150 -0.4300 -0.9263
16113SOL     OW49119   1.347   7.132   8.135  0.1783  0.0671  0.5112
16113SOL    HW149120   1.261   7.152   8.097 -0.3474 -0.8820  1.1439
16113SOL    HW249121   1.393   7.216   8.138  0.0946  0.2620 -1.8145
16114SOL     OW49122   0.573   0.253   1.587 -0.6447  0.5773 -0.2593
16114SOL    HW149123   0.511   0.326   1.590 -0.5742  0.6432 -0.3823
16114SOL    HW249124   0.524   0.181   1.547 -0.6133  0.6597 -0.4512
16115SOL     OW49125   8.171   4.805   4.803  0.2996 -0.3193 -0.7063
16115SOL    HW149126   8.259   4.808   4.767 -0.2377 -0.4994 -2.0667
16115SOL    HW249127   8.133   4.725   4.768 -0.7572  0.2840 -0.9985
16116SOL     OW49128   6.035   7.113   1.261  0.0015  0.0586  0.3959
16116SOL    HW149129   5.994   7.028   1.247  0.9707 -0.4438  0.5049
16116SOL    HW249130   5.987   7.151   1.335  0.0213 -0.7058  0.8176
16117SOL     OW49131   5.227   6.115   4.730 -0.3030 -0.2390 -0.1446
16117SOL    HW149132   5.231   6.155   4.643 -0.0973 -0.4019 -0.2099
16117SOL    HW249133   5.267   6.179   4.789 -1.0788  0.1789 -0.0560
16118SOL     OW49134   7.262   3.122   4.084 -0.0565 -0.2982 -0.5441
16118SOL    HW149135   7.252   3.171   4.002  0.0620 -2.8100 -2.1521
16118SOL    HW249136   7.214   3.174   4.148 -1.4841  0.9763 -2.5127
16119SOL     OW49137   0.790   1.516   6.932  0.0269  0.2444 -0.2221
16119SOL    HW149138   0.806   1.433   6.889 -0.9429 -0.6348  1.0643
16119SOL    HW249139   0.872   1.535   6.978 -0.2045 -0.6789  0.5761
16120SOL     OW49140   1.479   3.713   3.134  0.4481 -0.1120 -0.4083
16120SOL    HW149141   1.454   3.803   3.113 -4.1492 -0.7995  0.9299
16120SOL    HW249142   1.498   3.714   3.228 -3.3202 -0.8842  0.5519
16121SOL     OW49143   1.120   4.186   5.622  0.1128  0.5244  0.1269
16121SOL    HW149144   1.069   4.266   5.634 -1.0550 -0.2002  0.0897
16121SOL    HW249145   1.186   4.209   5.555 -0.6294  1.2609 -0.3654
16122SOL     OW49146   2.229   5.865   4.471  0.3548 -0.4275  0.3930
16122SOL    HW149147   2.267   5.946   4.436 -1.0909  0.3454  0.5316
16122SOL    HW249148   2.299   5.801   4.463  1.5592  0.8372  0.3001
16123SOL     OW49149   7.350   1.850   0.202 -0.4711  0.2292 -0.5373
16123SOL    HW149150   7.362   1.812   0.115  1.5201  0.1828 -0.2911
16123SOL    HW249151   7.413   1.922   0.206 -1.0292  0.6881  0.6185
16124SOL     OW49152   6.530   6.412   4.188  0.4643  0.6106 -0.0587
16124SOL    HW149153   6.500   6.422   4.098  0.2861 -1.3999 -0.2674
16124SOL    HW249154   6.493   6.329   4.217  2.8781 -0.2295  0.8761
16125SOL     OW49155   1.862   0.278   1.229  0.0378  0.1241 -0.8334
16125SOL    HW149156   1.931   0.222   1.195  0.4363  0.6755 -0.9414
16125SOL    HW249157   1.783   0.223   1.226  0.8537 -1.3518  1.5313
16126SOL     OW49158   1.394   4.310   6.195  0.5858  0.4821 -0.1093
16126SOL    HW149159   1.332   4.299   6.123  0.2005 -0.4974  0.3369
16126SOL    HW249160   1.396   4.404   6.212  0.1088  0.6416 -0.8989
16127SOL     OW49161   3.682   3.849   3.924 -0.0149  0.0709  0.4144
16127SOL    HW149162   3.721   3.936   3.930 -0.1723  0.0601  2.2533
16127SOL    HW249163   3.595   3.864   3.887  0.2878  0.5682 -0.1192
16128SOL     OW49164   3.711   6.903   5.470  0.7042  0.1237 -0.1448
16128SOL    HW149165   3.748   6.990   5.455  0.0214  0.7980  1.7581
16128SOL    HW249166   3.648   6.915   5.541 -2.3094 -1.2109 -2.3815
16129SOL     OW49167   4.478   5.789   0.500 -0.0009  0.3380  0.0083
16129SOL    HW149168   4.457   5.732   0.574  1.0899  0.0290  0.1001
16129SOL    HW249169   4.572   5.807   0.509 -0.3949  2.5118  0.2146
16130SOL     OW49170   3.191   1.976   4.334 -0.1752  0.6671  0.3703
16130SOL    HW149171   3.255   2.047   4.336 -1.3070  1.7428  0.0221
16130SOL    HW249172   3.152   1.981   4.247 -1.8330  1.1083  1.0845
16131SOL     OW49173   5.159   4.944   2.573  0.3188 -0.6878  0.0872
16131SOL    HW149174   5.140   5.027   2.531  1.5808  0.4677  1.6796
16131SOL    HW249175   5.085   4.887   2.549 -0.5317  0.8397 -1.0781
16132SOL     OW49176   4.568   4.830   0.667 -0.1479 -0.3635 -0.1210
16132SOL    HW149177   4.517   4.749   0.670  1.1240 -1.1621  1.6761
16132SOL    HW249178   4.659   4.801   0.669  0.3316  1.0910  0.0536
16133SOL     OW49179   5.638   1.406   6.066  0.5023 -0.0128 -0.1210
16133SOL    HW149180   5.700   1.398   6.139  0.5374  1.3120  0.0019
16133SOL    HW249181   5.685   1.456   5.999  0.2501 -0.6836 -0.8273
16134SOL     OW49182   6.035   3.763   0.655 -0.0556 -0.0110 -0.1005
16134SOL    HW149183   6.005   3.783   0.567  1.8781 -0.8756 -1.0058
16134SOL    HW249184   6.091   3.837   0.679 -1.7390  0.9600  1.0564
16135SOL     OW49185   3.089   4.086   6.699 -0.0314 -1.0267 -0.3231
16135SOL    HW149186   3.021   4.121   6.757  0.9298  2.0815 -0.8641
16135SOL    HW249187   3.171   4.099   6.748  0.4755 -1.6795 -0.9723
16136SOL     OW49188   3.087   0.902   0.326 -0.2532  0.3785  0.2595
16136SOL    HW149189   3.018   0.841   0.301 -1.2730  1.5435  0.1138
16136SOL    HW249190   3.166   0.867   0.285 -0.9514 -0.4313 -0.4394
16137SOL     OW49191   0.795   0.602   5.838 -0.4357 -0.3611  0.8055
16137SOL    HW149192   0.730   0.563   5.779  0.0187 -0.1051  0.1273
16137SOL    HW249193   0.816   0.686   5.798 -1.3156  0.5687  2.1862
16138SOL     OW49194   2.231   2.574   1.773  0.0689 -0.1282  0.0778
16138SOL    HW149195   2.278   2.492   1.789 -0.1307  0.1482  2.4628
16138SOL    HW249196   2.285   2.642   1.813 -1.2196  0.4697  0.9149
16139SOL     OW49197   4.591   1.048   2.669  0.5439  0.2116 -0.2458
16139SOL    HW149198   4.549   1.110   2.727  1.5645 -0.4283  1.2349
16139SOL    HW249199   4.523   1.025   2.605 -0.8088  0.5110  1.0238
16140SOL     OW49200   2.656   8.041   3.906  0.7471  0.0448 -0.3498
16140SOL    HW149201   2.651   8.128   3.866  0.8332  0.1581 -0.1120
16140SOL    HW249202   2.707   7.989   3.844  1.4837  0.4106 -0.0534
16141SOL     OW49203   4.422   4.441   4.222 -0.4466 -0.0368  0.0536
16141SOL    HW149204   4.421   4.461   4.128  0.8333 -0.3576 -0.0546
16141SOL    HW249205   4.346   4.487   4.257 -0.7321  0.4013 -1.0815
16142SOL     OW49206   1.297   3.649   5.490  0.1925 -0.0765  0.4509
16142SOL    HW149207   1.337   3.688   5.412  1.7660 -1.4676  0.5119
16142SOL    HW249208   1.229   3.592   5.455 -1.0818  1.4856  0.2857
16143SOL     OW49209   2.691   5.962   3.450  0.5091 -0.0407 -0.1560
16143SOL    HW149210   2.637   6.013   3.510  1.0669 -0.9593  1.1483
16143SOL    HW249211   2.705   6.021   3.376 -1.4049  0.5826 -0.0786
16144SOL     OW49212   6.050   2.369   3.878  0.1682  0.4071 -0.5471
16144SOL    HW149213   6.094   2.431   3.937  1.1529 -1.7475  1.1442
16144SOL    HW249214   6.079   2.395   3.790  1.7834  1.3941  0.2321
16145SOL     OW49215   5.686   7.600   4.894 -0.2818  0.0555 -0.2101
16145SOL    HW149216   5.736   7.536   4.844 -0.5228  0.0127 -0.3988
16145SOL    HW249217   5.623   7.548   4.945  0.4682  0.0383  0.7357
16146SOL     OW49218   0.762   3.862   5.487 -0.2982  0.2648  0.4750
16146SOL    HW149219   0.818   3.786   5.505 -0.1841  0.1368 -0.3443
16146SOL    HW249220   0.789   3.928   5.550 -0.3787 -0.3657  1.1886
16147SOL     OW49221   6.174   4.224   0.685 -0.0763  0.1764  0.6811
16147SOL    HW149222   6.181   4.315   0.658 -0.9776 -0.4917 -2.1474
16147SOL    HW249223   6.102   4.223   0.749 -0.0361  1.4293  0.7641
16148SOL     OW49224   7.301   7.258   7.059  0.0269  0.0791  0.2337
16148SOL    HW149225   7.301   7.331   7.121  0.8254 -0.2841  0.6669
16148SOL    HW249226   7.324   7.298   6.975 -0.9881  0.5569  0.1609
16149SOL     OW49227   4.401   7.166   2.178 -0.2494  0.1496 -0.1690
16149SOL    HW149228   4.328   7.158   2.116 -0.8045 -0.2416  0.5239
16149SOL    HW249229   4.449   7.084   2.169 -0.7416 -0.2106  0.4243
16150SOL     OW49230   7.851   7.778   5.389 -0.2100  0.1417  0.9070
16150SOL    HW149231   7.808   7.748   5.309 -1.4753  0.7661  1.3226
16150SOL    HW249232   7.785   7.833   5.432  0.8449  0.7240  1.8230
16151SOL     OW49233   5.384   2.697   1.675  0.2394 -0.2636  0.4673
16151SOL    HW149234   5.359   2.614   1.715 -1.5204 -0.0246 -0.0594
16151SOL    HW249235   5.324   2.762   1.712  1.6282  0.8178  0.9348
16152SOL     OW49236   5.828   1.320   5.428 -0.3848  0.6970  0.6669
16152SOL    HW149237   5.845   1.407   5.463  0.0109 -0.5023  3.7466
16152SOL    HW249238   5.907   1.270   5.448 -1.3867 -0.8888  0.8396
16153SOL     OW49239   1.407   0.379   3.311  0.2647 -0.1604 -0.3797
16153SOL    HW149240   1.349   0.311   3.346 -0.8828  0.2086 -1.4891
16153SOL    HW249241   1.390   0.379   3.217  2.0684 -0.0036 -0.7485
16154SOL     OW49242   3.934   7.183   6.647 -0.1643  0.4143 -0.3568
16154SOL    HW149243   3.909   7.267   6.685  0.1226  1.2071 -1.8420
16154SOL    HW249244   4.028   7.191   6.630 -0.3328  0.2146 -1.4617
16155SOL     OW49245   1.256   0.294   0.695  0.4565 -0.1714 -0.4212
16155SOL    HW149246   1.234   0.332   0.610  1.7563  0.1662 -0.6177
16155SOL    HW249247   1.351   0.286   0.695  0.3796 -1.4613  0.4632
16156SOL     OW49248   2.500   4.857   4.147  0.3930 -0.3266 -0.0311
16156SOL    HW149249   2.416   4.825   4.179  0.0880  0.6713  0.1994
16156SOL    HW249250   2.480   4.939   4.102  1.0576 -0.7934 -1.2463
16157SOL     OW49251   7.125   0.929   3.506  0.0311 -0.2978  0.6082
16157SOL    HW149252   7.070   0.949   3.581 -1.1135  0.5832 -0.4236
16157SOL    HW249253   7.081   0.857   3.462 -1.0662  1.2325 -0.9261
16158SOL     OW49254   3.547   3.850   5.505 -0.6285  0.0373  0.0891
16158SOL    HW149255   3.546   3.915   5.575  0.3528 -0.1037  0.2442
16158SOL    HW249256   3.530   3.901   5.425 -2.9462  0.0413  0.4983
16159SOL     OW49257   6.263   5.327   0.602 -0.1789  0.7324  0.0683
16159SOL    HW149258   6.176   5.354   0.573 -0.6156 -0.7124 -0.0693
16159SOL    HW249259   6.322   5.395   0.570 -1.3666  2.2630  1.0501
16160SOL     OW49260   1.073   5.959   8.285 -0.2724 -0.3376  0.0205
16160SOL    HW149261   1.013   5.919   8.348 -0.3903  0.0633  0.1635
16160SOL    HW249262   1.151   5.979   8.335  0.5648 -2.1659 -0.4602
16161SOL     OW49263   1.120   3.447   1.571 -0.2311  0.3321  0.3808
16161SOL    HW149264   1.101   3.448   1.477  1.3573  0.1247  0.0323
16161SOL    HW249265   1.214   3.435   1.576 -0.5573 -2.1109  2.0578
16162SOL     OW49266   4.080   4.980   5.539  0.4086 -0.2579  0.1161
16162SOL    HW149267   3.990   4.959   5.566  0.5313  0.2439  0.9406
16162SOL    HW249268   4.132   4.905   5.566  0.4022 -0.0990  0.5762
16163SOL     OW49269   4.507   7.113   6.237 -0.5207  0.0683  0.0639
16163SOL    HW149270   4.532   7.021   6.230 -1.6481 -0.2187 -0.6877
16163SOL    HW249271   4.579   7.156   6.283  0.8158 -0.8655 -1.0982
16164SOL     OW49272   1.802   0.913   2.167 -0.1271 -0.2976 -0.3534
16164SOL    HW149273   1.859   0.837   2.162  0.1985 -0.1767  1.1412
16164SOL    HW249274   1.713   0.878   2.158 -0.0491 -1.0156  1.4094
16165SOL     OW49275   3.623   2.125   5.200 -0.2861 -0.0923 -0.5813
16165SOL    HW149276   3.695   2.123   5.263  0.5175  0.5669 -1.4430
16165SOL    HW249277   3.551   2.082   5.245  0.0242  1.0257  1.0869
16166SOL     OW49278   4.176   3.579   5.618 -0.4765  0.3150 -0.3262
16166SOL    HW149279   4.272   3.574   5.614 -0.5474 -0.9356 -0.9398
16166SOL    HW249280   4.151   3.508   5.676 -1.1143 -0.4047 -1.4675
16167SOL     OW49281   5.679   5.762   3.423  0.6654  0.7325  0.2051
16167SOL    HW149282   5.733   5.802   3.491  1.8839 -0.1899 -0.1803
16167SOL    HW249283   5.714   5.798   3.341 -0.3505  1.3219  0.0177
16168SOL     OW49284   7.630   3.615   5.377 -0.2994 -0.0087 -0.7694
16168SOL    HW149285   7.642   3.675   5.303  1.7584 -1.2821 -1.5255
16168SOL    HW249286   7.700   3.637   5.438 -1.3340  0.3047  0.3558
16169SOL     OW49287   3.128   5.083   5.827  0.9221 -0.8340  0.0001
16169SOL    HW149288   3.146   5.010   5.768  1.3846 -0.3981 -0.4022
16169SOL    HW249289   3.148   5.049   5.914  0.9707 -1.2406 -0.1693
16170SOL     OW49290   1.315   3.769   0.435  0.1543 -0.1424  0.3493
16170SOL    HW149291   1.247   3.832   0.410  0.7646  0.2498 -0.3616
16170SOL    HW249292   1.351   3.740   0.351 -0.9274 -2.3682  0.5881
16171SOL     OW49293   3.896   2.797   6.621  0.0002 -0.3426  0.8309
16171SOL    HW149294   3.959   2.832   6.558 -0.9501  2.2024  1.1732
16171SOL    HW249295   3.946   2.792   6.703  0.2599 -0.1447  0.6859
16172SOL     OW49296   4.980   7.537   8.290 -0.1863 -0.4831  0.2117
16172SOL    HW149297   4.908   7.488   8.330 -0.8952  0.6657  0.3772
16172SOL    HW249298   5.029   7.571   8.365 -2.7391  3.5091  0.3622
16173SOL     OW49299   7.823   4.237   4.941  0.2758  1.0506 -0.0929
16173SOL    HW149300   7.840   4.263   4.851 -0.2929  1.6609 -0.0297
16173SOL    HW249301   7.909   4.212   4.976  0.4760  0.6559 -0.8433
16174SOL     OW49302   6.656   5.825   4.604 -0.4145 -0.3656  0.1973
16174SOL    HW149303   6.692   5.896   4.551  1.3516  0.0307  1.7948
16174SOL    HW249304   6.609   5.770   4.542  1.2809  0.2234 -1.7375
16175SOL     OW49305   5.629   5.076   5.582 -0.1264 -0.5003 -0.0417
16175SOL    HW149306   5.584   4.999   5.547 -1.4308  0.0748  0.3187
16175SOL    HW249307   5.588   5.150   5.539  2.2974  0.0032 -1.7336
16176SOL     OW49308   7.122   3.729   8.004  0.2593  0.4169  0.5940
16176SOL    HW149309   7.212   3.720   8.037  0.7397  1.2275 -0.4118
16176SOL    HW249310   7.129   3.795   7.935 -0.6983 -1.1731 -1.1025
16177SOL     OW49311   8.229   6.157   0.721 -0.4268 -0.3630 -0.0367
16177SOL    HW149312   8.283   6.080   0.701  1.9266  0.8121  1.4345
16177SOL    HW249313   8.165   6.160   0.650  0.5822 -2.6002 -1.1460
16178SOL     OW49314   7.359   3.240   5.805 -0.5773 -0.2894 -0.6737
16178SOL    HW149315   7.291   3.206   5.746 -0.1274  0.5282 -1.6983
16178SOL    HW249316   7.395   3.162   5.847 -1.5925 -0.8018 -0.7118
16179SOL     OW49317   4.045   8.299   1.226 -0.0019 -0.0933 -0.2070
16179SOL    HW149318   4.095   8.381   1.225  2.4298 -1.4875 -2.3107
16179SOL    HW249319   4.045   8.269   1.136 -1.3501 -2.1688  0.4003
16180SOL     OW49320   7.797   1.939   3.033 -0.0146  1.0568  0.4576
16180SOL    HW149321   7.856   1.988   2.976 -0.5873 -0.2358 -1.3215
16180SOL    HW249322   7.853   1.873   3.075  0.1553  1.1019  0.3014
16181SOL     OW49323   0.551   4.659   1.572  0.2437  0.1879  0.2942
16181SOL    HW149324   0.565   4.564   1.573 -0.3499 -0.0228 -2.4945
16181SOL    HW249325   0.633   4.694   1.537  0.5409  0.7634  1.5152
16182SOL     OW49326   3.069   2.315   6.012  0.0668  0.7548 -0.7632
16182SOL    HW149327   3.164   2.306   6.000 -0.0410 -1.6818 -0.1918
16182SOL    HW249328   3.036   2.336   5.925  1.1725  2.3409 -0.8380
16183SOL     OW49329   5.631   6.914   1.460  0.5474  0.2924 -0.4324
16183SOL    HW149330   5.570   6.983   1.436  0.6115  0.0034 -1.5158
16183SOL    HW249331   5.576   6.837   1.476  0.4695  0.5970  0.8508
16184SOL     OW49332   5.107   5.481   4.466 -0.4634  0.2171  0.4563
16184SOL    HW149333   5.060   5.461   4.385  1.0299  0.0800 -0.4248
16184SOL    HW249334   5.126   5.394   4.504 -0.5352  0.2589  0.5914
16185SOL     OW49335   7.760   2.346   7.392  0.5269  0.0226  0.4517
16185SOL    HW149336   7.712   2.404   7.453 -0.6598 -0.4384 -0.0054
16185SOL    HW249337   7.824   2.302   7.447 -0.2892 -0.1209  1.3147
16186SOL     OW49338   0.596   2.800   0.473  0.2096 -0.4597 -0.3324
16186SOL    HW149339   0.585   2.823   0.565 -0.6738 -2.1413  0.0167
16186SOL    HW249340   0.510   2.816   0.434  0.1115 -1.3103 -0.4836
16187SOL     OW49341   3.937   4.715   5.099 -0.4330  0.1460 -0.2566
16187SOL    HW149342   3.998   4.786   5.120  0.9585 -1.3365  0.9573
16187SOL    HW249343   3.904   4.737   5.012 -0.0464  2.2512  0.0699
16188SOL     OW49344   6.014   0.652   7.459  0.0671 -0.2187  0.5075
16188SOL    HW149345   6.040   0.717   7.394 -1.4874  0.2787  0.3356
16188SOL    HW249346   6.069   0.671   7.535  0.8261  0.1810 -0.1274
16189SOL     OW49347   4.480   2.519   2.244 -0.4367  0.3536  0.2127
16189SOL    HW149348   4.438   2.589   2.194 -0.9918  2.2688  3.1613
16189SOL    HW249349   4.542   2.565   2.302  1.5979 -1.9215 -0.0021
16190SOL     OW49350   6.580   0.382   6.296  0.2262  0.5994 -0.0072
16190SOL    HW149351   6.562   0.452   6.358  1.4212  0.4362  0.5566
16190SOL    HW249352   6.577   0.302   6.348 -1.4189  0.1721 -0.7006
16191SOL     OW49353   4.086   6.913   2.894 -0.0264 -0.2965 -0.3446
16191SOL    HW149354   4.024   6.845   2.922  2.4387 -2.2680  0.6544
16191SOL    HW249355   4.076   6.916   2.799 -1.8255 -0.3180 -0.2063
16192SOL     OW49356   1.946   5.739   5.271  0.5394 -0.0535  0.0870
16192SOL    HW149357   2.016   5.775   5.325  0.0574  0.8498  0.1338
16192SOL    HW249358   1.990   5.709   5.192  1.3195 -1.7506  1.0899
16193SOL     OW49359   6.872   0.109   3.748 -0.3322  0.2963  0.2530
16193SOL    HW149360   6.933   0.089   3.820  1.4963 -0.0204 -1.3180
16193SOL    HW249361   6.789   0.072   3.777  0.7380 -1.2333  1.5453
16194SOL     OW49362   4.551   0.645   1.596 -0.2877 -0.3170 -0.0615
16194SOL    HW149363   4.619   0.693   1.644 -0.9163  0.3388  0.1875
16194SOL    HW249364   4.493   0.713   1.561  1.1388 -0.5962 -3.3814
16195SOL     OW49365   0.457   1.843   3.259 -0.2915  0.1765 -0.1054
16195SOL    HW149366   0.444   1.821   3.167 -2.2126 -0.3173  0.2422
16195SOL    HW249367   0.394   1.788   3.306  0.0875  1.0047  1.4370
16196SOL     OW49368   6.736   4.335   8.146  0.5460  0.1569  0.0980
16196SOL    HW149369   6.760   4.295   8.230 -1.1848 -0.9303  0.1413
16196SOL    HW249370   6.736   4.429   8.164 -1.3778 -0.0875  1.8648
16197SOL     OW49371   2.941   7.254   2.070 -0.1719 -0.8321  0.1717
16197SOL    HW149372   2.937   7.161   2.093  2.3968 -1.3505 -1.1462
16197SOL    HW249373   2.871   7.265   2.006 -0.9864 -1.6760  0.8872
16198SOL     OW49374   8.061   0.948   7.086  0.0051 -0.1659 -0.0723
16198SOL    HW149375   7.987   0.893   7.062 -0.9616  0.2590  1.7354
16198SOL    HW249376   8.028   1.003   7.158  2.0748  0.0211  0.8162
16199SOL     OW49377   5.172   7.248   0.261 -0.4231  0.4365 -0.3019
16199SOL    HW149378   5.247   7.254   0.320 -0.3837  0.4425 -0.3529
16199SOL    HW249379   5.099   7.227   0.318 -0.5231  1.1712 -0.1491
16200SOL     OW49380   6.232   2.828   8.113 -0.0733  0.2134 -0.6201
16200SOL    HW149381   6.274   2.783   8.039 -0.3731 -0.3667 -0.4424
16200SOL    HW249382   6.223   2.919   8.084 -2.5133 -0.4833 -2.3498
16201SOL     OW49383   6.924   2.509   6.162  0.3761 -0.4071 -0.1091
16201SOL    HW149384   6.850   2.468   6.208 -0.5510  1.4263  0.1313
16201SOL    HW249385   6.936   2.456   6.084 -1.5785 -0.4488 -0.4342
16202SOL     OW49386   2.515   2.849   0.046  0.1930  0.0098  0.4439
16202SOL    HW149387   2.603   2.823   0.021 -0.0689 -0.6409  0.1811
16202SOL    HW249388   2.467   2.856  -0.037 -0.4933 -1.4791  0.6850
16203SOL     OW49389   6.845   0.581   3.608 -0.6070  0.2458 -0.5785
16203SOL    HW149390   6.859   0.676   3.609  0.6164  0.0694 -0.0257
16203SOL    HW249391   6.751   0.571   3.621 -0.6483  1.3691  0.1190
16204SOL     OW49392   0.451   1.268   0.676 -0.1965 -0.3204 -0.8562
16204SOL    HW149393   0.410   1.182   0.678 -2.3404  0.6022  2.0678
16204SOL    HW249394   0.542   1.252   0.703 -0.9724 -1.5934  1.3325
16205SOL     OW49395   6.894   6.924   3.614 -0.0006  0.8595 -0.1757
16205SOL    HW149396   6.988   6.914   3.606 -0.0730 -0.7849  0.6018
16205SOL    HW249397   6.883   7.000   3.671  0.7973  1.9817 -1.4738
16206SOL     OW49398   7.713   5.574   2.101 -0.6588  0.3774 -0.2623
16206SOL    HW149399   7.769   5.566   2.024 -0.0185  2.9818 -0.1531
16206SOL    HW249400   7.751   5.513   2.165 -1.8792 -2.7092 -2.2550
16207SOL     OW49401   2.539   5.702   3.183 -0.5122  0.1400  0.1651
16207SOL    HW149402   2.497   5.695   3.097 -1.5644 -0.9457  0.7248
16207SOL    HW249403   2.492   5.773   3.227  0.5326  1.2153 -0.3956
16208SOL     OW49404   1.959   4.979   5.951 -0.0689  0.2286 -0.4866
16208SOL    HW149405   1.937   4.964   5.859  0.9048 -1.2890 -0.5136
16208SOL    HW249406   2.022   4.910   5.972 -1.8217 -0.8059  1.8951
16209SOL     OW49407   5.538   6.044   3.349 -0.2871 -0.0236  0.2011
16209SOL    HW149408   5.594   6.112   3.387  1.0934  0.0682 -1.8233
16209SOL    HW249409   5.456   6.051   3.397  1.0307  0.5898  2.5450
16210SOL     OW49410   8.324   2.593   0.517 -0.0441 -0.0673  0.2906
16210SOL    HW149411   8.388   2.648   0.472  1.2881 -0.6953  1.3322
16210SOL    HW249412   8.334   2.615   0.610  0.3221 -1.8073  0.7116
16211SOL     OW49413   1.820   4.464   7.785 -0.8933 -0.0164 -0.0234
16211SOL    HW149414   1.738   4.444   7.739 -0.2033 -0.9919 -0.8697
16211SOL    HW249415   1.838   4.555   7.762 -2.2226  0.5329  0.9603
16212SOL     OW49416   6.644   2.226   1.943  0.5659  0.4274 -0.0366
16212SOL    HW149417   6.627   2.238   1.849 -2.0809 -0.9306  0.1738
16212SOL    HW249418   6.724   2.173   1.946 -0.0437 -0.6527 -1.5960
16213SOL     OW49419   7.201   5.072   1.597 -0.0705 -0.1459  0.5706
16213SOL    HW149420   7.136   5.111   1.655 -0.4321  0.5839 -0.2919
16213SOL    HW249421   7.273   5.135   1.596  0.9704 -1.2654  2.0442
16214SOL     OW49422   7.700   0.875   7.209 -0.0315 -0.5412 -0.5190
16214SOL    HW149423   7.718   0.966   7.185 -1.2788 -0.0179  0.4142
16214SOL    HW249424   7.737   0.824   7.137  1.4594  0.6367 -0.6487
16215SOL     OW49425   7.365   2.720   6.126  0.3622 -0.0714  0.2903
16215SOL    HW149426   7.381   2.704   6.219  0.9019  0.0642  0.2237
16215SOL    HW249427   7.293   2.661   6.104  1.6198 -1.6841  0.2977
16216SOL     OW49428   4.123   2.548   6.551 -0.3530 -0.0096  0.0615
16216SOL    HW149429   4.115   2.640   6.524 -1.0348 -0.0562  0.0986
16216SOL    HW249430   4.136   2.552   6.645  0.1659  0.0647 -0.0054
16217SOL     OW49431   5.741   3.880   6.792 -0.3925  0.4662  0.1596
16217SOL    HW149432   5.790   3.867   6.873 -1.0125 -0.4812  0.4026
16217SOL    HW249433   5.694   3.962   6.805 -1.3298 -0.2112  1.2197
16218SOL     OW49434   0.067   7.157   5.370  0.0712 -0.0369  0.3445
16218SOL    HW149435   0.091   7.176   5.460  0.7121 -0.3609  0.2468
16218SOL    HW249436   0.149   7.130   5.328 -0.0756  0.7885 -0.5157
16219SOL     OW49437   1.725   4.503   6.129 -0.0714  0.2779  0.1342
16219SOL    HW149438   1.712   4.565   6.057  1.4025  0.9555  0.4149
16219SOL    HW249439   1.697   4.419   6.093 -0.1196  0.7405 -0.9544
16220SOL     OW49440   4.548   0.488   5.936 -0.4018  0.0559  0.0484
16220SOL    HW149441   4.637   0.520   5.947 -0.8777  1.3603  0.3832
16220SOL    HW249442   4.520   0.524   5.852 -0.8021  0.1667  0.2241
16221SOL     OW49443   3.895   4.808   4.846  0.6065  0.9193  0.2140
16221SOL    HW149444   3.883   4.815   4.751 -1.2192  0.5433  0.3762
16221SOL    HW249445   3.945   4.886   4.870  1.0655  1.0298 -1.0518
16222SOL     OW49446   5.840   3.522   1.239 -0.3620 -0.0169  0.0663
16222SOL    HW149447   5.789   3.505   1.160 -0.3261 -2.5396  0.5083
16222SOL    HW249448   5.821   3.448   1.297  0.1492  1.3980  2.1720
16223SOL     OW49449   4.147   1.157   7.751  0.2980  0.5201  0.6019
16223SOL    HW149450   4.061   1.185   7.721 -0.1462  0.4245  1.7330
16223SOL    HW249451   4.139   1.063   7.764  0.7985  0.3892  0.0110
16224SOL     OW49452   7.057   0.126   2.573 -0.0114 -0.3589 -1.1451
16224SOL    HW149453   7.043   0.032   2.585 -0.9275 -0.2380 -1.1223
16224SOL    HW249454   7.026   0.143   2.484  0.4977 -0.1388 -1.2812
16225SOL     OW49455   6.095   6.384   1.522 -0.2513  0.2623 -0.0743
16225SOL    HW149456   6.066   6.309   1.471 -1.0173  0.1486  0.5011
16225SOL    HW249457   6.151   6.434   1.463  1.3500 -1.4247 -0.0784
16226SOL     OW49458   7.250   4.353   6.712  0.0208 -0.3912  0.3451
16226SOL    HW149459   7.331   4.335   6.664  0.2676 -0.2815  0.7158
16226SOL    HW249460   7.212   4.429   6.667 -0.5110 -1.1916 -0.5973
16227SOL     OW49461   0.323   7.464   7.208  0.4919  0.5561  0.0692
16227SOL    HW149462   0.365   7.378   7.198 -0.0680  0.3908 -1.0099
16227SOL    HW249463   0.395   7.527   7.199  1.2784  0.2036  2.9756
16228SOL     OW49464   8.138   5.570   8.164 -0.0258  0.0616  0.2397
16228SOL    HW149465   8.184   5.494   8.127  0.7283  1.0170 -0.8691
16228SOL    HW249466   8.113   5.543   8.252  1.5246 -0.9640  0.3986
16229SOL     OW49467   5.225   4.354   6.503 -0.0593  0.4229 -0.1767
16229SOL    HW149468   5.228   4.265   6.538  1.8193  0.8814  0.9737
16229SOL    HW249469   5.178   4.404   6.569  0.1039  0.5373 -0.1462
16230SOL     OW49470   5.511   5.137   3.427 -0.1002  0.0398  0.0263
16230SOL    HW149471   5.431   5.186   3.447  0.5011  1.8716 -1.7064
16230SOL    HW249472   5.507   5.123   3.332  1.9440  0.8668 -0.2436
16231SOL     OW49473   1.337   5.913   4.716 -0.1646 -0.0836 -0.0879
16231SOL    HW149474   1.285   5.842   4.754 -1.0185  0.7312  0.3007
16231SOL    HW249475   1.283   5.948   4.646  0.5534 -0.2685 -0.7476
16232SOL     OW49476   1.898   1.645   5.614  0.2329 -0.2597  0.0287
16232SOL    HW149477   1.827   1.628   5.553 -0.2668  0.2564  0.4535
16232SOL    HW249478   1.925   1.559   5.645  1.3478 -0.6466 -1.8442
16233SOL     OW49479   7.223   6.880   5.548 -0.5195  0.1130  1.1451
16233SOL    HW149480   7.252   6.968   5.525  1.3122 -0.4665  1.0915
16233SOL    HW249481   7.266   6.860   5.631  0.7197 -1.4483  0.1823
16234SOL     OW49482   5.849   7.222   6.302  0.2356  0.1777 -0.1073
16234SOL    HW149483   5.773   7.181   6.262  1.1321 -2.5575  0.7226
16234SOL    HW249484   5.820   7.310   6.326 -2.1529 -0.2486 -1.1906
16235SOL     OW49485   7.877   5.773   7.587  0.1601  0.6328 -0.3224
16235SOL    HW149486   7.906   5.707   7.649 -2.7828 -0.3550  0.1551
16235SOL    HW249487   7.875   5.728   7.503 -3.5823 -0.6679  0.2739
16236SOL     OW49488   2.177   6.378   7.147  0.4528 -0.5486  0.1637
16236SOL    HW149489   2.239   6.311   7.174  0.6241  0.2455  1.8782
16236SOL    HW249490   2.211   6.459   7.184 -1.6991 -0.1199  1.3778
16237SOL     OW49491   4.587   5.172   4.308 -0.4232  0.1529  0.3962
16237SOL    HW149492   4.602   5.134   4.222 -2.1547  0.8734 -0.2602
16237SOL    HW249493   4.653   5.131   4.364  0.0087 -1.1758 -1.0236
16238SOL     OW49494   0.661   2.545   7.871 -0.4919 -0.6238 -0.2165
16238SOL    HW149495   0.718   2.592   7.932  0.5890 -0.6437 -1.1806
16238SOL    HW249496   0.720   2.486   7.824 -1.2267 -0.3043 -1.5744
16239SOL     OW49497   5.730   4.945   6.020  0.1549  0.1688  0.3362
16239SOL    HW149498   5.818   4.911   6.003 -0.4497 -0.5414 -1.5573
16239SOL    HW249499   5.713   4.922   6.112  2.1330  0.8187  0.9246
16240SOL     OW49500   3.498   1.332   2.001 -0.4626 -0.4880  0.2158
16240SOL    HW149501   3.466   1.389   2.071 -0.7300 -1.0842  0.5833
16240SOL    HW249502   3.487   1.384   1.921 -2.1792 -0.6035  0.3518
16241SOL     OW49503   5.298   1.591   7.230 -0.7825 -0.1822 -0.2042
16241SOL    HW149504   5.217   1.543   7.246 -1.9767  2.1138  1.3070
16241SOL    HW249505   5.280   1.679   7.262  2.0654  0.6467 -0.5835
16242SOL     OW49506   3.403   5.429   0.469  0.2247 -0.3587 -0.0919
16242SOL    HW149507   3.468   5.389   0.412  0.5694 -1.5609  1.0911
16242SOL    HW249508   3.453   5.489   0.524 -0.2117  1.3712 -1.4883
16243SOL     OW49509   4.317   8.252   3.584  0.0958  0.5042  0.1450
16243SOL    HW149510   4.254   8.283   3.649 -1.0775 -1.2584 -0.0907
16243SOL    HW249511   4.383   8.206   3.634 -1.6236 -2.2358  0.1131
16244SOL     OW49512   4.838   2.377   6.317 -0.0380 -0.4317  0.2439
16244SOL    HW149513   4.837   2.300   6.260 -0.8892  0.9008 -1.6093
16244SOL    HW249514   4.803   2.345   6.400  0.8589 -2.3354 -0.0493
16245SOL     OW49515   2.800   2.273   3.717 -0.4151 -0.0410 -0.2512
16245SOL    HW149516   2.829   2.327   3.644  0.0454 -0.7278 -0.5909
16245SOL    HW249517   2.840   2.313   3.794 -1.2456  0.9344 -0.3054
16246SOL     OW49518   2.430   2.884   6.156  0.5795 -0.1916  0.0815
16246SOL    HW149519   2.439   2.973   6.191  0.7438  0.1157 -0.7302
16246SOL    HW249520   2.474   2.828   6.220  1.2883  0.4126  0.1252
16247SOL     OW49521   1.189   0.635   4.741 -0.5593  0.1020  0.1461
16247SOL    HW149522   1.223   0.576   4.808  0.4878  1.8636  1.2480
16247SOL    HW249523   1.265   0.686   4.714 -0.6501 -1.2687 -3.2907
16248SOL     OW49524   5.864   5.627   5.679 -0.0754  0.3793 -0.1979
16248SOL    HW149525   5.861   5.698   5.615  2.8747  0.5763 -0.2384
16248SOL    HW249526   5.804   5.561   5.645 -0.5577  1.5643 -1.7709
16249SOL     OW49527   3.225   2.726   6.119 -0.8122 -0.7323 -0.5753
16249SOL    HW149528   3.140   2.683   6.132 -2.2822  2.2854  0.9565
16249SOL    HW249529   3.212   2.814   6.152  2.6733  0.2171 -1.3260
16250SOL     OW49530   1.423   5.048   7.349 -0.5082 -0.4621  0.3205
16250SOL    HW149531   1.479   5.018   7.421 -1.5661 -2.2983  0.4492
16250SOL    HW249532   1.334   5.028   7.379 -1.1571  1.2080 -0.4164
16251SOL     OW49533   4.837   0.216   5.213 -0.0482  0.3026 -0.7380
16251SOL    HW149534   4.802   0.300   5.242  2.3188  1.0474  0.2038
16251SOL    HW249535   4.889   0.184   5.287  0.2234 -1.3290 -1.5711
16252SOL     OW49536   7.818   1.348   5.872  0.4070  0.1758 -0.6758
16252SOL    HW149537   7.852   1.295   5.799 -0.8265 -2.2579  0.3927
16252SOL    HW249538   7.724   1.333   5.870  0.5399 -2.9714  3.3912
16253SOL     OW49539   2.192   7.409   8.092 -0.2344 -0.4983 -0.4490
16253SOL    HW149540   2.232   7.360   8.164  0.9080  1.6163  0.4669
16253SOL    HW249541   2.265   7.456   8.052 -1.4533  2.1106  0.1452
16254SOL     OW49542   1.373   0.016   4.764  0.5097  0.3668 -1.0443
16254SOL    HW149543   1.349   0.028   4.672 -1.0222  2.3346 -0.4590
16254SOL    HW249544   1.467   0.036   4.767  0.6868 -0.2040 -2.2355
16255SOL     OW49545   0.220   6.516   5.826 -0.1636 -0.7160 -0.3488
16255SOL    HW149546   0.316   6.518   5.826 -0.0983 -2.0813 -1.6152
16255SOL    HW249547   0.198   6.426   5.803 -1.7897 -0.7808  1.2017
16256SOL     OW49548   2.552   4.685   0.882  0.2373  0.0321  0.2733
16256SOL    HW149549   2.519   4.668   0.970 -1.9359 -0.4569 -0.5724
16256SOL    HW249550   2.536   4.778   0.868 -0.4982 -0.1335 -0.0134
16257SOL     OW49551   3.145   3.161   3.494 -0.0788  0.1021 -0.0480
16257SOL    HW149552   3.221   3.138   3.441 -0.5478  0.2174 -0.7911
16257SOL    HW249553   3.104   3.077   3.515 -0.4879  0.1080 -0.7867
16258SOL     OW49554   2.811   7.366   2.693 -0.5074  0.3118  0.1538
16258SOL    HW149555   2.862   7.294   2.730 -1.5956 -1.0535 -0.8933
16258SOL    HW249556   2.874   7.436   2.679  0.6833 -0.6237  0.7032
16259SOL     OW49557   0.766   8.128   1.905 -0.3309  0.0882  0.6474
16259SOL    HW149558   0.792   8.041   1.934  1.2674 -0.2146 -1.4790
16259SOL    HW249559   0.838   8.157   1.849  0.0790  3.5555  2.6784
16260SOL     OW49560   0.034   0.871   3.546  0.1421  0.4973  0.6369
16260SOL    HW149561  -0.010   0.864   3.630  0.1788  0.0177  0.6200
16260SOL    HW249562  -0.036   0.892   3.484 -0.3667 -1.7082  0.3598
16261SOL     OW49563   4.738   2.771   3.475 -0.1973 -0.6215  0.7781
16261SOL    HW149564   4.700   2.700   3.422  0.4116 -0.3740 -0.0077
16261SOL    HW249565   4.681   2.776   3.551 -0.8123 -1.3213  0.3854
16262SOL     OW49566   7.577   2.748   7.556 -0.0073 -0.1933  0.1541
16262SOL    HW149567   7.566   2.744   7.461 -0.5789  0.6830  0.1639
16262SOL    HW249568   7.621   2.832   7.571  0.4129 -0.4977  0.6408
16263SOL     OW49569   7.629   3.856   2.510 -0.1147 -0.1876  0.0932
16263SOL    HW149570   7.576   3.814   2.442 -2.1842  0.5272  1.2060
16263SOL    HW249571   7.684   3.785   2.544 -0.2241 -0.9165 -1.1821
16264SOL     OW49572   1.497   3.804   5.839  0.0152 -0.0872  0.3190
16264SOL    HW149573   1.443   3.855   5.899 -0.1115 -1.0511  1.0359
16264SOL    HW249574   1.473   3.713   5.855  1.4515 -0.5058  0.2702
16265SOL     OW49575   8.075   6.165   3.118  0.2484 -0.3676  0.3888
16265SOL    HW149576   8.123   6.192   3.039 -2.5113 -0.1814 -1.3728
16265SOL    HW249577   8.084   6.240   3.177 -1.8636  1.9154 -1.8865
16266SOL     OW49578   1.639   7.499   5.987  0.5185  0.3362  0.7519
16266SOL    HW149579   1.642   7.548   5.905  1.3951 -0.4777  0.2815
16266SOL    HW249580   1.725   7.459   5.995 -0.0512 -0.8683  1.2679
16267SOL     OW49581   3.124   6.209   7.903 -0.1773  0.1527 -0.2648
16267SOL    HW149582   3.074   6.156   7.964  1.1230 -1.9157 -0.8844
16267SOL    HW249583   3.133   6.154   7.825  2.2589  0.7719 -0.5035
16268SOL     OW49584   0.758   6.475   0.192  0.1103 -0.0211  0.3890
16268SOL    HW149585   0.843   6.496   0.232 -0.3805  1.6023  0.6518
16268SOL    HW249586   0.780   6.440   0.106  1.0492  0.5378  0.3854
16269SOL     OW49587   2.408   1.563   1.723  0.4063  0.5700  0.2482
16269SOL    HW149588   2.451   1.622   1.785  0.0128  0.1474  0.9271
16269SOL    HW249589   2.324   1.543   1.763 -0.2712  1.0672 -0.8805
16270SOL     OW49590   4.351   8.032   5.981 -0.8195  0.2684 -0.0769
16270SOL    HW149591   4.339   8.097   6.049 -2.4394 -0.0766 -0.0036
16270SOL    HW249592   4.372   7.951   6.028 -0.0862  0.4258 -0.1091
16271SOL     OW49593   6.839   4.705   5.519 -0.6771  0.0019  0.0993
16271SOL    HW149594   6.911   4.680   5.577  0.0370  1.5661 -0.0531
16271SOL    HW249595   6.808   4.622   5.483  1.5307 -0.6927 -0.3890
16272SOL     OW49596   3.821   2.660   2.964  0.1945 -0.3248 -0.4536
16272SOL    HW149597   3.848   2.568   2.959 -1.0628 -0.7572  0.3455
16272SOL    HW249598   3.752   2.668   2.899  0.0444 -0.0282 -0.2571
16273SOL     OW49599   2.443   7.003   2.640 -0.0487 -0.3784 -0.0869
16273SOL    HW149600   2.402   7.080   2.601  1.6266 -0.1957 -1.6476
16273SOL    HW249601   2.529   7.034   2.670  0.9721 -1.7323 -1.4280
16274SOL     OW49602   6.687   4.461   4.167  0.0680  0.0101  0.6922
16274SOL    HW149603   6.752   4.432   4.104  1.0986  0.8529  1.3333
16274SOL    HW249604   6.614   4.492   4.114  1.3852  1.8054 -0.1732
16275SOL     OW49605   1.157   8.247   4.218  0.5434 -0.3477  0.4395
16275SOL    HW149606   1.189   8.311   4.154  1.4859  1.0734  2.2348
16275SOL    HW249607   1.236   8.209   4.256  0.0375 -0.5010  1.3825
16276SOL     OW49608   5.094   0.637   6.108 -0.5424 -0.1948  0.4001
16276SOL    HW149609   5.073   0.566   6.168 -0.8522 -0.7663 -0.3617
16276SOL    HW249610   5.171   0.606   6.059 -1.3149 -0.4932 -0.6781
16277SOL     OW49611   7.297   1.164   5.551  0.6656  0.8028  0.2775
16277SOL    HW149612   7.286   1.146   5.644  0.4708 -0.9456 -0.0421
16277SOL    HW249613   7.312   1.078   5.511  1.1437  1.5503 -1.2579
16278SOL     OW49614   1.707   8.077   5.495 -0.4670 -0.1095 -0.1385
16278SOL    HW149615   1.777   8.018   5.467  1.6071  0.5039  3.1371
16278SOL    HW249616   1.743   8.165   5.480 -0.9435  0.2227  0.6090
16279SOL     OW49617   0.935   4.726   5.198 -0.0530  0.8314 -0.3227
16279SOL    HW149618   1.004   4.660   5.198 -1.0717 -0.2857  0.7196
16279SOL    HW249619   0.958   4.785   5.270  1.5898  2.4914 -2.0974
16280SOL     OW49620   3.386   3.353   5.120  0.0961  0.4410 -0.4416
16280SOL    HW149621   3.319   3.316   5.062  0.3042  1.0170 -1.0584
16280SOL    HW249622   3.341   3.423   5.167 -0.0588  0.0082  0.0623
16281SOL     OW49623   2.956   6.948   5.490 -0.1084 -0.6106  0.6655
16281SOL    HW149624   2.961   6.876   5.427  1.0414  0.8869 -1.0579
16281SOL    HW249625   3.047   6.965   5.513 -0.2034  1.2320 -0.1378
16282SOL     OW49626   3.588   3.063   1.729  0.0692 -0.4666 -0.2236
16282SOL    HW149627   3.674   3.063   1.772  0.0255 -1.5183 -0.0961
16282SOL    HW249628   3.605   3.099   1.642  0.1148  1.8983  0.6872
16283SOL     OW49629   0.422   0.970   0.177  0.8536 -0.0901  0.4539
16283SOL    HW149630   0.409   1.062   0.198  0.7187 -0.1800  0.7739
16283SOL    HW249631   0.362   0.923   0.235  2.2208 -0.4815  1.6232
16284SOL     OW49632   5.368   5.078   0.260 -0.2120 -0.1218 -0.1234
16284SOL    HW149633   5.424   5.137   0.311  0.2821 -1.3854  0.8741
16284SOL    HW249634   5.355   5.122   0.176  1.0895  0.8682  0.1684
16285SOL     OW49635   4.125   3.186   4.402  0.8055 -0.1970 -0.0280
16285SOL    HW149636   4.049   3.244   4.407  0.2590 -0.3893 -3.5228
16285SOL    HW249637   4.088   3.100   4.382  1.8102 -1.0316  1.5241
16286SOL     OW49638   1.891   7.514   0.000 -1.1933  0.0891  0.0056
16286SOL    HW149639   1.891   7.490  -0.092 -2.2786  0.7613 -0.1938
16286SOL    HW249640   1.865   7.435   0.046 -0.4778 -0.2968 -0.2398
16287SOL     OW49641   7.797   5.656   4.677 -0.2565  0.1061 -0.4373
16287SOL    HW149642   7.822   5.588   4.740  1.1548 -0.0123 -1.0677
16287SOL    HW249643   7.827   5.622   4.592 -2.8442 -0.1174 -1.3516
16288SOL     OW49644   3.528   2.291   2.331 -0.1449 -0.6774 -0.2864
16288SOL    HW149645   3.621   2.272   2.344 -0.6502 -3.3019  0.2219
16288SOL    HW249646   3.525   2.345   2.252  1.7886 -1.0401 -0.6680
16289SOL     OW49647   2.786   4.258   1.969 -0.2971  0.1747  0.6400
16289SOL    HW149648   2.848   4.331   1.975 -0.3294  0.1508  1.3410
16289SOL    HW249649   2.773   4.229   2.060  0.2214 -1.1388  0.3170
16290SOL     OW49650   2.273   4.762   2.233  0.2353  0.2938 -0.6153
16290SOL    HW149651   2.258   4.731   2.144  0.4130  0.0385 -0.5562
16290SOL    HW249652   2.367   4.779   2.237  0.1762  0.6169 -0.5755
16291SOL     OW49653   4.022   5.510   0.589  0.3635 -0.1917  0.3817
16291SOL    HW149654   4.061   5.561   0.661 -2.1635 -0.6100  2.1664
16291SOL    HW249655   3.974   5.575   0.537  1.8868  0.0506 -0.8031
16292SOL     OW49656   4.171   4.493   8.192 -0.1576 -0.0975  0.8980
16292SOL    HW149657   4.221   4.416   8.165 -0.5993 -0.3693  0.8421
16292SOL    HW249658   4.085   4.482   8.150 -0.4353  0.1007  1.4032
16293SOL     OW49659   1.487   2.960   2.013 -0.1287 -0.2713  0.1437
16293SOL    HW149660   1.506   2.916   2.096 -0.0370  0.5536  0.5795
16293SOL    HW249661   1.429   2.901   1.966  0.5382 -1.1624  0.4053
16294SOL     OW49662   3.166   7.162   7.275 -0.3034  0.0014 -0.5906
16294SOL    HW149663   3.086   7.140   7.323 -0.3914  1.5015  0.0053
16294SOL    HW249664   3.151   7.250   7.241  1.2627  0.5104 -0.0597
16295SOL     OW49665   3.480   7.628   0.911  0.1487  0.0979 -0.0267
16295SOL    HW149666   3.529   7.556   0.871 -0.6540  0.1479 -1.1356
16295SOL    HW249667   3.421   7.584   0.972  0.5647 -0.0727  0.2595
16296SOL     OW49668   4.303   0.335   1.797 -0.1979  0.2346 -0.2127
16296SOL    HW149669   4.294   0.424   1.830 -0.5940 -0.5286  1.9087
16296SOL    HW249670   4.385   0.336   1.748  0.3057  1.5496  0.5947
16297SOL     OW49671   6.759   0.672   3.980 -0.7374  0.0149 -0.1286
16297SOL    HW149672   6.746   0.765   3.959 -0.3019  0.4794  1.4936
16297SOL    HW249673   6.853   0.665   3.999 -0.9452 -0.5218  0.7552
16298SOL     OW49674   4.940   5.631   3.458  0.8145 -0.5256  0.3186
16298SOL    HW149675   4.901   5.567   3.398  0.7308 -0.2826  0.1105
16298SOL    HW249676   4.974   5.700   3.401  0.2441 -0.0233  0.5764
16299SOL     OW49677   1.363   4.568   0.610 -0.2183 -0.3603  0.3495
16299SOL    HW149678   1.370   4.625   0.534  1.0397 -0.8305  0.0797
16299SOL    HW249679   1.437   4.507   0.601 -0.4227 -0.8288  1.6061
16300SOL     OW49680   0.952   0.621   0.807 -0.2217 -0.0480 -0.0699
16300SOL    HW149681   1.013   0.599   0.876 -0.0920 -0.0519 -0.1850
16300SOL    HW249682   0.899   0.692   0.843  1.4198  1.6467 -0.8083
16301SOL     OW49683   4.001   3.058   1.298  0.4660  0.1824  0.7347
16301SOL    HW149684   4.075   3.051   1.238  0.4390 -2.6334  0.8677
16301SOL    HW249685   4.041   3.062   1.385  0.4691  2.3334  0.6744
16302SOL     OW49686   5.633   1.746   3.189 -0.3994 -0.2573  0.0584
16302SOL    HW149687   5.651   1.778   3.101  2.4047  0.4640  0.8007
16302SOL    HW249688   5.710   1.692   3.211 -1.3387 -0.9525  1.8220
16303SOL     OW49689   7.468   1.102   1.205  0.0745  0.2171  0.1031
16303SOL    HW149690   7.502   1.040   1.141 -1.3685 -1.0845  0.5213
16303SOL    HW249691   7.395   1.145   1.160  1.2465  1.8697 -0.2837
16304SOL     OW49692   7.460   4.419   0.021 -0.4317  0.0458  0.9089
16304SOL    HW149693   7.500   4.342   0.061  0.1248 -0.1327  0.0460
16304SOL    HW249694   7.373   4.424   0.060 -0.6725 -1.3253  0.6192
16305SOL     OW49695   3.569   8.152   0.409 -0.2713  0.0807 -0.0977
16305SOL    HW149696   3.497   8.152   0.472 -0.5387  1.4130 -0.3712
16305SOL    HW249697   3.529   8.129   0.326 -0.1208 -0.5485 -0.0024
16306SOL     OW49698   5.302   2.665   0.713  0.1793 -0.1141 -0.1116
16306SOL    HW149699   5.368   2.628   0.654  1.0290  0.4678  0.4457
16306SOL    HW249700   5.219   2.656   0.665  0.6566 -0.8458 -0.8337
16307SOL     OW49701   4.666   5.016   7.544  0.0547  0.3180  0.7260
16307SOL    HW149702   4.596   4.959   7.514  0.6759  0.7030 -1.6649
16307SOL    HW249703   4.662   5.011   7.640 -0.1679 -3.4044  0.6566
16308SOL     OW49704   3.348   2.201   8.236  0.5927 -0.1276  0.7191
16308SOL    HW149705   3.389   2.135   8.293 -0.4893 -1.0917  0.4219
16308SOL    HW249706   3.392   2.283   8.259  2.4396 -1.0321  0.6642
16309SOL     OW49707   7.343   2.347   6.788 -0.0011  0.2210  0.1435
16309SOL    HW149708   7.386   2.262   6.797  1.0493  0.8351  1.2001
16309SOL    HW249709   7.378   2.383   6.707  1.4368  0.6743  0.9476
16310SOL     OW49710   2.918   3.142   6.413  0.5634  0.2961  0.1731
16310SOL    HW149711   2.846   3.153   6.351  0.4220  1.6244  0.5551
16310SOL    HW249712   2.948   3.052   6.398  0.9406  0.7463 -2.2559
16311SOL     OW49713   0.023   5.913   0.666 -0.3029 -0.2804 -0.1693
16311SOL    HW149714  -0.013   5.890   0.580  1.6443 -2.2765 -0.5509
16311SOL    HW249715  -0.044   5.886   0.728  0.0269 -3.0732 -0.8935
16312SOL     OW49716   5.855   1.905   7.626 -0.0378  0.2219 -0.4149
16312SOL    HW149717   5.873   1.946   7.542 -0.9823  0.4997 -0.5023
16312SOL    HW249718   5.771   1.942   7.653 -1.4854 -2.3741 -0.9760
16313SOL     OW49719   0.149   5.870   2.531 -0.4151  0.8138 -0.1845
16313SOL    HW149720   0.126   5.782   2.559  1.7247  0.5878  1.0416
16313SOL    HW249721   0.177   5.860   2.440 -2.2971  0.6644 -0.8006
16314SOL     OW49722   2.215   6.322   7.506  0.0707  0.5406 -0.1624
16314SOL    HW149723   2.143   6.263   7.527  0.8695 -0.6472 -0.6886
16314SOL    HW249724   2.179   6.380   7.439 -0.4748  0.1455 -0.2233
16315SOL     OW49725   0.672   5.969   7.956 -0.3246 -0.4702 -0.1740
16315SOL    HW149726   0.627   6.036   8.007 -0.4529 -0.3273 -0.4723
16315SOL    HW249727   0.755   6.010   7.931 -0.1915 -0.5985  0.0591
16316SOL     OW49728   2.397   6.397   5.686 -0.1819  0.3285  0.1768
16316SOL    HW149729   2.350   6.318   5.712 -0.4889  0.1397 -0.8965
16316SOL    HW249730   2.338   6.469   5.711 -1.1526  0.0902 -1.2523
16317SOL     OW49731   2.405   3.088   7.941  0.0462  0.0657 -0.6873
16317SOL    HW149732   2.352   3.167   7.934  0.5492  0.7131  1.8689
16317SOL    HW249733   2.495   3.119   7.929  0.1748 -0.2848 -0.6409
16318SOL     OW49734   5.663   0.980   0.047 -0.0443 -0.1249  0.1208
16318SOL    HW149735   5.621   1.020  -0.030  0.0914 -0.5153 -0.1583
16318SOL    HW249736   5.753   1.011   0.043 -0.4060  1.1601  1.0241
16319SOL     OW49737   3.249   5.491   7.828 -0.1378 -0.4615 -0.0064
16319SOL    HW149738   3.222   5.419   7.886 -1.4272  0.4100  0.5182
16319SOL    HW249739   3.295   5.448   7.756 -1.3543 -1.8734  0.0234
16320SOL     OW49740   3.915   6.019   8.159  0.1032 -0.0082 -0.1735
16320SOL    HW149741   3.945   6.108   8.175 -0.8716  0.3107 -0.0330
16320SOL    HW249742   3.882   6.020   8.069  1.1060 -0.5280 -0.5635
16321SOL     OW49743   0.346   6.273   0.955  0.1198 -0.2512 -0.2204
16321SOL    HW149744   0.428   6.312   0.925  0.4443  0.0379  0.9575
16321SOL    HW249745   0.363   6.179   0.955  0.0497 -0.2649 -1.0953
16322SOL     OW49746   7.902   4.354   6.655  0.3404 -0.6881 -0.5586
16322SOL    HW149747   7.899   4.310   6.740  0.3993  1.3050  0.5274
16322SOL    HW249748   7.841   4.428   6.663 -0.0065 -0.7141 -2.4230
16323SOL     OW49749   2.484   5.773   7.015 -0.0201 -0.5167 -0.3957
16323SOL    HW149750   2.526   5.858   7.008  1.1000 -1.0123 -0.0338
16323SOL    HW249751   2.537   5.726   7.080 -2.2600 -0.5252  1.5772
16324SOL     OW49752   5.580   0.586   6.714  0.4914 -0.0070 -0.4444
16324SOL    HW149753   5.526   0.562   6.788  0.2837  0.8435 -0.3117
16324SOL    HW249754   5.660   0.534   6.724  0.2770 -0.2275  0.1178
16325SOL     OW49755   6.204   2.974   5.206 -0.2588 -0.5532 -0.3162
16325SOL    HW149756   6.145   3.045   5.234 -1.7603 -2.0700  0.5625
16325SOL    HW249757   6.242   2.942   5.288 -0.3131 -1.3574 -0.6023
16326SOL     OW49758   5.669   8.009   5.106 -0.1481 -0.1286 -0.1529
16326SOL    HW149759   5.703   8.074   5.045  0.9462  0.5015  1.0649
16326SOL    HW249760   5.629   7.942   5.050  2.5866 -0.6240 -1.7488
16327SOL     OW49761   8.312   5.512   0.246  0.6974  0.0701  0.7409
16327SOL    HW149762   8.271   5.514   0.332 -0.6327  0.4646  0.1141
16327SOL    HW249763   8.335   5.604   0.228  0.0661  0.1400  0.2623
16328SOL     OW49764   3.567   2.381   5.241 -0.3199 -0.4972  0.1822
16328SOL    HW149765   3.596   2.296   5.208  1.5158 -0.9819  2.7390
16328SOL    HW249766   3.602   2.444   5.177 -0.9254 -1.5637 -1.2654
16329SOL     OW49767   5.557   2.167   0.503 -0.1220  0.1046 -0.5651
16329SOL    HW149768   5.505   2.193   0.428 -2.0204 -1.3386  0.1832
16329SOL    HW249769   5.532   2.076   0.520  1.6504 -0.2112  0.6834
16330SOL     OW49770   6.466   1.898   1.145  0.2885 -0.6577 -0.3910
16330SOL    HW149771   6.434   1.827   1.089  0.2313 -1.1092  0.1977
16330SOL    HW249772   6.442   1.871   1.234  0.2058  0.1361 -0.1650
16331SOL     OW49773   0.906   2.527   2.651 -0.0004 -0.1660  0.3534
16331SOL    HW149774   0.928   2.465   2.720 -1.3638 -0.7133  0.3354
16331SOL    HW249775   0.850   2.477   2.592 -0.1200  0.7431 -0.3227
16332SOL     OW49776   1.536   0.096   0.742  0.2837  0.2524 -0.0802
16332SOL    HW149777   1.449   0.057   0.738  0.6530 -0.6269  0.1660
16332SOL    HW249778   1.596   0.024   0.722  0.8827  1.2810 -2.2143
16333SOL     OW49779   5.663   7.708   7.603  0.1114 -0.3854 -0.0130
16333SOL    HW149780   5.708   7.670   7.528 -2.0978  2.8280 -3.3394
16333SOL    HW249781   5.704   7.794   7.615 -1.8015  0.5883  0.0493
16334SOL     OW49782   4.099   4.999   2.918  0.4204  0.3836  0.1615
16334SOL    HW149783   4.055   5.045   2.989 -0.0758  0.2205 -0.0303
16334SOL    HW249784   4.030   4.944   2.879  0.9969 -0.5470  0.4106
16335SOL     OW49785   1.522   7.093   6.285 -0.0639  0.0715  0.1557
16335SOL    HW149786   1.472   7.144   6.221 -0.0164  0.3118  0.3087
16335SOL    HW249787   1.613   7.110   6.263  0.0386 -2.3891 -1.7761
16336SOL     OW49788   0.330   7.675   7.653  0.1276 -0.1149  0.5472
16336SOL    HW149789   0.414   7.721   7.650  0.3067 -0.4866 -0.2519
16336SOL    HW249790   0.266   7.740   7.623  0.2541 -0.1068  0.2939
16337SOL     OW49791   4.111   6.383   5.523  0.4737 -0.1243 -0.0815
16337SOL    HW149792   4.058   6.368   5.444 -1.5056 -0.7048  1.2928
16337SOL    HW249793   4.129   6.477   5.523 -1.7031  0.3429  0.0545
16338SOL     OW49794   6.503   6.540   4.454 -0.8408 -0.3843 -0.0036
16338SOL    HW149795   6.440   6.609   4.432 -0.1088  0.0359 -0.8624
16338SOL    HW249796   6.522   6.498   4.370 -0.2459 -0.7427  0.3062
16339SOL     OW49797   6.605   1.886   6.003 -0.0174 -0.3605  0.7609
16339SOL    HW149798   6.510   1.878   6.015  0.0656 -0.5202  1.3043
16339SOL    HW249799   6.625   1.977   6.027 -0.1923  0.0198 -0.4489
16340SOL     OW49800   6.807   6.252   5.895 -0.0564  0.0469 -0.7645
16340SOL    HW149801   6.901   6.245   5.875  0.4114 -0.2963  1.3289
16340SOL    HW249802   6.773   6.164   5.880  0.7767 -0.8496  1.9617
16341SOL     OW49803   4.687   7.222   8.177  0.2204  0.4157  0.2362
16341SOL    HW149804   4.727   7.213   8.090  2.2305  0.8525  1.0599
16341SOL    HW249805   4.640   7.139   8.190  1.4822 -0.4567 -0.5085
16342SOL     OW49806   1.396   3.337   5.597 -0.3650  0.2256 -0.1822
16342SOL    HW149807   1.314   3.363   5.555 -0.2146  2.6312  0.8952
16342SOL    HW249808   1.414   3.250   5.561 -2.3562  0.4498 -1.9238
16343SOL     OW49809   0.669   2.634   3.499  0.0491 -0.0497 -0.0502
16343SOL    HW149810   0.649   2.549   3.538 -0.8978 -0.2446 -0.9065
16343SOL    HW249811   0.679   2.616   3.405 -1.1397  0.8988 -0.3965
16344SOL     OW49812   1.543   5.448   6.069 -0.6055 -0.0237  0.3839
16344SOL    HW149813   1.555   5.487   5.982  2.1071 -1.3669  0.0340
16344SOL    HW249814   1.612   5.489   6.123 -1.6507  0.1083  1.6713
16345SOL     OW49815   1.291   4.745   5.570  0.3734  0.2979 -0.2169
16345SOL    HW149816   1.359   4.715   5.509 -0.4098 -0.4653 -0.7256
16345SOL    HW249817   1.294   4.840   5.563 -0.4033  0.2097 -2.2463
16346SOL     OW49818   5.048   2.540   5.663  0.0177  0.0583 -0.6093
16346SOL    HW149819   5.030   2.497   5.580  0.3272  0.7283 -1.0339
16346SOL    HW249820   5.143   2.535   5.673 -0.1037 -1.0322  0.2787
16347SOL     OW49821   1.459   5.126   0.306  0.0807 -0.2281 -0.5117
16347SOL    HW149822   1.523   5.195   0.325 -1.6236  1.1298  0.5352
16347SOL    HW249823   1.409   5.161   0.232 -0.8155 -0.3130  0.0470
16348SOL     OW49824   2.386   3.405   6.294 -0.0471 -0.0581  0.1981
16348SOL    HW149825   2.458   3.438   6.241 -0.5899  1.6684  0.4576
16348SOL    HW249826   2.406   3.435   6.383 -1.4496  1.2003  0.1341
16349SOL     OW49827   4.670   0.272   7.544 -0.4788 -0.4204  0.1295
16349SOL    HW149828   4.759   0.262   7.576 -0.7950 -0.5291  1.0161
16349SOL    HW249829   4.675   0.342   7.479  0.5550 -1.6051 -1.1307
16350SOL     OW49830   6.595   2.423   7.084  0.6606  0.1027 -0.5194
16350SOL    HW149831   6.687   2.400   7.098  0.0829 -1.5415  1.0001
16350SOL    HW249832   6.582   2.503   7.134  0.8781 -0.6505  0.7987
16351SOL     OW49833   3.112   3.813   0.962  0.1815 -0.2163 -0.3662
16351SOL    HW149834   3.110   3.794   0.869  0.9623  1.3135 -0.7288
16351SOL    HW249835   3.090   3.906   0.968  0.7416 -0.1460  0.9236
16352SOL     OW49836   3.012   0.387   7.959  0.2199  1.2925 -0.3703
16352SOL    HW149837   3.089   0.393   8.016  1.9299  0.8854 -2.4908
16352SOL    HW249838   3.026   0.454   7.893 -0.9058  0.7078 -1.2337
16353SOL     OW49839   5.340   7.349   1.824 -0.7692 -0.3878 -0.1824
16353SOL    HW149840   5.383   7.384   1.901  1.5916 -2.4722 -0.4418
16353SOL    HW249841   5.338   7.422   1.762  1.2932  0.1474  0.3195
16354SOL     OW49842   4.033   5.662   6.165  0.4276  0.3163 -0.3406
16354SOL    HW149843   4.060   5.640   6.254 -0.3581 -0.5849 -0.3105
16354SOL    HW249844   4.114   5.685   6.120  0.8647  0.5304  0.5345
16355SOL     OW49845   7.532   6.842   0.600 -0.0639 -0.3006 -0.0628
16355SOL    HW149846   7.558   6.934   0.607  1.3161 -0.5533 -1.2317
16355SOL    HW249847   7.455   6.842   0.543 -0.6045  0.1836  0.6498
16356SOL     OW49848   4.175   5.626   1.394 -0.2190  0.3180 -0.1906
16356SOL    HW149849   4.209   5.715   1.408  1.8304 -0.3882 -0.4477
16356SOL    HW249850   4.088   5.627   1.436 -0.3366  2.4857 -0.3790
16357SOL     OW49851   3.117   6.267   2.526  0.5862  0.5630  0.1489
16357SOL    HW149852   3.145   6.354   2.496 -0.5142  0.1864 -2.1821
16357SOL    HW249853   3.137   6.209   2.453 -0.1506 -0.8849  1.0525
16358SOL     OW49854   0.749   5.089   7.033 -0.4906  0.5120  0.1873
16358SOL    HW149855   0.666   5.042   7.047  0.1746 -0.7386  0.0707
16358SOL    HW249856   0.765   5.133   7.116 -1.3575  0.9064  0.1552
16359SOL     OW49857   4.232   2.099   0.377  0.6810  0.1860 -0.3347
16359SOL    HW149858   4.157   2.112   0.319  0.8324 -1.4815 -0.9616
16359SOL    HW249859   4.277   2.184   0.376 -0.6018  0.8977 -0.7765
16360SOL     OW49860   1.024   1.954   0.184  0.0456  0.2805 -0.3868
16360SOL    HW149861   1.072   1.873   0.166 -1.7276 -0.8145 -0.4551
16360SOL    HW249862   1.089   2.014   0.220  0.9889 -1.9171  1.7989
16361SOL     OW49863   6.491   6.529   6.872  0.3566 -0.2744  0.0335
16361SOL    HW149864   6.488   6.446   6.918 -0.6457 -0.5841 -0.5384
16361SOL    HW249865   6.512   6.594   6.939 -2.8221 -0.4448  1.3762
16362SOL     OW49866   1.341   8.124   2.071  0.5333  0.4192 -0.2422
16362SOL    HW149867   1.375   8.093   2.154  1.4183  0.4394 -0.5895
16362SOL    HW249868   1.414   8.117   2.010 -0.1016  0.3952 -1.0248
16363SOL     OW49869   7.181   2.720   1.889  0.6770  0.0038  0.0143
16363SOL    HW149870   7.099   2.712   1.840  0.0967 -0.5601  1.0430
16363SOL    HW249871   7.162   2.785   1.957 -0.0732 -2.5989  2.4535
16364SOL     OW49872   0.200   3.268   7.857  0.1525 -0.4358 -1.4417
16364SOL    HW149873   0.207   3.224   7.942 -0.6516 -0.0426 -1.1620
16364SOL    HW249874   0.264   3.339   7.861 -1.4402  1.0148 -0.2506
16365SOL     OW49875   6.609   7.681   7.713 -0.3733  0.5442 -0.0056
16365SOL    HW149876   6.670   7.624   7.667  0.1081  0.8572  0.2304
16365SOL    HW249877   6.590   7.635   7.795 -1.7332 -0.3163 -0.7741
16366SOL     OW49878   0.590   1.312   4.206  0.4255 -0.0006 -0.2533
16366SOL    HW149879   0.601   1.405   4.185 -0.1014  0.1911  0.2557
16366SOL    HW249880   0.516   1.284   4.151 -0.3854  0.2783  0.6547
16367SOL     OW49881   6.351   5.650   1.180  0.3695  0.5707 -0.0818
16367SOL    HW149882   6.409   5.619   1.111 -1.1741 -0.9196 -0.7831
16367SOL    HW249883   6.409   5.670   1.254  1.9116  0.8566 -1.3140
16368SOL     OW49884   1.786   5.185   2.492  0.4901 -0.0371 -0.4936
16368SOL    HW149885   1.715   5.167   2.430 -1.0056  1.7573  0.5591
16368SOL    HW249886   1.795   5.105   2.543  0.0955 -0.7210 -1.4852
16369SOL     OW49887   0.396   0.974   1.834 -0.0014  0.1517 -0.2796
16369SOL    HW149888   0.411   0.977   1.929  0.9609  1.1874 -0.4581
16369SOL    HW249889   0.301   0.984   1.825 -0.4442 -2.3801  0.6653
16370SOL     OW49890   0.383   2.217   1.794 -0.4141  0.0252  0.4741
16370SOL    HW149891   0.451   2.212   1.727 -0.4357 -1.3541  0.5338
16370SOL    HW249892   0.330   2.139   1.781 -1.1239  0.3352  1.3614
16371SOL     OW49893   6.933   0.720   8.008  0.1403 -0.3776 -0.0634
16371SOL    HW149894   7.004   0.661   7.982  0.5991  0.3226 -0.4182
16371SOL    HW249895   6.920   0.702   8.101  1.6087  0.3192  0.3082
16372SOL     OW49896   7.772   0.913   1.133 -0.2162  0.0048 -0.1174
16372SOL    HW149897   7.709   0.852   1.172 -0.1844 -0.8610 -1.3728
16372SOL    HW249898   7.741   0.928   1.044  0.5110  0.7911 -0.2580
16373SOL     OW49899   0.276   2.580   3.984  0.1750 -0.3780 -0.2318
16373SOL    HW149900   0.296   2.493   4.019 -0.8165 -0.5416 -0.0438
16373SOL    HW249901   0.207   2.565   3.921  2.3995 -0.1793 -2.8966
16374SOL     OW49902   5.054   4.357   5.673 -0.0249  0.0597  0.4422
16374SOL    HW149903   5.140   4.361   5.632  0.5594 -0.4171  1.5571
16374SOL    HW249904   5.072   4.364   5.767 -1.4692  3.6571  0.5954
16375SOL     OW49905   0.542   1.405   7.420 -0.9383  0.6726  0.3779
16375SOL    HW149906   0.621   1.434   7.464  0.0801 -0.4935 -0.6245
16375SOL    HW249907   0.536   1.460   7.341  0.2264 -0.7895 -0.7904
16376SOL     OW49908   3.974   6.217   0.780 -0.2353 -0.1001  0.6076
16376SOL    HW149909   4.009   6.129   0.796  1.9161  0.4057 -0.9339
16376SOL    HW249910   3.981   6.229   0.686 -1.8488  1.2229  0.6166
16377SOL     OW49911   4.934   5.502   3.705  0.1113  0.1881 -0.2221
16377SOL    HW149912   4.921   5.556   3.626 -0.6719  0.9576  0.4122
16377SOL    HW249913   5.015   5.454   3.687 -1.1152 -1.2292 -2.3567
16378SOL     OW49914   5.768   2.052   5.983  0.0373  0.4678 -0.5353
16378SOL    HW149915   5.823   2.101   5.922  1.9241 -0.0914  0.6466
16378SOL    HW249916   5.760   2.109   6.060  0.0148  0.0298 -0.2059
16379SOL     OW49917   6.351   4.590   4.840  0.3580 -0.3069 -0.4944
16379SOL    HW149918   6.431   4.578   4.788  0.3835 -0.6799 -0.3714
16379SOL    HW249919   6.364   4.674   4.885  0.0613  0.3448 -1.5806
16380SOL     OW49920   6.241   7.262   7.203 -0.0800  0.4218 -0.6186
16380SOL    HW149921   6.319   7.298   7.245 -0.7324  0.2350  0.8539
16380SOL    HW249922   6.267   7.175   7.173 -0.1968 -0.5145  1.7206
16381SOL     OW49923   5.818   1.942   4.105 -0.1622 -0.1953  0.1192
16381SOL    HW149924   5.724   1.959   4.099 -0.4857 -1.4007  1.3321
16381SOL    HW249925   5.857   2.000   4.040 -1.4158  2.8713  1.8601
16382SOL     OW49926   6.517   5.638   5.379  0.1491  0.1012 -0.4469
16382SOL    HW149927   6.453   5.581   5.420 -0.4478  0.2195 -1.1854
16382SOL    HW249928   6.465   5.709   5.340  0.6551 -0.0829 -1.5153
16383SOL     OW49929   5.482   1.639   6.056 -0.3833 -0.1633 -0.3038
16383SOL    HW149930   5.391   1.621   6.035 -0.0277 -0.9318 -1.2617
16383SOL    HW249931   5.523   1.553   6.059  0.0701  0.0877  1.3261
16384SOL     OW49932   7.853   5.915   6.056  0.2540  0.0314 -0.1932
16384SOL    HW149933   7.819   5.859   6.126  1.4534 -0.2749  0.1682
16384SOL    HW249934   7.880   5.853   5.988  2.2372  0.0945  0.4981
16385SOL     OW49935   7.054   3.937   3.778  0.5103 -0.0927 -0.0763
16385SOL    HW149936   6.988   3.935   3.848  0.5813  1.1355  0.0588
16385SOL    HW249937   7.093   3.850   3.779  1.3197  0.2102  2.2414
16386SOL     OW49938   1.656   8.079   4.570 -0.6627 -0.0164  0.1573
16386SOL    HW149939   1.715   8.092   4.495 -0.1200  1.6666  0.8245
16386SOL    HW249940   1.574   8.049   4.530 -0.5181  1.2226 -1.1822
16387SOL     OW49941   6.599   5.455   5.751 -0.8639  0.0969 -0.3585
16387SOL    HW149942   6.557   5.372   5.771 -0.7281  0.0117 -0.4256
16387SOL    HW249943   6.551   5.519   5.802  1.2521 -0.4636  2.6022
16388SOL     OW49944   1.005   5.757   2.850  0.6367 -0.0741 -0.4208
16388SOL    HW149945   1.045   5.677   2.818  2.4033  1.5537 -2.6299
16388SOL    HW249946   1.075   5.803   2.896 -0.0371  0.6632 -0.0885
16389SOL     OW49947   1.390   6.895   1.680 -0.1291  0.0324  0.4700
16389SOL    HW149948   1.485   6.893   1.679 -0.1387 -0.5605 -1.0410
16389SOL    HW249949   1.367   6.983   1.649 -0.0919 -0.0001  0.3541
16390SOL     OW49950   0.122   0.138   5.220  0.0640  0.2276 -0.3346
16390SOL    HW149951   0.194   0.154   5.281 -0.8283 -1.1248  1.1595
16390SOL    HW249952   0.150   0.179   5.138  2.5616 -0.3269  0.1597
16391SOL     OW49953   3.557   0.169   5.695  0.4042 -0.1746  0.7416
16391SOL    HW149954   3.534   0.143   5.606  1.8939 -2.1075  0.8520
16391SOL    HW249955   3.487   0.133   5.749  1.0127 -1.6296  0.6045
16392SOL     OW49956   4.851   3.407   1.667  0.2312  0.0520 -0.6165
16392SOL    HW149957   4.848   3.316   1.639 -0.6972 -0.9609  2.4484
16392SOL    HW249958   4.907   3.407   1.745 -0.0410  2.0545 -0.3504
16393SOL     OW49959   2.418   7.674   8.287  0.0428  0.6069  0.3267
16393SOL    HW149960   2.370   7.668   8.205 -0.6596  0.1783  0.7628
16393SOL    HW249961   2.490   7.612   8.277 -0.5392 -0.0777  0.3674
16394SOL     OW49962   7.645   1.586   5.736 -0.6226  0.0143 -0.3324
16394SOL    HW149963   7.639   1.497   5.771  0.2297 -0.8057 -2.1480
16394SOL    HW249964   7.597   1.583   5.653  0.9880  0.7139 -1.3397
16395SOL     OW49965   2.403   2.450   5.715  0.2964  0.0753  0.1399
16395SOL    HW149966   2.393   2.442   5.809  1.6694 -0.0960  0.2996
16395SOL    HW249967   2.487   2.408   5.696 -0.7800 -1.5487 -1.4180
16396SOL     OW49968   6.665   3.140   7.054  0.0540  0.4933  0.3041
16396SOL    HW149969   6.757   3.160   7.039 -0.2690  0.1385 -2.7238
16396SOL    HW249970   6.657   3.046   7.036 -1.0307  0.6863 -0.3292
16397SOL     OW49971   6.978   3.085   5.417  0.1401  0.1361 -0.1006
16397SOL    HW149972   6.996   3.177   5.439 -1.3494  0.4995 -0.2598
16397SOL    HW249973   6.899   3.064   5.466  0.6885 -1.2103  0.2388
16398SOL     OW49974   3.714   6.436   0.415 -0.0081  0.1108 -0.0191
16398SOL    HW149975   3.742   6.520   0.451 -0.0324 -0.0313  0.3343
16398SOL    HW249976   3.682   6.457   0.327 -0.2058  0.4985  0.1453
16399SOL     OW49977   3.810   3.526   1.594 -0.9588  0.1096  0.3044
16399SOL    HW149978   3.895   3.521   1.550  0.3336  0.8216  2.5889
16399SOL    HW249979   3.777   3.613   1.572  0.0157  0.7436  1.2656
16400SOL     OW49980   0.207   0.955   2.444 -0.6350 -0.0729  0.1447
16400SOL    HW149981   0.292   0.913   2.452  0.3633  1.8351  0.2256
16400SOL    HW249982   0.145   0.895   2.487  0.7197 -1.2896  0.4511
16401SOL     OW49983   4.225   6.163   7.307 -0.1782  0.2254 -0.2471
16401SOL    HW149984   4.232   6.251   7.270 -1.3547  1.2803  1.8606
16401SOL    HW249985   4.251   6.173   7.399  0.5822 -1.8422 -0.1819
16402SOL     OW49986   4.760   6.409   3.106  0.7092  0.7350  0.6709
16402SOL    HW149987   4.723   6.458   3.032  0.6687 -0.7583 -0.3478
16402SOL    HW249988   4.685   6.368   3.147  1.0011 -1.0263 -0.4442
16403SOL     OW49989   2.306   4.314   7.188  0.1609 -0.0492  0.0380
16403SOL    HW149990   2.273   4.375   7.122  0.8216  0.4291  0.1425
16403SOL    HW249991   2.329   4.235   7.138 -1.3044 -0.4684 -0.0057
16404SOL     OW49992   0.030   6.763   8.203 -0.3801  0.2409 -0.2842
16404SOL    HW149993   0.031   6.722   8.116  0.0921  0.3444 -0.3312
16404SOL    HW249994   0.012   6.855   8.186  4.2961  1.3115 -0.7741
16405SOL     OW49995   4.216   1.172   7.056 -0.3871 -0.1133 -0.4575
16405SOL    HW149996   4.308   1.162   7.082 -0.3226 -0.9693 -0.9698
16405SOL    HW249997   4.220   1.182   6.960 -0.8491 -0.5836 -0.5271
16406SOL     OW49998   3.176   3.920   6.009  0.3243  0.0509 -0.2556
16406SOL    HW149999   3.105   3.974   6.042 -1.0354 -1.3931 -0.7018
16406SOL    HW250000   3.166   3.837   6.056  0.2022 -1.0114 -2.0858
16407SOL     OW50001   4.043   2.332   8.105  0.2534  0.2500  0.0398
16407SOL    HW150002   4.059   2.415   8.151  1.0685 -0.0365  0.2960
16407SOL    HW250003   4.067   2.264   8.168 -0.7615 -0.1948 -0.0450
16408SOL     OW50004   7.320   8.150   2.882 -0.1442  0.2881 -0.1968
16408SOL    HW150005   7.255   8.140   2.951  0.6502  0.8561  0.6415
16408SOL    HW250006   7.373   8.070   2.886  0.8199  0.9608  0.8347
16409SOL     OW50007   1.962   2.713   2.111 -0.0241 -0.0370 -0.5992
16409SOL    HW150008   1.967   2.733   2.017 -0.0302  0.2849 -0.5308
16409SOL    HW250009   1.868   2.711   2.130 -0.0595 -1.1776 -0.8271
16410SOL     OW50010   0.752   6.586   8.186  0.1828  0.1667  0.3241
16410SOL    HW150011   0.789   6.498   8.186 -0.7626 -0.2522 -0.6604
16410SOL    HW250012   0.727   6.601   8.095 -0.7221  1.0024  0.6960
16411SOL     OW50013   7.286   2.610   4.289 -0.0942  0.1084  0.8022
16411SOL    HW150014   7.297   2.550   4.215 -0.4373  1.2413 -0.2016
16411SOL    HW250015   7.371   2.610   4.333  0.1991 -0.3615  0.2484
16412SOL     OW50016   8.241   1.593   8.096 -0.1458  0.2656  1.0053
16412SOL    HW150017   8.206   1.523   8.040 -0.6721  0.7317  0.7490
16412SOL    HW250018   8.189   1.587   8.176 -0.0839  0.2626  1.0441
16413SOL     OW50019   7.234   6.799   5.121 -0.4800  1.0569 -0.2842
16413SOL    HW150020   7.251   6.881   5.075  1.1211  0.7905 -0.2347
16413SOL    HW250021   7.285   6.734   5.072  0.1227  0.5179  1.0365
16414SOL     OW50022   6.036   7.050   6.587 -0.0294 -0.0464  0.2268
16414SOL    HW150023   6.121   7.007   6.598  0.0741  0.4581  1.5935
16414SOL    HW250024   5.996   7.047   6.673 -1.1800  0.1922 -0.2878
16415SOL     OW50025   1.816   1.734   7.624  0.2128 -0.2919 -0.8314
16415SOL    HW150026   1.909   1.731   7.648  0.6484 -1.8626 -2.5023
16415SOL    HW250027   1.774   1.776   7.699  2.3435  1.1327 -0.3274
16416SOL     OW50028   4.505   6.970   4.437  0.3678 -0.1119  0.4388
16416SOL    HW150029   4.594   6.989   4.466  1.2650 -0.5710 -1.8363
16416SOL    HW250030   4.496   7.017   4.354 -1.9898  0.9608  1.2088
16417SOL     OW50031   3.725   1.035   2.868 -0.2809  0.7166 -0.3550
16417SOL    HW150032   3.654   0.974   2.889 -0.9209  1.3752 -0.5525
16417SOL    HW250033   3.701   1.072   2.783 -1.5354  3.4702  1.0508
16418SOL     OW50034   6.621   1.299   1.478 -0.3217  0.1723  0.4828
16418SOL    HW150035   6.671   1.315   1.398 -0.1124  0.4993  0.6761
16418SOL    HW250036   6.686   1.307   1.548 -0.7745  1.2793  0.7849
16419SOL     OW50037   1.528   7.512   6.688 -0.2877 -0.2014 -0.4439
16419SOL    HW150038   1.573   7.435   6.722  0.5460  0.5947  0.3266
16419SOL    HW250039   1.556   7.518   6.596  0.9407  0.0800 -0.0704
16420SOL     OW50040   4.657   7.622   5.115 -0.0286  0.5307 -0.2710
16420SOL    HW150041   4.736   7.627   5.062 -0.7667 -0.8360 -1.5515
16420SOL    HW250042   4.612   7.705   5.100  1.1997  1.4025  0.6173
16421SOL     OW50043   7.672   7.189   6.779  0.3862  0.1893  0.2055
16421SOL    HW150044   7.665   7.256   6.846  0.3247  0.4611 -0.0718
16421SOL    HW250045   7.603   7.126   6.801  0.2814  0.3441  0.3213
16422SOL     OW50046   5.536   6.107   7.633 -0.2372  0.2477  0.3091
16422SOL    HW150047   5.511   6.015   7.634  0.6742  0.0006  1.2943
16422SOL    HW250048   5.606   6.113   7.568 -1.4283  0.5867 -1.0072
16423SOL     OW50049   3.411   0.242   0.439  0.2623  0.5505  0.3218
16423SOL    HW150050   3.494   0.261   0.397  0.4861  3.3153  1.7120
16423SOL    HW250051   3.435   0.199   0.521 -0.0289 -2.5865 -1.1218
16424SOL     OW50052   1.465   7.503   5.315 -0.0469 -0.6974  0.1146
16424SOL    HW150053   1.371   7.488   5.331 -0.2754 -0.1685 -0.6791
16424SOL    HW250054   1.506   7.491   5.401 -0.6705 -2.2569  0.2277
16425SOL     OW50055   7.366   6.304   3.768  0.0523  0.2308  0.3036
16425SOL    HW150056   7.371   6.394   3.735 -0.6353  0.1842  0.0381
16425SOL    HW250057   7.328   6.313   3.855  1.5574  0.3271  0.9686
16426SOL     OW50058   3.033   5.875   4.362 -0.9700 -0.1815  0.0754
16426SOL    HW150059   3.032   5.916   4.275 -1.4701 -1.7727 -0.7117
16426SOL    HW250060   2.950   5.900   4.401 -0.8400  0.3607  0.0173
16427SOL     OW50061   4.883   5.121   6.903  0.0808 -0.3400  0.1253
16427SOL    HW150062   4.954   5.114   6.839 -0.0159 -2.0736  0.1475
16427SOL    HW250063   4.923   5.166   6.978  0.9041 -0.5016 -0.2049
16428SOL     OW50064   6.841   6.749   0.069  0.1085  0.6463  0.0682
16428SOL    HW150065   6.755   6.792   0.066  0.6808  1.8155  0.2060
16428SOL    HW250066   6.850   6.709  -0.018 -0.3328  0.9975 -0.1465
16429SOL     OW50067   4.799   8.006   2.854 -0.1479  0.2089 -0.5177
16429SOL    HW150068   4.838   8.061   2.922  0.2924 -0.6275 -0.0753
16429SOL    HW250069   4.705   8.013   2.868 -0.0564 -0.1262  0.3272
16430SOL     OW50070   5.747   3.145   2.391 -0.1332  0.5316  0.5065
16430SOL    HW150071   5.678   3.177   2.333  2.3884 -0.3617 -3.4378
16430SOL    HW250072   5.777   3.223   2.437 -0.8410  1.8498 -1.1354
16431SOL     OW50073   2.918   4.331   7.714  0.1181  0.3788  0.4670
16431SOL    HW150074   2.943   4.362   7.801 -2.5553  1.6821  0.8914
16431SOL    HW250075   2.863   4.254   7.731 -1.9470  1.6898  0.1779
16432SOL     OW50076   5.134   3.697   7.716 -0.3310  0.5615 -0.0280
16432SOL    HW150077   5.099   3.764   7.775 -0.9816  0.1333  0.0756
16432SOL    HW250078   5.153   3.746   7.635 -0.8640  0.8715  0.0230
16433SOL     OW50079   7.891   8.044   2.481 -0.4208  0.2476 -0.6835
16433SOL    HW150080   7.944   8.034   2.560 -1.3754  0.7858  0.0559
16433SOL    HW250081   7.895   7.959   2.438  0.3105  0.0192 -0.1757
16434SOL     OW50082   1.090   3.345   2.948 -0.0852 -0.6003 -0.0278
16434SOL    HW150083   1.135   3.339   3.033  0.5513  2.7706  0.0087
16434SOL    HW250084   1.161   3.345   2.884 -0.1875  1.3247 -0.1965
16435SOL     OW50085   6.053   3.124   0.523 -0.4941  0.0355 -0.4619
16435SOL    HW150086   6.017   3.044   0.563 -0.0453  0.0086 -0.1041
16435SOL    HW250087   6.010   3.195   0.571  0.5354  0.0065  0.5563
16436SOL     OW50088   0.929   3.846   4.190  0.1592 -0.1589  0.7000
16436SOL    HW150089   0.943   3.798   4.109  3.1017 -0.1227  1.0941
16436SOL    HW250090   0.893   3.780   4.250  0.8088 -0.9677  0.2256
16437SOL     OW50091   3.617   2.738   1.804 -0.7259 -0.6236 -0.6697
16437SOL    HW150092   3.670   2.814   1.828 -0.9029 -0.4816 -0.7276
16437SOL    HW250093   3.671   2.662   1.828  0.5753 -0.5215 -2.9450
16438SOL     OW50094   3.983   6.898   8.097 -0.8667  0.7459  0.3419
16438SOL    HW150095   4.012   6.809   8.117 -0.9988  1.0668  2.0645
16438SOL    HW250096   3.945   6.891   8.009  0.9162 -0.4674 -0.3816
16439SOL     OW50097   3.351   5.651   0.271  0.3405  0.1224  0.2243
16439SOL    HW150098   3.420   5.592   0.241 -0.7761 -1.4425  0.5866
16439SOL    HW250099   3.272   5.597   0.271 -0.8205  1.7422  0.2138
16440SOL     OW50100   6.188   4.547   7.518 -0.1880 -0.4572  0.2280
16440SOL    HW150101   6.129   4.498   7.462 -0.8534  1.2311 -0.6063
16440SOL    HW250102   6.186   4.636   7.483  0.7648  0.2410  1.8468
16441SOL     OW50103   1.882   3.066   3.439  0.1367  0.0731  0.3962
16441SOL    HW150104   1.863   3.108   3.523 -1.2060  0.1363  0.0762
16441SOL    HW250105   1.808   3.006   3.425  1.4969 -1.6955  0.3752
16442SOL     OW50106   7.404   6.479   0.896 -0.0342  0.5310 -0.6499
16442SOL    HW150107   7.428   6.548   0.834 -0.5312 -0.7545 -2.3556
16442SOL    HW250108   7.474   6.415   0.889 -0.4154  0.0769 -0.3656
16443SOL     OW50109   7.538   7.685   2.370  0.2623 -0.0525 -0.0585
16443SOL    HW150110   7.532   7.774   2.335  1.3081  0.3330  0.6736
16443SOL    HW250111   7.616   7.649   2.328 -1.4486 -1.5168 -2.1919
16444SOL     OW50112   4.862   7.183   6.846  0.1262  0.4841 -0.4085
16444SOL    HW150113   4.873   7.108   6.905  0.2224  1.0496  0.3076
16444SOL    HW250114   4.942   7.235   6.859 -1.1182  2.1119  1.1695
16445SOL     OW50115   1.498   3.201   6.139 -0.0442 -0.4421  0.2434
16445SOL    HW150116   1.566   3.213   6.205  1.1263 -1.1877 -0.7775
16445SOL    HW250117   1.417   3.227   6.183  0.9694  1.1581  1.2728
16446SOL     OW50118   1.926   3.725   0.700 -0.4542 -0.1435  0.8088
16446SOL    HW150119   1.926   3.688   0.788 -2.7436  2.9233  2.2832
16446SOL    HW250120   1.835   3.720   0.671  0.0340  0.0380 -0.8822
16447SOL     OW50121   0.164   2.035   5.208  0.0245 -0.3643  0.6079
16447SOL    HW150122   0.228   2.104   5.192  1.6627 -2.1700 -1.2758
16447SOL    HW250123   0.217   1.959   5.231 -1.3380 -2.0201 -1.3761
16448SOL     OW50124   2.701   7.615   0.246  0.1267 -0.5402 -0.3174
16448SOL    HW150125   2.734   7.624   0.335 -0.7403 -0.2782 -0.0149
16448SOL    HW250126   2.754   7.675   0.194  0.5711 -0.6232  0.0366
16449SOL     OW50127   1.759   0.756   7.731 -0.1486 -0.2289 -0.5365
16449SOL    HW150128   1.751   0.694   7.659 -0.6677  0.3429 -0.9877
16449SOL    HW250129   1.801   0.833   7.692 -2.4638  0.9712 -0.8156
16450SOL     OW50130   0.430   4.722   0.413 -0.3359 -0.4792 -0.0608
16450SOL    HW150131   0.427   4.811   0.447 -0.1561 -1.0055  1.4429
16450SOL    HW250132   0.408   4.730   0.321 -0.8174  1.0595  0.1621
16451SOL     OW50133   1.470   0.273   1.353 -0.4839  0.6581 -0.3638
16451SOL    HW150134   1.478   0.195   1.298 -0.6651 -0.6555  1.3729
16451SOL    HW250135   1.376   0.280   1.370 -0.2763 -0.1896  1.3757
16452SOL     OW50136   4.276   6.234   7.858 -0.0088  0.0961 -0.2880
16452SOL    HW150137   4.252   6.204   7.770  1.8250 -0.7614 -0.5467
16452SOL    HW250138   4.334   6.309   7.842 -2.7085  2.4799  0.3189
16453SOL     OW50139   0.280   7.064   6.332 -0.5489  0.3601  0.1891
16453SOL    HW150140   0.221   7.135   6.355 -1.2353  0.8999 -2.8552
16453SOL    HW250141   0.250   7.034   6.246  0.9575 -2.2899  0.4621
16454SOL     OW50142   4.489   6.701   4.491  0.1321  0.6649  0.1834
16454SOL    HW150143   4.506   6.795   4.484 -0.9060  0.8351 -0.2278
16454SOL    HW250144   4.524   6.664   4.409 -0.0490  0.7840  0.0527
16455SOL     OW50145   1.658   0.935   7.390 -0.3842 -0.3247 -0.0842
16455SOL    HW150146   1.611   1.008   7.430 -0.1591 -0.5832  0.6518
16455SOL    HW250147   1.738   0.926   7.442 -1.0278 -1.9620  0.6927
16456SOL     OW50148   3.062   1.308   4.320 -0.2150 -0.1656 -0.1283
16456SOL    HW150149   3.127   1.299   4.390  1.0486  1.6409 -0.9826
16456SOL    HW250150   3.104   1.268   4.243 -0.5777  0.0081 -0.4232
16457SOL     OW50151   2.719   3.161   4.991 -0.1704 -0.0800 -0.1421
16457SOL    HW150152   2.635   3.117   4.979  0.3675 -1.2503  0.1786
16457SOL    HW250153   2.783   3.098   4.958  0.6154  0.5712  0.1273
16458SOL     OW50154   7.166   6.912   6.279  0.3428  0.2149 -0.1102
16458SOL    HW150155   7.180   6.843   6.214 -0.4048  1.5203 -1.7391
16458SOL    HW250156   7.230   6.893   6.348  0.5040 -1.7869 -0.7337
16459SOL     OW50157   2.976   0.163   4.219 -0.4929 -0.3753  0.2760
16459SOL    HW150158   2.890   0.177   4.261  0.1059  1.8449  0.9419
16459SOL    HW250159   3.026   0.113   4.283 -0.3513  0.9822  1.2905
16460SOL     OW50160   4.097   4.040   3.109  0.5007  0.2666  0.1347
16460SOL    HW150161   4.099   3.967   3.171  0.9201 -0.0215 -0.2058
16460SOL    HW250162   4.090   4.118   3.164  0.0562 -0.0299  0.5035
16461SOL     OW50163   3.838   0.880   0.962 -0.6365 -0.4298  0.0937
16461SOL    HW150164   3.771   0.947   0.977 -0.0048 -0.4000  3.7253
16461SOL    HW250165   3.900   0.921   0.903 -1.9329  0.9153 -0.4011
16462SOL     OW50166   7.229   4.161   3.246 -0.5157 -0.9768  0.0080
16462SOL    HW150167   7.151   4.177   3.300 -0.7179 -1.2871 -0.1948
16462SOL    HW250168   7.222   4.225   3.175 -1.1262 -1.6989 -0.5888
16463SOL     OW50169   6.489   3.425   4.674 -0.1278 -0.4902 -0.2920
16463SOL    HW150170   6.465   3.359   4.739 -0.0658  0.5802  0.8529
16463SOL    HW250171   6.440   3.502   4.700 -0.4166 -0.1496 -1.7785
16464SOL     OW50172   8.311   1.016   0.328  0.0759 -0.5866 -0.1157
16464SOL    HW150173   8.295   1.025   0.234  0.2007  0.5544 -0.0409
16464SOL    HW250174   8.272   0.932   0.351  2.0179 -1.9976 -1.6127
16465SOL     OW50175   1.199   4.088   2.097  0.0773 -0.0267 -0.2351
16465SOL    HW150176   1.184   4.140   2.018  1.8875 -0.7928 -1.1507
16465SOL    HW250177   1.195   3.997   2.067 -0.8007 -0.3915  0.9029
16466SOL     OW50178   4.040   1.599   8.207  0.6055 -0.5998  0.1185
16466SOL    HW150179   4.117   1.556   8.244  1.0662  0.0688 -0.0250
16466SOL    HW250180   4.031   1.679   8.258  0.6377 -0.1680 -0.5358
16467SOL     OW50181   4.971   4.906   8.182 -0.0052 -0.1479 -0.0752
16467SOL    HW150182   5.049   4.931   8.134 -0.8487  2.4773 -0.2574
16467SOL    HW250183   4.968   4.967   8.256 -1.0919 -1.2028  0.7982
16468SOL     OW50184   8.243   1.222   3.895 -0.1271  0.4980  0.8767
16468SOL    HW150185   8.307   1.237   3.964  0.6882  1.5455 -0.0546
16468SOL    HW250186   8.194   1.304   3.889  0.5310  0.8202 -0.4713
16469SOL     OW50187   2.378   6.446   4.434  0.2483  0.3233 -0.7303
16469SOL    HW150188   2.335   6.377   4.383 -0.6971  0.5103 -0.2201
16469SOL    HW250189   2.374   6.523   4.378 -1.0857  0.6117 -0.2749
16470SOL     OW50190   6.116   5.834   3.253  0.1124  0.0799  0.1624
16470SOL    HW150191   6.040   5.884   3.281 -0.4934 -1.0199  0.5450
16470SOL    HW250192   6.130   5.770   3.323  1.1422  0.0051 -0.0928
16471SOL     OW50193   3.501   0.742   7.537  0.4731 -0.2676 -0.3275
16471SOL    HW150194   3.482   0.655   7.571  0.6157 -0.5007 -0.8467
16471SOL    HW250195   3.590   0.737   7.503  0.4269  0.0369 -0.5028
16472SOL     OW50196   6.789   8.013   1.437  0.0271 -0.4367 -0.9775
16472SOL    HW150197   6.750   7.931   1.467  1.9117 -1.3570 -0.9056
16472SOL    HW250198   6.797   8.066   1.516 -0.0106 -0.7077 -0.7894
16473SOL     OW50199   5.359   0.158   1.712 -0.6925  1.0133 -0.0862
16473SOL    HW150200   5.349   0.085   1.774 -0.8544  1.6482  0.6521
16473SOL    HW250201   5.323   0.124   1.630 -0.2685  0.0763  0.0973
16474SOL     OW50202   7.692   5.904   4.722  0.1084 -0.2680 -0.0154
16474SOL    HW150203   7.714   5.814   4.698 -1.0122 -0.5382 -0.1113
16474SOL    HW250204   7.776   5.949   4.727  1.0739 -2.0601  3.1759
16475SOL     OW50205   0.999   1.433   7.496 -0.1715 -0.1597  0.4249
16475SOL    HW150206   0.913   1.462   7.526 -0.8483 -1.3283 -0.3183
16475SOL    HW250207   1.004   1.341   7.523  1.2015  0.0985  1.1809
16476SOL     OW50208   7.874   6.831   3.682  0.0463  0.2691 -0.1223
16476SOL    HW150209   7.879   6.870   3.769  0.1706  0.8663 -0.3908
16476SOL    HW250210   7.955   6.858   3.639  1.6882 -2.8719  0.7129
16477SOL     OW50211   6.462   7.862   5.072 -0.2803 -0.1031  0.0433
16477SOL    HW150212   6.405   7.929   5.110 -1.0766 -1.1920  0.8324
16477SOL    HW250213   6.510   7.908   5.003  0.1853  1.6166  1.4215
16478SOL     OW50214   6.272   1.163   7.545 -0.1993  0.3517  0.1086
16478SOL    HW150215   6.358   1.128   7.523  0.3122  0.5216  1.6715
16478SOL    HW250216   6.218   1.146   7.468  1.0938 -0.2245 -0.7002
16479SOL     OW50217   6.067   3.267   6.110 -0.1313  0.7793 -0.3550
16479SOL    HW150218   6.054   3.173   6.115  2.0155  0.3153 -2.0991
16479SOL    HW250219   6.069   3.296   6.201  0.7830 -1.1285  0.2802
16480SOL     OW50220   5.964   0.176   5.410  0.0190  0.0133  1.1074
16480SOL    HW150221   5.943   0.194   5.502  1.4113  0.7758  1.3062
16480SOL    HW250222   6.028   0.243   5.387  0.8245 -1.0787  0.0304
16481SOL     OW50223   3.104   6.455   5.514 -0.5588  0.0137 -0.2800
16481SOL    HW150224   3.017   6.479   5.482 -0.4303  0.7054 -0.1285
16481SOL    HW250225   3.107   6.360   5.506 -1.3066 -0.0127 -0.3409
16482SOL     OW50226   0.653   2.123   0.706  0.0276 -0.2230  0.7631
16482SOL    HW150227   0.640   2.096   0.797 -0.6310 -1.1678  0.4101
16482SOL    HW250228   0.718   2.061   0.672  0.9836  0.7050  0.8256
16483SOL     OW50229   6.729   5.142   7.312  0.8031  0.6784 -0.3330
16483SOL    HW150230   6.816   5.176   7.335  1.2347  0.2490 -1.2597
16483SOL    HW250231   6.701   5.196   7.238  0.6091  0.3320 -0.5143
16484SOL     OW50232   3.639   5.545   2.035  0.1869  0.2265  0.1657
16484SOL    HW150233   3.593   5.465   2.012 -2.0009  1.2625  0.6114
16484SOL    HW250234   3.661   5.586   1.951  0.2857 -0.2632 -0.0507
16485SOL     OW50235   0.437   3.635   3.295  0.4546 -0.5263  0.3045
16485SOL    HW150236   0.526   3.666   3.308 -0.5938  2.3446  1.4839
16485SOL    HW250237   0.400   3.630   3.383 -2.1639  4.0971 -0.2010
16486SOL     OW50238   0.977   3.684   2.807 -0.0753 -0.3163  0.1179
16486SOL    HW150239   1.023   3.683   2.723  0.0309 -0.9262  0.1827
16486SOL    HW250240   1.005   3.766   2.848 -0.3730  0.1425 -0.5749
16487SOL     OW50241   3.736   6.156   0.223 -0.3220 -0.2076 -0.0988
16487SOL    HW150242   3.756   6.245   0.250 -1.8194  0.0460  0.2461
16487SOL    HW250243   3.652   6.136   0.265  0.5133 -2.1933  0.7537
16488SOL     OW50244   6.686   4.982   3.738  0.0578 -0.0126  0.0706
16488SOL    HW150245   6.734   5.006   3.817  0.4442 -1.2573  0.2236
16488SOL    HW250246   6.715   5.046   3.672  0.4829  0.4029  0.6557
16489SOL     OW50247   3.668   2.417   1.637  0.6821  0.1061  0.5500
16489SOL    HW150248   3.729   2.490   1.638  1.3092 -0.4056  1.5716
16489SOL    HW250249   3.660   2.391   1.729  0.1593 -0.8470  0.2531
16490SOL     OW50250   3.121   4.628   4.656  0.2693  0.1760  0.6307
16490SOL    HW150251   3.064   4.658   4.584 -1.4299  3.0695  2.9217
16490SOL    HW250252   3.209   4.653   4.628 -0.3631  1.4143 -0.4213
16491SOL     OW50253   7.771   6.589   6.735  0.1272 -0.3727 -0.1204
16491SOL    HW150254   7.774   6.496   6.713  2.0665 -0.3970  0.0775
16491SOL    HW250255   7.733   6.592   6.822 -0.6514 -0.9048 -0.4318
16492SOL     OW50256   3.538   6.380   4.936 -0.2941  0.2171 -0.6633
16492SOL    HW150257   3.520   6.289   4.913  2.4750 -0.7247  0.4743
16492SOL    HW250258   3.580   6.417   4.858  0.2802 -0.0543 -0.4850
16493SOL     OW50259   3.813   6.618   3.927  0.4694 -0.0817 -0.1462
16493SOL    HW150260   3.763   6.582   3.853  1.0314  1.2747 -1.2493
16493SOL    HW250261   3.894   6.567   3.928 -0.3927 -1.4567  0.8503
16494SOL     OW50262   6.492   1.737   1.773  0.2684 -0.5432 -0.7694
16494SOL    HW150263   6.405   1.699   1.763  0.4279 -1.5279  0.9950
16494SOL    HW250264   6.478   1.831   1.765 -1.0104 -0.6638 -0.2900
16495SOL     OW50265   1.243   6.645   4.905 -0.0422 -0.5140  0.6057
16495SOL    HW150266   1.301   6.721   4.898 -1.3938  0.5997  0.9071
16495SOL    HW250267   1.271   6.600   4.984  1.0737 -0.5938  0.1760
16496SOL     OW50268   2.613   2.147   1.560 -0.3614 -0.4839  0.1576
16496SOL    HW150269   2.661   2.186   1.487 -0.6214 -0.5925 -0.0721
16496SOL    HW250270   2.521   2.146   1.531 -0.5441 -0.0147  0.7034
16497SOL     OW50271   0.963   2.006   3.386  0.3939 -0.1971 -0.1042
16497SOL    HW150272   1.027   2.051   3.442 -0.0999 -0.6902  0.8951
16497SOL    HW250273   0.888   1.992   3.443  0.6216 -2.5207 -0.2663
16498SOL     OW50274   5.728   6.387   7.097  0.2667 -0.0062  0.5422
16498SOL    HW150275   5.705   6.337   7.019  0.7925 -1.5942  1.3760
16498SOL    HW250276   5.803   6.440   7.071 -0.6167  0.7873 -0.4963
16499SOL     OW50277   7.301   2.006   1.764  0.2031 -0.1794  0.3011
16499SOL    HW150278   7.288   2.081   1.822 -0.2850 -1.2575  1.6472
16499SOL    HW250279   7.363   1.950   1.811 -1.0831 -1.6271  0.3717
16500SOL     OW50280   4.422   2.078   3.809 -0.1674 -0.1380 -0.0486
16500SOL    HW150281   4.366   2.001   3.815  0.6064 -0.7581 -0.6420
16500SOL    HW250282   4.504   2.046   3.771  0.2049  0.9537 -0.2109
16501SOL     OW50283   3.098   4.082   3.207  0.0001 -0.2025  0.5003
16501SOL    HW150284   3.007   4.083   3.179  0.0651  0.3137  0.2985
16501SOL    HW250285   3.130   3.995   3.183 -0.7333 -0.7870  1.5470
16502SOL     OW50286   6.588   1.899   0.779  0.3306 -0.2832  0.2654
16502SOL    HW150287   6.682   1.915   0.784  0.1511  1.3739 -0.7563
16502SOL    HW250288   6.574   1.820   0.830  2.3866 -1.0156 -0.2113
16503SOL     OW50289   1.608   5.809   1.528  0.2118  0.3656 -0.3046
16503SOL    HW150290   1.614   5.858   1.611 -1.2190 -0.4759  0.3313
16503SOL    HW250291   1.553   5.734   1.549 -0.5580  0.3766 -2.1421
16504SOL     OW50292   3.626   0.270   4.045  0.7456 -0.8739 -0.3458
16504SOL    HW150293   3.709   0.245   4.004 -0.5671 -0.1014 -3.8139
16504SOL    HW250294   3.579   0.187   4.056  1.6079 -1.2256  0.8916
16505SOL     OW50295   2.748   6.534   3.624 -0.0847 -0.0032 -0.6585
16505SOL    HW150296   2.689   6.567   3.556 -1.8594 -0.2446  0.6876
16505SOL    HW250297   2.830   6.582   3.610 -0.7260  0.7024 -2.2879
16506SOL     OW50298   3.693   4.395   1.424 -0.3177 -0.0095  0.2872
16506SOL    HW150299   3.705   4.317   1.369 -0.3517 -0.3007  0.6881
16506SOL    HW250300   3.776   4.442   1.416  0.0101 -0.5031  0.6847
16507SOL     OW50301   3.427   4.678   2.356  0.1827  0.0421 -0.0454
16507SOL    HW150302   3.473   4.723   2.285 -0.4349 -1.6034 -1.5273
16507SOL    HW250303   3.388   4.601   2.316 -0.1054 -1.0208  2.1007
16508SOL     OW50304   3.382   0.158   3.241  0.1409  0.0546 -0.2045
16508SOL    HW150305   3.465   0.112   3.259 -0.3503 -0.6784  0.2270
16508SOL    HW250306   3.409   0.247   3.218  0.9921  0.1068  0.9026
16509SOL     OW50307   8.235   7.282   2.757 -0.2204 -0.0363  0.5757
16509SOL    HW150308   8.266   7.204   2.712 -0.9962 -0.5645  0.9347
16509SOL    HW250309   8.172   7.250   2.821 -0.9001  0.9113  0.4205
16510SOL     OW50310   5.002   1.972   2.266 -0.4235  0.4901  0.0396
16510SOL    HW150311   5.029   1.990   2.356 -1.2601 -0.3690  0.4880
16510SOL    HW250312   4.947   2.047   2.243 -0.2061  0.7146  0.2422
16511SOL     OW50313   7.486   3.761   0.169 -0.3148  0.1345  0.6905
16511SOL    HW150314   7.452   3.773   0.258  0.5906  0.6276  0.9853
16511SOL    HW250315   7.474   3.846   0.127 -2.5387 -0.6090 -0.3358
16512SOL     OW50316   5.017   5.426   3.060  0.2608  0.0464 -0.3748
16512SOL    HW150317   4.946   5.362   3.056  0.3140  0.0514 -1.7323
16512SOL    HW250318   5.084   5.392   3.001  0.8287  0.7090 -0.1277
16513SOL     OW50319   1.807   1.739   1.309 -0.1326 -0.3877 -0.2969
16513SOL    HW150320   1.833   1.808   1.248 -0.5824 -0.1215 -0.1936
16513SOL    HW250321   1.721   1.767   1.341 -0.1963 -0.8627 -0.0506
16514SOL     OW50322   0.351   5.965   7.478  0.6293 -0.0445 -0.2953
16514SOL    HW150323   0.367   5.920   7.561  0.6085  0.1967 -0.1589
16514SOL    HW250324   0.264   6.003   7.487 -0.9037 -2.8674 -1.7232
16515SOL     OW50325   3.808   7.651   0.602  0.5915 -0.8812  0.3356
16515SOL    HW150326   3.789   7.557   0.605  0.1811 -0.8022  0.3457
16515SOL    HW250327   3.875   7.660   0.534 -0.9950 -0.9306 -1.3221
16516SOL     OW50328   4.566   2.501   6.227  0.0980  0.0766 -0.1807
16516SOL    HW150329   4.492   2.551   6.260  0.8544  0.4376  1.0278
16516SOL    HW250330   4.527   2.421   6.191 -0.9934  0.9019 -0.8747
16517SOL     OW50331   4.763   5.107   1.070  0.2319 -0.4322  0.0137
16517SOL    HW150332   4.679   5.079   1.033  0.4095 -0.8878 -0.0505
16517SOL    HW250333   4.741   5.140   1.157 -0.0861 -0.0531 -0.2097
16518SOL     OW50334   5.426   6.771   2.283  0.7140  0.4588 -0.7259
16518SOL    HW150335   5.383   6.785   2.367 -0.6560 -0.8810 -1.1565
16518SOL    HW250336   5.519   6.763   2.305  0.2629 -1.1750  0.8560
16519SOL     OW50337   2.657   6.560   5.242  0.3195  0.1630 -0.2476
16519SOL    HW150338   2.592   6.610   5.290 -0.7744  0.1288 -1.6415
16519SOL    HW250339   2.700   6.624   5.185 -0.7183 -0.3208 -1.6443
16520SOL     OW50340   7.515   0.076   1.832  0.3341 -0.2637  0.7822
16520SOL    HW150341   7.449   0.116   1.889 -0.5259 -0.4475 -0.0631
16520SOL    HW250342   7.565   0.151   1.797  0.0028 -0.0596  0.7431
16521SOL     OW50343   3.936   0.395   1.228  0.8401  0.1254  0.1412
16521SOL    HW150344   3.849   0.403   1.266  1.1803  2.0454  0.6003
16521SOL    HW250345   3.920   0.374   1.136 -0.0387 -1.2651  0.5748
16522SOL     OW50346   2.069   3.179   1.331 -0.2675  0.0638 -0.5854
16522SOL    HW150347   2.069   3.090   1.367 -0.3451 -0.4104 -1.7075
16522SOL    HW250348   1.976   3.201   1.323 -0.2975  1.3292  2.1648
16523SOL     OW50349   4.702   3.725   4.702  0.0993 -0.0746  0.4489
16523SOL    HW150350   4.686   3.640   4.661 -2.2130 -0.0502  1.1628
16523SOL    HW250351   4.707   3.786   4.628 -2.0323 -0.3301  0.0035
16524SOL     OW50352   6.156   5.179   7.250  0.1017 -0.2094  0.2358
16524SOL    HW150353   6.087   5.113   7.247 -0.2908  0.0096  2.4861
16524SOL    HW250354   6.110   5.263   7.240  0.2717 -0.1507 -0.0612
16525SOL     OW50355   3.619   3.359   2.523 -0.0750 -0.0416  0.1872
16525SOL    HW150356   3.679   3.313   2.464  0.2475 -1.4845  1.5528
16525SOL    HW250357   3.659   3.351   2.610  0.2186  3.2982  0.4774
16526SOL     OW50358   3.694   2.603   1.086 -0.2082 -0.7074  0.2209
16526SOL    HW150359   3.623   2.551   1.048  0.5693 -1.3613 -0.3642
16526SOL    HW250360   3.665   2.622   1.175 -1.5104 -0.2099 -0.2840
16527SOL     OW50361   2.493   7.432   6.076  0.3509 -0.5434  0.4653
16527SOL    HW150362   2.531   7.416   5.990  0.6972 -0.6969  0.6488
16527SOL    HW250363   2.541   7.508   6.110 -1.4592  1.1383 -0.5193
16528SOL     OW50364   4.870   6.797   5.476 -0.1476 -0.2870  0.2499
16528SOL    HW150365   4.954   6.750   5.479  1.0630  1.7045 -0.0100
16528SOL    HW250366   4.805   6.730   5.459  1.6331 -1.6659 -1.5848
16529SOL     OW50367   7.482   0.643   1.262 -0.5577  0.3699  0.6744
16529SOL    HW150368   7.410   0.690   1.304 -1.4705 -1.4506  1.2551
16529SOL    HW250369   7.447   0.615   1.178 -0.1738  0.3611  0.5159
16530SOL     OW50370   0.196   0.488   0.476 -0.2897 -0.0157  0.0936
16530SOL    HW150371   0.224   0.500   0.385  1.9684  1.0309  0.8526
16530SOL    HW250372   0.171   0.395   0.481 -0.0957 -0.1796 -1.5094
16531SOL     OW50373   1.259   0.972   0.470 -0.0438  0.3029 -0.5904
16531SOL    HW150374   1.193   0.956   0.403 -0.2981 -1.8373  0.0985
16531SOL    HW250375   1.268   1.067   0.472 -2.8189  0.6699 -0.9786
16532SOL     OW50376   2.385   8.142   5.629 -0.6276 -0.2502 -0.2873
16532SOL    HW150377   2.446   8.087   5.580 -1.0087  0.5382 -1.7142
16532SOL    HW250378   2.397   8.229   5.592 -2.7044 -0.0932 -0.7290
16533SOL     OW50379   0.845   4.922   2.238 -0.0618 -0.4756  0.5052
16533SOL    HW150380   0.872   4.899   2.327 -0.0422 -0.3810  0.5240
16533SOL    HW250381   0.798   4.844   2.206  0.0185 -0.5464  0.5614
16534SOL     OW50382   6.871   0.540   5.929  0.8495  0.3063  0.4694
16534SOL    HW150383   6.917   0.564   5.848 -1.4571 -0.1806 -1.1031
16534SOL    HW250384   6.934   0.558   5.999  3.3191 -0.1768 -1.4774
16535SOL     OW50385   5.206   5.150   1.419 -0.2871 -0.2189 -0.0038
16535SOL    HW150386   5.284   5.153   1.473 -0.9440 -0.3719  0.9833
16535SOL    HW250387   5.140   5.199   1.468 -0.4699  1.0356 -1.4286
16536SOL     OW50388   5.839   6.666   3.125 -0.5860  0.3286 -0.1797
16536SOL    HW150389   5.840   6.649   3.220 -1.0370 -1.2479 -0.4205
16536SOL    HW250390   5.791   6.748   3.116  0.3641  1.0628  1.0222
16537SOL     OW50391   3.860   6.177   3.609  0.3638  0.1632  0.3235
16537SOL    HW150392   3.811   6.117   3.553  2.1544 -0.2239 -0.9154
16537SOL    HW250393   3.848   6.142   3.697  0.5719 -1.4671 -0.2598
16538SOL     OW50394   3.345   6.876   0.078  0.1343 -0.0914 -0.3880
16538SOL    HW150395   3.405   6.869   0.004 -0.4754 -0.9712 -0.8100
16538SOL    HW250396   3.271   6.927   0.045  0.6529  1.0572  0.1543
16539SOL     OW50397   0.545   5.336   6.411 -0.0753 -0.2174 -0.1757
16539SOL    HW150398   0.560   5.283   6.488 -0.8461 -2.2473 -1.3547
16539SOL    HW250399   0.467   5.388   6.431  0.1125 -0.2459  0.6265
16540SOL     OW50400   6.981   2.088   5.939 -0.1596  0.1475 -0.2442
16540SOL    HW150401   6.946   2.065   6.026 -0.4978  1.5875  0.0183
16540SOL    HW250402   7.072   2.057   5.941 -0.6736 -1.4457 -0.0483
16541SOL     OW50403   6.957   0.850   3.727  0.1463  0.3176 -0.3377
16541SOL    HW150404   7.031   0.812   3.774 -0.7726 -0.4944  0.5240
16541SOL    HW250405   6.901   0.886   3.796 -1.4691 -1.3169 -0.7137
16542SOL     OW50406   5.332   1.159   3.234 -0.1519 -0.1504 -0.3412
16542SOL    HW150407   5.329   1.065   3.253  1.7950 -0.2631 -0.4435
16542SOL    HW250408   5.423   1.184   3.249 -0.1640  1.2933 -2.3289
16543SOL     OW50409   6.886   1.871   3.043  0.0506 -0.4815 -0.1447
16543SOL    HW150410   6.887   1.901   3.134  0.7898 -2.6722  0.6215
16543SOL    HW250411   6.958   1.919   3.001  1.2572 -1.1840  1.0524
16544SOL     OW50412   4.419   0.471   5.682  0.6938 -0.4541  0.4325
16544SOL    HW150413   4.381   0.403   5.627  0.5614  1.0376 -1.3917
16544SOL    HW250414   4.344   0.514   5.723  0.7910 -1.5553  1.8605
16545SOL     OW50415   5.108   6.303   5.014  0.2302 -0.7574  0.5156
16545SOL    HW150416   5.178   6.288   4.950 -0.0435 -0.5569  0.1704
16545SOL    HW250417   5.083   6.216   5.043 -1.2541 -1.0379 -1.3747
16546SOL     OW50418   2.320   3.350   4.899  0.2912 -0.1636  0.1367
16546SOL    HW150419   2.361   3.428   4.937  0.7873  0.0719 -0.8431
16546SOL    HW250420   2.233   3.347   4.939  0.6977  0.2127  1.0781
16547SOL     OW50421   0.943   4.147   0.986 -0.4185  0.2340 -0.2694
16547SOL    HW150422   0.947   4.073   0.926 -0.9319 -0.4147  0.4745
16547SOL    HW250423   1.034   4.172   1.000 -0.1767 -0.8043  0.1209
16548SOL     OW50424   2.737   7.285   7.411  0.7175  0.0276  0.2894
16548SOL    HW150425   2.688   7.236   7.345  1.2588 -1.6691  1.0815
16548SOL    HW250426   2.810   7.323   7.364 -0.7689  1.7910 -0.7258
16549SOL     OW50427   5.670   7.809   3.560  0.5129 -0.1498 -0.2628
16549SOL    HW150428   5.696   7.743   3.625  1.9232 -0.8827 -1.5206
16549SOL    HW250429   5.652   7.759   3.481 -2.9765  0.5365 -0.0360
16550SOL     OW50430   1.056   5.060   5.735 -0.0437  0.2587  0.4237
16550SOL    HW150431   1.027   5.066   5.826 -0.7981  0.3238  0.1778
16550SOL    HW250432   0.979   5.080   5.683  0.5323  0.8297 -0.2351
16551SOL     OW50433   0.286   2.932   4.529 -0.0949 -0.3720  0.1594
16551SOL    HW150434   0.216   2.919   4.593 -0.6463 -0.4840 -0.4554
16551SOL    HW250435   0.318   2.844   4.511  2.2435 -0.1757  2.6106
16552SOL     OW50436   3.366   3.175   0.094  0.1403  0.1163 -0.2060
16552SOL    HW150437   3.423   3.231   0.148 -0.9903  0.6814  0.4519
16552SOL    HW250438   3.350   3.098   0.148  1.5055 -0.7626 -1.0178
16553SOL     OW50439   4.009   6.992   0.078 -0.0887  0.4053 -0.1994
16553SOL    HW150440   4.077   7.002   0.012 -0.3061  2.9549 -0.1398
16553SOL    HW250441   3.952   6.923   0.044  1.6488 -0.7061 -0.9829
16554SOL     OW50442   8.117   6.982   4.610 -0.1251  0.5437  0.2570
16554SOL    HW150443   8.154   6.941   4.688  0.9181  1.7183  0.4032
16554SOL    HW250444   8.154   6.932   4.537  1.2972  1.2981  0.4244
16555SOL     OW50445   3.337   5.916   3.106 -0.0782 -0.3620  0.1371
16555SOL    HW150446   3.356   5.978   3.177 -4.4358 -0.2771  1.5141
16555SOL    HW250447   3.279   5.965   3.047 -4.2512 -3.0342  1.6260
16556SOL     OW50448   2.215   4.233   6.369  0.2643 -0.1716  0.0194
16556SOL    HW150449   2.186   4.229   6.277  0.3902 -0.6618 -0.0008
16556SOL    HW250450   2.169   4.309   6.405  1.1106  0.7410 -0.7600
16557SOL     OW50451   4.930   4.409   0.474  0.0996 -0.0278 -0.0941
16557SOL    HW150452   4.886   4.422   0.558 -1.6551 -0.0458 -0.9709
16557SOL    HW250453   4.890   4.473   0.415  2.0193  0.7001 -0.7066
16558SOL     OW50454   7.611   0.848   7.489  0.3336  0.2886  0.4183
16558SOL    HW150455   7.620   0.935   7.528  3.0982 -0.2575  1.2460
16558SOL    HW250456   7.694   0.835   7.443 -0.5168 -1.4516 -0.7185
16559SOL     OW50457   4.420   3.704   5.221  0.1802 -0.0417  0.2527
16559SOL    HW150458   4.512   3.725   5.236  0.1878 -0.1372  0.3385
16559SOL    HW250459   4.410   3.614   5.252  0.2700 -0.3587 -0.6121
16560SOL     OW50460   0.861   3.754   0.023  0.5047 -0.1238  0.7874
16560SOL    HW150461   0.817   3.671   0.039  2.3179 -1.1059  0.9799
16560SOL    HW250462   0.885   3.751  -0.070 -0.2856  0.6357  0.5506
16561SOL     OW50463   5.398   1.926   6.535 -0.2427  0.0655  0.5109
16561SOL    HW150464   5.406   2.021   6.545 -4.3721  0.7927 -1.0431
16561SOL    HW250465   5.407   1.911   6.441 -0.2924 -0.9552  0.6638
16562SOL     OW50466   5.208   1.054   4.003  0.4681 -0.0600 -0.1453
16562SOL    HW150467   5.125   1.041   3.957  0.8718  0.5951 -1.0995
16562SOL    HW250468   5.223   0.972   4.049 -0.2398 -0.5346 -0.7264
16563SOL     OW50469   7.865   0.876   4.292  0.6833  0.0434 -0.0777
16563SOL    HW150470   7.936   0.813   4.294 -0.3001 -1.0881  0.7559
16563SOL    HW250471   7.788   0.828   4.323 -0.4548  1.2269 -0.9031
16564SOL     OW50472   7.716   5.281   3.409 -0.5197 -0.5027 -0.2588
16564SOL    HW150473   7.681   5.193   3.421 -0.5261 -0.1923  2.6363
16564SOL    HW250474   7.675   5.313   3.328 -1.2020 -2.7782 -0.8719
16565SOL     OW50475   2.316   4.001   6.909  0.5372 -0.1115 -0.2213
16565SOL    HW150476   2.227   4.034   6.923  0.8557  0.1766  1.2061
16565SOL    HW250477   2.373   4.076   6.922  1.0751 -0.5800  0.2000
16566SOL     OW50478   0.118   8.256   8.033  0.1030 -0.7648  0.1671
16566SOL    HW150479   0.161   8.281   7.951 -0.8481 -1.5940 -0.6079
16566SOL    HW250480   0.080   8.170   8.015 -0.4942 -0.7637  1.3409
16567SOL     OW50481   5.196   7.413   7.643 -0.5343 -0.3982 -0.3889
16567SOL    HW150482   5.286   7.409   7.676 -0.7213  0.1960  0.2367
16567SOL    HW250483   5.143   7.422   7.722 -1.0636  0.2397 -0.8057
16568SOL     OW50484   1.090   2.902   4.879 -0.3889  0.0924  0.4201
16568SOL    HW150485   1.134   2.817   4.878 -1.9420 -0.7574 -0.7879
16568SOL    HW250486   1.149   2.960   4.832 -0.1473 -0.7874 -0.3862
16569SOL     OW50487   1.993   7.907   3.378  0.1622 -0.3818  0.1661
16569SOL    HW150488   2.036   7.838   3.327  0.4201 -0.3554  0.3433
16569SOL    HW250489   1.917   7.865   3.418  2.2378 -1.5770  3.2251
16570SOL     OW50490   3.811   6.828   7.633  0.5262 -0.2466  0.5573
16570SOL    HW150491   3.807   6.821   7.537  0.8413  1.4083  0.3969
16570SOL    HW250492   3.768   6.749   7.664 -1.4710  0.1629 -0.9552
16571SOL     OW50493   2.976   7.859   8.021 -0.0857  0.0278 -0.5480
16571SOL    HW150494   2.944   7.769   8.029 -0.7119  0.1638 -1.3323
16571SOL    HW250495   3.041   7.868   8.090 -0.4388 -0.8446 -0.0878
16572SOL     OW50496   0.266   5.509   0.727  0.0055 -0.0443 -0.2252
16572SOL    HW150497   0.194   5.450   0.704 -0.1592  0.7238 -1.8304
16572SOL    HW250498   0.249   5.589   0.677  1.0934  0.7700  0.6456
16573SOL     OW50499   4.369   3.662   0.629  0.0078  0.0574 -0.2824
16573SOL    HW150500   4.383   3.637   0.721 -1.8780 -2.8386 -0.6351
16573SOL    HW250501   4.454   3.650   0.588  0.4071 -0.6455  0.7040
16574SOL     OW50502   7.559   3.011   5.324 -1.0220  0.0491  0.2157
16574SOL    HW150503   7.610   2.935   5.296  1.2858  1.6652 -0.3029
16574SOL    HW250504   7.542   3.060   5.244  0.5393  1.7628  0.8555
16575SOL     OW50505   4.435   5.165   5.670 -0.6192  0.3534  0.1920
16575SOL    HW150506   4.511   5.165   5.728 -1.6307  1.7233  1.5766
16575SOL    HW250507   4.363   5.132   5.724 -1.0902 -0.7110 -1.0302
16576SOL     OW50508   7.968   3.270   5.677  0.4643 -0.4656 -0.0411
16576SOL    HW150509   7.896   3.248   5.737  1.5655  0.8529  1.8835
16576SOL    HW250510   8.044   3.226   5.715  0.8757 -1.1275 -1.5706
16577SOL     OW50511   5.266   3.076   4.616 -0.2229  0.0325 -0.0678
16577SOL    HW150512   5.298   3.162   4.643  1.0597 -1.0452  2.1526
16577SOL    HW250513   5.183   3.094   4.572  0.2581  2.4217 -0.1482
16578SOL     OW50514   7.647   7.450   1.880 -0.4930  0.2979 -0.0063
16578SOL    HW150515   7.634   7.513   1.951 -2.7673 -1.2380  1.0514
16578SOL    HW250516   7.563   7.448   1.834  1.1476  1.8598 -3.3826
16579SOL     OW50517   5.084   1.807   7.915 -0.3766  0.4954 -0.3201
16579SOL    HW150518   5.044   1.850   7.840  1.4973 -0.0819 -1.7308
16579SOL    HW250519   5.173   1.843   7.919 -0.1614 -0.1081  1.1236
16580SOL     OW50520   2.220   8.323   5.300  0.1225  0.3869  0.4372
16580SOL    HW150521   2.159   8.367   5.240  0.8994  0.6643 -0.1602
16580SOL    HW250522   2.177   8.240   5.320  1.0848 -1.0445 -2.7932
16581SOL     OW50523   6.423   5.423   6.474  0.0919 -0.0464 -0.1658
16581SOL    HW150524   6.359   5.494   6.485 -0.5910 -0.4224 -1.4735
16581SOL    HW250525   6.502   5.468   6.445 -0.1429  0.2577 -0.3495
16582SOL     OW50526   6.313   5.235   0.869 -0.1823  0.2971  0.3409
16582SOL    HW150527   6.325   5.140   0.864  0.6728  0.3875  0.6536
16582SOL    HW250528   6.308   5.263   0.777 -0.0975 -0.0010  0.2447
16583SOL     OW50529   3.065   0.456   4.144 -0.3538  0.1016 -0.0755
16583SOL    HW150530   3.093   0.439   4.054  1.5188 -1.8939  0.7671
16583SOL    HW250531   3.063   0.369   4.185  2.2043  1.1649  2.6618
16584SOL     OW50532   3.465   3.546   1.916 -0.0723 -0.0371 -0.3014
16584SOL    HW150533   3.556   3.571   1.934  0.1010 -1.5559  1.1685
16584SOL    HW250534   3.416   3.628   1.921  1.1453  0.7354 -0.7001
16585SOL     OW50535   0.365   7.646   5.486 -1.2060  0.0203 -0.1078
16585SOL    HW150536   0.398   7.562   5.519 -3.5717 -0.4302  1.3145
16585SOL    HW250537   0.380   7.707   5.558 -1.3502  0.3592 -0.3665
16586SOL     OW50538   2.193   0.017   2.823 -0.5183 -0.1103 -0.1266
16586SOL    HW150539   2.240  -0.065   2.811  1.5673  0.3590  3.3904
16586SOL    HW250540   2.261   0.080   2.848 -2.2162  2.3923 -1.3911
16587SOL     OW50541   0.612   6.312   3.898 -0.7290  0.3739  0.1586
16587SOL    HW150542   0.564   6.236   3.865  0.9780 -0.6737 -0.0654
16587SOL    HW250543   0.680   6.328   3.833 -1.0789  2.1641  0.1830
16588SOL     OW50544   0.012   0.077   1.547 -0.3044  1.1705  0.2403
16588SOL    HW150545   0.014  -0.000   1.604  1.2441  1.0071  0.0068
16588SOL    HW250546   0.088   0.066   1.489  0.0305  2.9209  0.2853
16589SOL     OW50547   3.828   6.623   1.200  0.0464 -0.7575  0.4341
16589SOL    HW150548   3.783   6.707   1.188  0.6703 -0.4521  0.1591
16589SOL    HW250549   3.820   6.579   1.116  0.1963 -0.7348  0.4078
16590SOL     OW50550   5.312   7.673   0.847 -0.1655 -0.1933 -0.7707
16590SOL    HW150551   5.335   7.689   0.755  2.5165 -3.0339 -0.7757
16590SOL    HW250552   5.391   7.697   0.896  0.1410 -2.8998  0.2164
16591SOL     OW50553   4.496   3.119   0.024  0.7920 -0.0743 -0.1297
16591SOL    HW150554   4.459   3.192   0.074 -0.0322  0.2769 -1.2079
16591SOL    HW250555   4.555   3.160  -0.039  0.8207 -0.3818 -0.3070
16592SOL     OW50556   1.279   5.922   2.394  0.2735  0.1959 -0.2718
16592SOL    HW150557   1.206   5.884   2.443  0.4855 -0.1204 -0.1985
16592SOL    HW250558   1.308   5.996   2.448  0.5572 -0.1984  0.1229
16593SOL     OW50559   4.046   2.036   5.437 -0.4159  0.1072  0.4227
16593SOL    HW150560   4.045   2.011   5.530  1.0615  0.7658  0.6389
16593SOL    HW250561   4.135   2.066   5.421 -0.0215 -1.8819 -1.7332
16594SOL     OW50562   0.442   0.154   5.099 -0.0942  0.0105 -0.0814
16594SOL    HW150563   0.440   0.205   5.018  1.6972  0.9460  0.4161
16594SOL    HW250564   0.498   0.204   5.158 -1.5032 -0.5485  1.8333
16595SOL     OW50565   1.714   5.049   6.068 -0.6860  0.9338  0.0606
16595SOL    HW150566   1.785   5.023   6.010 -0.5597  1.9275 -0.2342
16595SOL    HW250567   1.758   5.084   6.146 -0.7541 -2.9682  2.1199
16596SOL     OW50568   7.569   5.054   2.595 -0.4739 -0.9296 -0.1020
16596SOL    HW150569   7.508   5.022   2.661 -0.5125 -1.4306 -0.3755
16596SOL    HW250570   7.655   5.037   2.632 -0.4319  1.7271  1.2486
16597SOL     OW50571   0.459   4.714   3.502 -0.0226 -0.3321  0.3019
16597SOL    HW150572   0.499   4.724   3.588 -0.2175 -0.4845  0.4089
16597SOL    HW250573   0.506   4.641   3.461 -1.7159 -2.0755  1.3141
16598SOL     OW50574   2.864   4.024   3.796  0.2786 -0.3225 -0.2712
16598SOL    HW150575   2.883   4.073   3.877  0.6883 -0.4532 -0.2868
16598SOL    HW250576   2.904   3.938   3.811  0.8146 -0.1746 -0.8247
16599SOL     OW50577   1.314   6.251   4.774  0.1161 -0.2544 -0.8956
16599SOL    HW150578   1.283   6.271   4.685 -0.4920  0.5172 -0.5263
16599SOL    HW250579   1.234   6.246   4.826  0.5735  1.2859 -0.0013
16600SOL     OW50580   8.265   2.922   3.955  0.0622  0.1056 -0.5297
16600SOL    HW150581   8.301   2.985   3.892  0.4765  0.9704  0.5332
16600SOL    HW250582   8.179   2.900   3.920  1.0438 -0.9659 -2.4292
16601SOL     OW50583   6.205   2.424   1.383  0.2442  0.0538  0.1837
16601SOL    HW150584   6.225   2.378   1.464  0.6581  0.3243  0.2332
16601SOL    HW250585   6.289   2.436   1.339  0.2636  1.4904  0.5534
16602SOL     OW50586   7.928   0.752   0.115 -0.2529 -0.6612 -0.1251
16602SOL    HW150587   7.895   0.834   0.150 -0.3800 -0.9267  0.3866
16602SOL    HW250588   7.936   0.694   0.191  0.8460 -0.7904 -0.3093
16603SOL     OW50589   3.817   1.123   6.830 -0.1743 -0.2586  0.1189
16603SOL    HW150590   3.863   1.051   6.872  1.0886 -0.5200 -1.5748
16603SOL    HW250591   3.786   1.178   6.901  0.2333 -1.6326  1.3968
16604SOL     OW50592   7.820   6.260   2.704  0.0630  0.5671  0.5692
16604SOL    HW150593   7.811   6.354   2.691  0.6267  0.7242  1.2556
16604SOL    HW250594   7.848   6.251   2.796 -0.5664 -0.2976  0.6830
16605SOL     OW50595   0.947   1.550   0.058 -0.1000 -0.2308 -0.1875
16605SOL    HW150596   0.975   1.475   0.005  0.2525 -0.7137  0.6643
16605SOL    HW250597   0.898   1.511   0.130 -0.8528  0.4432 -0.3283
16606SOL     OW50598   7.203   0.403   2.180  0.6087  0.3670 -0.0500
16606SOL    HW150599   7.180   0.470   2.116  1.0107  1.6238  1.0604
16606SOL    HW250600   7.178   0.442   2.264 -1.1986 -1.7781  0.4917
16607SOL     OW50601   0.471   2.691   4.724 -0.7355 -0.1707  0.6897
16607SOL    HW150602   0.532   2.624   4.754 -1.2450 -0.6553  0.6349
16607SOL    HW250603   0.523   2.743   4.661  0.8698  1.8659  3.4474
16608SOL     OW50604   3.047   5.101   4.615  0.4188 -0.2275 -0.2619
16608SOL    HW150605   3.104   5.065   4.683 -0.5208 -1.2387  0.0007
16608SOL    HW250606   2.991   5.163   4.662  1.0997  0.5702 -0.4759
16609SOL     OW50607   5.598   4.679   5.926  0.5343 -0.2811  0.3379
16609SOL    HW150608   5.670   4.743   5.929  0.3063  0.1027 -1.3837
16609SOL    HW250609   5.605   4.632   6.009  1.4947  1.1286  1.1091
16610SOL     OW50610   5.505   3.039   1.511 -0.3738  0.1814 -0.9943
16610SOL    HW150611   5.567   3.026   1.439  0.2015 -0.2700 -0.4214
16610SOL    HW250612   5.521   2.966   1.570 -0.4855  0.8292 -0.1475
16611SOL     OW50613   7.961   7.571   2.099  0.0648  0.3347  0.1207
16611SOL    HW150614   8.030   7.505   2.088 -0.3985 -0.1893  0.2846
16611SOL    HW250615   7.948   7.606   2.011  0.7743  0.6864  0.1457
16612SOL     OW50616   2.063   6.494   4.323  0.6618 -0.1784  0.2841
16612SOL    HW150617   2.138   6.436   4.314 -0.5833 -1.7696 -0.5532
16612SOL    HW250618   2.041   6.492   4.416  0.0653 -1.9105  0.1555
16613SOL     OW50619   6.903   4.733   0.953  0.1977 -0.2057  0.0053
16613SOL    HW150620   6.820   4.725   1.001  0.6187 -0.5482  0.6964
16613SOL    HW250621   6.923   4.644   0.926  0.1511 -0.0665 -0.4869
16614SOL     OW50622   6.633   4.497   0.286 -0.2661 -0.2346  0.9424
16614SOL    HW150623   6.662   4.435   0.220 -1.4437 -0.7468  0.8840
16614SOL    HW250624   6.625   4.580   0.239  0.4829 -0.2199  0.8277
16615SOL     OW50625   0.095   5.644   4.102 -1.2235  0.0639  0.3420
16615SOL    HW150626   0.028   5.583   4.134 -0.5364  0.0833  1.8870
16615SOL    HW250627   0.152   5.589   4.048 -1.8552 -0.1823 -0.0905
16616SOL     OW50628   6.209   1.526   1.429  0.1224  0.1430 -0.2504
16616SOL    HW150629   6.164   1.603   1.394 -0.5790  0.5901  1.5236
16616SOL    HW250630   6.157   1.452   1.399  1.9173  0.1007 -3.6935
16617SOL     OW50631   6.259   0.301   3.478  0.0214 -0.0129  0.2571
16617SOL    HW150632   6.209   0.365   3.529  0.6695 -0.2144  1.1592
16617SOL    HW250633   6.299   0.353   3.407 -1.7606  0.0867 -0.7288
16618SOL     OW50634   4.058   7.132   4.188 -0.3992 -0.4339 -0.6002
16618SOL    HW150635   4.151   7.120   4.171  0.2788 -0.4022  2.5661
16618SOL    HW250636   4.047   7.227   4.196 -0.6222 -0.4735 -0.4478
16619SOL     OW50637   0.711   0.712   6.402 -0.2963  0.0833  0.0733
16619SOL    HW150638   0.736   0.636   6.350  1.0139 -0.1295  0.9699
16619SOL    HW250639   0.777   0.778   6.381  0.0895  0.0897  1.2163
16620SOL     OW50640   7.270   0.457   6.429  0.3106  0.3787 -0.0474
16620SOL    HW150641   7.264   0.459   6.524 -0.9826  0.5591 -0.1151
16620SOL    HW250642   7.200   0.515   6.399  1.2208  0.9776 -1.1042
16621SOL     OW50643   0.219   3.228   3.553 -0.4090  0.1167  0.1782
16621SOL    HW150644   0.181   3.279   3.482  2.4626  0.8384 -0.9703
16621SOL    HW250645   0.236   3.142   3.515  2.3506  0.8856 -0.5934
16622SOL     OW50646   7.604   5.078   2.956  0.1035 -0.1824  0.5042
16622SOL    HW150647   7.584   5.169   2.978  0.5993  0.4560 -1.5152
16622SOL    HW250648   7.530   5.049   2.903  0.7805 -0.3492 -0.3778
16623SOL     OW50649   4.299   6.683   5.739  0.2438 -0.2437  0.5416
16623SOL    HW150650   4.255   6.660   5.657 -0.1035 -1.2860  0.9929
16623SOL    HW250651   4.329   6.773   5.727 -0.7191 -0.0242 -0.3399
16624SOL     OW50652   2.388   5.055   2.619 -0.6017  0.0200  0.0532
16624SOL    HW150653   2.462   5.104   2.581 -0.6279  0.9507  1.1684
16624SOL    HW250654   2.349   5.115   2.682 -0.2391 -1.6457  1.9641
16625SOL     OW50655   0.106   0.568   3.822  0.1297 -0.1414 -0.1261
16625SOL    HW150656   0.163   0.643   3.807 -0.7779  0.1510 -2.6713
16625SOL    HW250657   0.059   0.589   3.903  1.0997  1.2359  0.1074
16626SOL     OW50658   6.684   5.390   5.397  0.1890 -0.2496 -0.2319
16626SOL    HW150659   6.652   5.480   5.386 -0.8754 -0.4052  1.2382
16626SOL    HW250660   6.772   5.391   5.360  0.4500  1.5735  0.3205
16627SOL     OW50661   3.308   0.544   2.831  0.2548 -0.2726 -0.2942
16627SOL    HW150662   3.311   0.622   2.776 -1.6886  0.3597  0.3924
16627SOL    HW250663   3.225   0.552   2.878  0.2035 -2.5526  0.1049
16628SOL     OW50664   3.331   0.351   5.093  0.4089 -0.1648  0.0487
16628SOL    HW150665   3.334   0.439   5.132  2.4244  0.8119 -2.0731
16628SOL    HW250666   3.417   0.314   5.112  0.4690 -0.6847 -1.1809
16629SOL     OW50667   7.311   6.834   0.459  0.3981  0.0910 -0.5507
16629SOL    HW150668   7.219   6.834   0.431 -0.0906 -0.4760  0.9452
16629SOL    HW250669   7.358   6.788   0.389 -0.6132 -0.4487 -0.8919
16630SOL     OW50670   0.629   0.721   2.526 -0.4004  0.0726  0.6363
16630SOL    HW150671   0.581   0.693   2.448 -1.0187 -1.2094  1.4326
16630SOL    HW250672   0.715   0.746   2.494 -0.1158 -1.8778 -0.3199
16631SOL     OW50673   6.502   6.834   0.586 -0.4075 -0.1519  0.3568
16631SOL    HW150674   6.594   6.819   0.567 -0.5365  0.9989 -1.3649
16631SOL    HW250675   6.500   6.918   0.634 -0.4808 -0.8065  1.5456
16632SOL     OW50676   5.789   5.394   5.556 -0.5862  0.2381  0.5066
16632SOL    HW150677   5.709   5.343   5.568 -0.7847  0.2088 -0.8356
16632SOL    HW250678   5.780   5.435   5.470  0.3302  1.1749  0.8250
16633SOL     OW50679   7.994   4.969   7.234  0.0960 -0.0313  0.0201
16633SOL    HW150680   7.971   4.877   7.221  2.3723 -0.5316 -1.0201
16633SOL    HW250681   7.916   5.009   7.273 -1.6532 -1.9543 -1.3392
16634SOL     OW50682   7.960   6.394   7.611 -0.3071  0.5757  0.2212
16634SOL    HW150683   7.868   6.371   7.618 -0.2302  0.0669 -0.3203
16634SOL    HW250684   7.986   6.362   7.524  0.1177  1.6286 -0.0581
16635SOL     OW50685   2.379   6.795   4.013 -0.3216  0.4037 -0.0883
16635SOL    HW150686   2.379   6.879   3.967 -0.3957  0.2240 -0.4192
16635SOL    HW250687   2.471   6.770   4.017 -0.3890 -0.0134 -0.9419
16636SOL     OW50688   3.064   2.486   1.694 -0.4800  0.1395  0.2090
16636SOL    HW150689   3.061   2.426   1.619 -1.1200 -1.1846  1.2470
16636SOL    HW250690   2.982   2.535   1.689 -1.1205 -0.8330  0.7046
16637SOL     OW50691   1.044   7.531   4.380  0.3999  0.7259 -0.1885
16637SOL    HW150692   0.955   7.504   4.355 -0.4709  2.1935  1.1716
16637SOL    HW250693   1.080   7.454   4.424 -0.2238  0.1449 -0.6584
16638SOL     OW50694   3.354   4.704   5.059  0.0019 -0.2121  0.0729
16638SOL    HW150695   3.298   4.765   5.011  1.5650 -0.4228 -2.1239
16638SOL    HW250696   3.382   4.754   5.136 -3.0450 -0.0882  1.2682
16639SOL     OW50697   2.890   6.957   4.568  1.0876  0.0419 -0.5517
16639SOL    HW150698   2.821   7.024   4.566  0.4418 -0.6018 -0.1662
16639SOL    HW250699   2.915   6.946   4.476 -0.5753 -0.9726 -0.9390
16640SOL     OW50700   5.001   5.701   6.574 -0.2153  0.3216 -0.0615
16640SOL    HW150701   5.081   5.732   6.532 -0.1270  1.4149  0.8453
16640SOL    HW250702   5.019   5.709   6.668 -1.1382 -0.0725  0.1563
16641SOL     OW50703   0.554   0.054   2.302 -0.0398 -0.1041 -0.0885
16641SOL    HW150704   0.482   0.002   2.266 -0.3641  0.4532 -0.2501
16641SOL    HW250705   0.630   0.030   2.249 -0.2674 -0.1357 -0.4034
16642SOL     OW50706   2.795   5.867   4.530  0.3641 -0.5037  0.0902
16642SOL    HW150707   2.817   5.812   4.605 -0.8667 -1.0716  0.0700
16642SOL    HW250708   2.765   5.949   4.568 -0.5818 -0.9130  0.2476
16643SOL     OW50709   5.533   7.217   3.677  0.3827  0.0814 -0.6578
16643SOL    HW150710   5.442   7.247   3.683  0.5159  0.3163  0.3684
16643SOL    HW250711   5.574   7.279   3.616 -0.1240 -0.0001 -1.0939
16644SOL     OW50712   4.221   5.779   7.060  0.2532 -0.5904 -0.2414
16644SOL    HW150713   4.144   5.794   7.115  0.2061 -1.8715  0.0774
16644SOL    HW250714   4.188   5.732   6.984  0.2466  1.5427 -1.6421
16645SOL     OW50715   7.733   2.042   1.719 -0.3077  1.2289  0.5848
16645SOL    HW150716   7.811   2.044   1.774 -0.5909 -0.9160  1.1727
16645SOL    HW250717   7.702   2.133   1.717  0.6145  1.6440  2.6693
16646SOL     OW50718   1.998   5.565   1.735  0.3752 -0.0420 -0.6215
16646SOL    HW150719   1.975   5.658   1.736 -1.3519 -0.4417  0.6360
16646SOL    HW250720   1.944   5.528   1.665 -1.4963 -0.6375  1.0501
16647SOL     OW50721   5.528   6.523   2.539 -0.7523 -0.2545  0.1394
16647SOL    HW150722   5.599   6.502   2.600 -1.9740 -0.9597  1.3604
16647SOL    HW250723   5.511   6.616   2.554  0.1022  0.0051 -0.3961
16648SOL     OW50724   0.187   1.748   0.961 -0.1145  0.1123 -0.2168
16648SOL    HW150725   0.202   1.839   0.987  0.9687  0.1859 -1.0253
16648SOL    HW250726   0.231   1.697   1.028 -0.3111  0.1913 -0.0248
16649SOL     OW50727   5.702   0.096   0.323  0.3521 -0.2862 -0.2001
16649SOL    HW150728   5.618   0.079   0.281 -0.1654  0.6554  0.4374
16649SOL    HW250729   5.700   0.189   0.344  1.5714 -0.2451 -0.2107
16650SOL     OW50730   3.555   0.718   5.358  0.0780 -0.8237  0.0051
16650SOL    HW150731   3.633   0.741   5.307 -0.6108  0.9966 -0.2982
16650SOL    HW250732   3.582   0.727   5.449  0.0697  0.5079 -0.1001
16651SOL     OW50733   3.019   1.736   7.516 -0.0946 -0.1199  0.0508
16651SOL    HW150734   2.969   1.670   7.563 -0.2709 -1.2124 -1.5876
16651SOL    HW250735   3.091   1.688   7.476  1.1599  1.1030  0.7556
16652SOL     OW50736   5.253   0.703   5.512  0.4136 -0.2525 -0.1946
16652SOL    HW150737   5.320   0.697   5.580  0.1150  0.6905  0.1995
16652SOL    HW250738   5.252   0.617   5.471  0.0194 -1.1148  1.5476
16653SOL     OW50739   4.610   6.636   5.592  0.5013  0.9380  0.1168
16653SOL    HW150740   4.622   6.695   5.666 -0.6333  0.2601  0.8592
16653SOL    HW250741   4.522   6.655   5.560  0.0007 -0.5441  0.5586
16654SOL     OW50742   4.061   4.813   7.345 -0.1520  1.1769  0.3720
16654SOL    HW150743   4.126   4.876   7.314 -0.9848  1.9533  0.1607
16654SOL    HW250744   3.985   4.867   7.369 -0.7499  0.2825  0.5283
16655SOL     OW50745   2.953   6.939   3.655 -0.0467 -0.4427 -0.0059
16655SOL    HW150746   3.042   6.928   3.689  0.1258  0.6585 -0.0682
16655SOL    HW250747   2.965   6.949   3.561 -0.4880 -3.0312 -0.4259
16656SOL     OW50748   2.238   4.509   5.931 -0.0963  0.1540 -0.2369
16656SOL    HW150749   2.239   4.424   5.888  0.6251 -0.3582  0.7625
16656SOL    HW250750   2.145   4.525   5.950 -0.2602 -0.2974 -0.6240
16657SOL     OW50751   2.929   2.496   7.964  0.3891 -0.3093  0.4430
16657SOL    HW150752   3.020   2.496   7.936  0.0175 -0.7521 -0.8301
16657SOL    HW250753   2.900   2.587   7.953  0.2516 -0.4791 -0.6129
16658SOL     OW50754   1.944   1.094   6.405  0.4299  0.0631 -0.6472
16658SOL    HW150755   1.978   1.005   6.392  2.3487  0.3687  1.6682
16658SOL    HW250756   2.013   1.152   6.372  1.3483  0.6749  2.1336
16659SOL     OW50757   3.553   1.538   5.665 -0.2770  0.4888 -0.0998
16659SOL    HW150758   3.491   1.550   5.594  0.3683  3.6850 -0.2689
16659SOL    HW250759   3.502   1.556   5.744 -0.3496 -0.3799  0.0628
16660SOL     OW50760   8.226   5.084   7.362 -0.2547 -0.4927  0.2411
16660SOL    HW150761   8.234   5.121   7.274  1.4988  1.1125  1.0151
16660SOL    HW250762   8.140   5.043   7.363 -0.5356 -0.0848 -2.0463
16661SOL     OW50763   3.991   6.035   0.258  0.5644 -0.4505  0.5770
16661SOL    HW150764   4.052   6.108   0.248  0.3742 -0.3483  0.1435
16661SOL    HW250765   3.906   6.071   0.233  0.5277 -0.9113  0.0271
16662SOL     OW50766   0.703   6.694   6.736  0.1718  0.3300 -0.0414
16662SOL    HW150767   0.775   6.675   6.675 -0.4124 -1.0367 -0.3435
16662SOL    HW250768   0.631   6.638   6.707 -0.9793  1.5485  0.3635
16663SOL     OW50769   4.708   7.119   2.163  0.1470  0.0313 -0.5743
16663SOL    HW150770   4.622   7.132   2.203 -0.1908  0.3954 -1.3875
16663SOL    HW250771   4.708   7.027   2.136  0.2713 -0.1428  0.0092
16664SOL     OW50772   3.378   8.234   1.654  0.0815  0.0968  0.4815
16664SOL    HW150773   3.365   8.321   1.616 -0.0939 -0.3855 -0.6089
16664SOL    HW250774   3.325   8.176   1.598 -0.7451 -0.5506  1.8948
16665SOL     OW50775   0.646   5.208   6.616  0.1255 -0.0276 -0.0251
16665SOL    HW150776   0.588   5.134   6.633  0.8487 -0.8075 -0.8344
16665SOL    HW250777   0.678   5.234   6.703  0.8734 -1.5233  0.1778
16666SOL     OW50778   3.067   6.451   8.095 -0.0949 -0.3089  0.1676
16666SOL    HW150779   3.037   6.530   8.050  0.3129 -1.2144 -1.8035
16666SOL    HW250780   3.100   6.395   8.025  2.1575 -1.1404  1.7792
16667SOL     OW50781   4.402   7.338   4.122  0.5478  0.0617 -0.0861
16667SOL    HW150782   4.342   7.401   4.082  0.8879  0.7748  0.4907
16667SOL    HW250783   4.474   7.392   4.156  0.3590 -0.5266  1.3243
16668SOL     OW50784   1.017   1.449   1.208  0.1136 -0.2565 -0.3466
16668SOL    HW150785   1.037   1.359   1.236 -0.3819 -0.4537 -0.6025
16668SOL    HW250786   1.096   1.499   1.229  0.2662 -0.6798  0.1236
16669SOL     OW50787   7.264   2.282   0.384 -0.4299  0.0079 -0.0735
16669SOL    HW150788   7.205   2.351   0.414 -0.6130 -0.7897  1.5323
16669SOL    HW250789   7.228   2.254   0.300  0.4344  2.7646 -1.4888
16670SOL     OW50790   0.219   3.842   5.695  0.3688  0.2976  0.6034
16670SOL    HW150791   0.243   3.929   5.728  2.8060 -0.3808  0.8661
16670SOL    HW250792   0.298   3.811   5.651 -1.1921 -0.8711 -1.5744
16671SOL     OW50793   5.914   2.019   2.011 -0.2052 -0.6465 -0.3255
16671SOL    HW150794   5.828   2.050   1.982 -0.3224 -0.4826  0.1886
16671SOL    HW250795   5.936   2.074   2.086  0.6501 -0.2538 -0.8514
16672SOL     OW50796   5.124   3.091   1.619  0.3188 -0.4855  0.1825
16672SOL    HW150797   5.057   3.129   1.562 -0.3555  0.4864  1.5691
16672SOL    HW250798   5.207   3.115   1.578 -0.0664  2.5647  0.9947
16673SOL     OW50799   2.230   3.762   7.708 -0.1389  0.6173 -0.4199
16673SOL    HW150800   2.154   3.753   7.766  0.1533  0.6615 -0.0295
16673SOL    HW250801   2.259   3.852   7.721  0.9729  0.1276  0.6635
16674SOL     OW50802   4.341   6.808   5.173 -0.0772  0.0132  0.0047
16674SOL    HW150803   4.299   6.799   5.087  0.3162 -0.6714 -0.1247
16674SOL    HW250804   4.434   6.817   5.153 -0.1526  1.6244  0.2853
16675SOL     OW50805   6.325   5.832   0.767 -0.2014  0.1344  0.4665
16675SOL    HW150806   6.326   5.854   0.860  0.9396 -1.6442  0.9374
16675SOL    HW250807   6.414   5.852   0.737 -0.1850 -0.4842  0.0881
16676SOL     OW50808   5.141   7.662   5.926 -0.5364 -0.0913 -0.4725
16676SOL    HW150809   5.146   7.757   5.939 -1.5644  0.0146 -0.7678
16676SOL    HW250810   5.226   7.639   5.887 -0.5374  0.8270 -1.0591
16677SOL     OW50811   3.454   5.363   2.403 -0.1209 -0.0590  0.0602
16677SOL    HW150812   3.523   5.367   2.469 -1.1979 -0.1791  1.2249
16677SOL    HW250813   3.491   5.309   2.333  0.5649 -1.0392  1.1403
16678SOL     OW50814   2.770   1.343   4.104  0.0683 -0.5408  0.0339
16678SOL    HW150815   2.860   1.345   4.073  0.2084  0.3365  0.4607
16678SOL    HW250816   2.767   1.409   4.174 -0.9273 -0.4779 -0.0514
16679SOL     OW50817   5.065   3.286   6.783  0.4451 -0.1406  0.1247
16679SOL    HW150818   5.148   3.285   6.735  0.5088 -0.6404  0.2409
16679SOL    HW250819   5.087   3.251   6.869  0.4292  1.1859  0.6913
16680SOL     OW50820   3.940   6.206   7.244  0.1551  0.2164 -0.2835
16680SOL    HW150821   3.911   6.224   7.333 -1.9536 -1.1853 -0.6137
16680SOL    HW250822   4.035   6.206   7.248  0.0961 -0.5108  2.1023
16681SOL     OW50823   1.647   4.967   5.372  0.1835  0.6627  0.1378
16681SOL    HW150824   1.672   4.875   5.374  1.9801  1.0486 -1.7204
16681SOL    HW250825   1.610   4.980   5.285  1.6514  2.0719 -0.3140
16682SOL     OW50826   7.162   3.039   2.216 -0.1483 -0.3875  0.5272
16682SOL    HW150827   7.170   3.101   2.289  1.5089  0.5371 -0.3899
16682SOL    HW250828   7.068   3.025   2.208 -0.6814  2.5562  0.3605
16683SOL     OW50829   2.861   7.478   8.235 -0.1666  0.2161  0.2058
16683SOL    HW150830   2.865   7.537   8.160  0.6932  1.0360  0.8743
16683SOL    HW250831   2.846   7.392   8.197  1.7419  0.3699 -1.0446
16684SOL     OW50832   3.891   6.493   2.455  0.0281 -0.3794  0.0372
16684SOL    HW150833   3.949   6.544   2.511  3.1263 -2.5104 -0.9895
16684SOL    HW250834   3.821   6.463   2.514  1.1828  0.4184  1.9038
16685SOL     OW50835   4.448   5.253   7.105 -0.8218 -0.0908 -0.0919
16685SOL    HW150836   4.491   5.175   7.070 -1.6319 -0.4372 -0.3646
16685SOL    HW250837   4.373   5.266   7.046 -1.3351  0.2229  0.6181
16686SOL     OW50838   4.443   7.072   3.425 -0.3437  0.0059  0.3473
16686SOL    HW150839   4.528   7.028   3.424 -0.5227 -0.5222 -2.9132
16686SOL    HW250840   4.396   7.031   3.498  2.2339  0.6280  2.5575
16687SOL     OW50841   2.561   2.939   4.105 -0.3982  0.3756 -0.1512
16687SOL    HW150842   2.571   2.896   4.190 -0.8096 -1.1616 -0.8404
16687SOL    HW250843   2.647   2.931   4.063 -0.1828  1.1723  0.1119
16688SOL     OW50844   1.748   1.084   4.868  0.9827  0.2039 -0.0179
16688SOL    HW150845   1.687   1.073   4.795  0.5991 -0.9889  0.4679
16688SOL    HW250846   1.719   1.023   4.935  1.8573  0.6438  0.8075
16689SOL     OW50847   1.913   7.345   3.865  0.2921  0.1104  0.5642
16689SOL    HW150848   1.965   7.276   3.824 -1.6661  1.0904 -4.2466
16689SOL    HW250849   1.953   7.427   3.836 -1.1397  0.9048  0.7175
16690SOL     OW50850   6.255   2.684   2.627 -0.0437 -0.0667 -0.1307
16690SOL    HW150851   6.348   2.663   2.631  0.0245  0.3725  1.1056
16690SOL    HW250852   6.232   2.674   2.535  1.2109 -0.2349 -0.4465
16691SOL     OW50853   4.760   5.763   0.209 -0.5871  0.4212  0.3091
16691SOL    HW150854   4.702   5.771   0.133 -0.6847  2.2404  0.5339
16691SOL    HW250855   4.836   5.715   0.176 -0.3421  1.7263 -1.1527
16692SOL     OW50856   5.069   6.049   5.143  0.5412  0.0425  0.1966
16692SOL    HW150857   5.039   5.971   5.097  1.3234 -0.4208  0.4489
16692SOL    HW250858   5.039   6.038   5.233  0.1178  0.3325  0.0920
16693SOL     OW50859   3.349   5.987   5.794 -0.1365 -0.4606  0.3435
16693SOL    HW150860   3.309   6.027   5.716  0.8334 -0.7910 -0.3543
16693SOL    HW250861   3.377   5.900   5.765  2.3933  0.2628  0.3050
16694SOL     OW50862   0.851   7.089   6.893 -0.1375  0.0304  0.2171
16694SOL    HW150863   0.894   7.175   6.890 -0.2944  0.0774 -1.0492
16694SOL    HW250864   0.892   7.045   6.967  1.0185  0.6370 -0.0401
16695SOL     OW50865   2.978   3.572   6.515 -0.1688 -0.6638 -0.4511
16695SOL    HW150866   3.064   3.530   6.525  0.2374  0.0053 -1.0459
16695SOL    HW250867   2.968   3.624   6.595  0.7711  0.6188 -1.1294
16696SOL     OW50868   1.829   8.161   5.015 -0.2032 -0.0372  0.2913
16696SOL    HW150869   1.859   8.117   4.935 -1.0949  0.3830 -0.2935
16696SOL    HW250870   1.735   8.142   5.019 -0.9966  3.0689 -0.8472
16697SOL     OW50871   8.046   6.535   5.941 -0.2068 -0.1507  0.1489
16697SOL    HW150872   8.049   6.450   5.898  0.5006  1.5784 -3.6110
16697SOL    HW250873   8.128   6.578   5.916 -0.7002  1.7970  1.5844
16698SOL     OW50874   2.273   2.468   6.026  0.5421  0.2706  0.0091
16698SOL    HW150875   2.224   2.398   5.983  0.4496  0.7978 -0.7591
16698SOL    HW250876   2.221   2.490   6.103  1.6838 -2.0343  1.5823
16699SOL     OW50877   2.149   1.292   3.251  0.0087 -0.4204  0.3316
16699SOL    HW150878   2.215   1.339   3.200  0.1377 -0.8709  0.0773
16699SOL    HW250879   2.199   1.226   3.299 -0.3273 -1.1796 -0.3480
16700SOL     OW50880   0.127   3.295   4.957  0.2790 -0.6120 -0.5936
16700SOL    HW150881   0.034   3.312   4.945 -0.1876 -2.9788 -0.8045
16700SOL    HW250882   0.136   3.276   5.050  0.6876  0.1790 -0.4595
16701SOL     OW50883   8.048   3.922   6.098 -0.0463 -0.7066 -0.2795
16701SOL    HW150884   7.968   3.935   6.148  0.3663 -1.3661  0.5693
16701SOL    HW250885   8.101   3.863   6.152  1.6794  0.9379 -0.0545
16702SOL     OW50886   0.382   8.178   7.555  0.0270  0.2656 -0.3240
16702SOL    HW150887   0.308   8.200   7.612 -1.6681 -3.1385 -0.9789
16702SOL    HW250888   0.455   8.161   7.615 -1.3069 -1.7402  0.8420
16703SOL     OW50889   3.680   3.286   5.333 -0.0794 -0.0004 -0.3517
16703SOL    HW150890   3.665   3.375   5.364 -0.1459 -0.8559  2.3324
16703SOL    HW250891   3.775   3.281   5.317 -0.1376  0.6354 -0.9430
16704SOL     OW50892   0.913   5.928   6.881 -0.4809  0.0479  0.1025
16704SOL    HW150893   0.980   5.930   6.950  0.0128  1.2510 -0.3871
16704SOL    HW250894   0.958   5.958   6.802 -0.8879 -1.8917 -0.9286
16705SOL     OW50895   5.915   4.137   0.555  0.3269 -0.6780 -0.1051
16705SOL    HW150896   5.885   4.206   0.615  0.6349 -1.3966  0.9072
16705SOL    HW250897   6.010   4.143   0.558  0.3505 -0.9974 -0.1819
16706SOL     OW50898   2.201   1.310   6.661 -1.2658 -0.0434  0.0592
16706SOL    HW150899   2.121   1.356   6.686 -1.1717  0.1442  0.0176
16706SOL    HW250900   2.231   1.269   6.742  0.6625  2.9850  1.0484
16707SOL     OW50901   2.946   3.306   1.131 -0.8154  0.1777 -0.1946
16707SOL    HW150902   2.874   3.335   1.186  1.2904  1.2142  2.2331
16707SOL    HW250903   2.973   3.384   1.083 -0.0561  0.3613  0.4923
16708SOL     OW50904   5.690   5.165   8.258 -0.1895  0.2655  0.4607
16708SOL    HW150905   5.694   5.168   8.354  0.6407 -1.8770  0.5656
16708SOL    HW250906   5.781   5.179   8.230 -0.4189  0.8243 -0.0186
16709SOL     OW50907   6.512   4.632   7.351 -0.0085  0.2673 -0.0983
16709SOL    HW150908   6.451   4.673   7.291  0.4910 -2.3465 -2.6518
16709SOL    HW250909   6.586   4.692   7.357 -0.9726  1.5007 -0.4125
16710SOL     OW50910   2.341   0.869   5.163 -0.3460  0.4357  0.3035
16710SOL    HW150911   2.331   0.781   5.127  1.1238  0.0140  0.8483
16710SOL    HW250912   2.253   0.895   5.188 -1.2035  0.1639 -2.1791
16711SOL     OW50913   2.570   2.742   6.331 -0.1205  0.1572 -0.4996
16711SOL    HW150914   2.602   2.654   6.351  1.5993  0.9678  0.4430
16711SOL    HW250915   2.573   2.789   6.414 -4.4597  0.1761 -0.1316
16712SOL     OW50916   4.797   1.399   1.504 -0.0323 -0.8502 -0.6106
16712SOL    HW150917   4.878   1.432   1.541 -0.7578  0.0067  0.2606
16712SOL    HW250918   4.795   1.433   1.414 -1.5851  3.1774  0.7340
16713SOL     OW50919   7.145   6.944   2.004 -0.1955 -0.6800 -0.2434
16713SOL    HW150920   7.196   6.884   2.058  0.6229  1.2658  1.2578
16713SOL    HW250921   7.165   6.917   1.914  2.0971 -1.1039  0.3274
16714SOL     OW50922   0.441   5.758   6.557 -0.2765  0.0440  0.0238
16714SOL    HW150923   0.433   5.795   6.469 -2.1298 -0.8315 -0.2252
16714SOL    HW250924   0.393   5.675   6.552  2.4071 -1.6899  0.9504
16715SOL     OW50925   0.912   7.479   1.914  0.3992  0.4424 -0.0513
16715SOL    HW150926   0.980   7.470   1.846  1.0381  1.9822  0.3430
16715SOL    HW250927   0.929   7.406   1.974 -0.4760 -1.2430 -1.7547
16716SOL     OW50928   3.636   0.409   1.045  0.1359  0.5253  0.2688
16716SOL    HW150929   3.631   0.370   1.133 -2.4188  0.3552  0.1309
16716SOL    HW250930   3.625   0.335   0.986 -2.5980  1.0656 -0.0354
16717SOL     OW50931   0.596   5.803   3.816  0.3741  0.0220 -0.4466
16717SOL    HW150932   0.538   5.759   3.878  1.8396  0.8728  1.6727
16717SOL    HW250933   0.627   5.733   3.758 -1.4217 -0.7245 -0.5627
16718SOL     OW50934   2.279   6.184   6.610 -0.3323 -0.0168  0.0132
16718SOL    HW150935   2.349   6.243   6.581 -1.1584  1.0032  0.0585
16718SOL    HW250936   2.300   6.167   6.702 -1.5640  2.4839  0.8489
16719SOL     OW50937   7.684   1.150   1.402  0.2181 -0.0652 -0.0951
16719SOL    HW150938   7.647   1.177   1.486  0.4047  1.8177 -0.5767
16719SOL    HW250939   7.612   1.158   1.340  0.5305  0.2137 -0.4214
16720SOL     OW50940   2.242   0.734   3.275 -0.0570 -0.7098 -0.0416
16720SOL    HW150941   2.239   0.698   3.364  0.4631 -0.6913 -0.0105
16720SOL    HW250942   2.163   0.701   3.233 -1.0366  0.3797  0.8380
16721SOL     OW50943   2.384   4.153   0.380 -0.1608 -0.2683 -0.3225
16721SOL    HW150944   2.298   4.112   0.384  0.6141 -2.0521 -0.9800
16721SOL    HW250945   2.378   4.227   0.440 -1.9491 -0.7175  0.1115
16722SOL     OW50946   5.412   2.015   4.871  0.3206 -0.0243  0.2257
16722SOL    HW150947   5.469   2.092   4.873  1.5374 -0.8702 -0.5043
16722SOL    HW250948   5.324   2.050   4.886  0.8108  1.5380 -0.3167
16723SOL     OW50949   7.960   1.118   1.664 -0.3887  0.0386  0.3565
16723SOL    HW150950   7.988   1.141   1.575 -0.4465 -1.7823 -0.1635
16723SOL    HW250951   8.037   1.138   1.718 -0.0961  0.4802 -0.2057
16724SOL     OW50952   1.310   6.990   7.793 -0.0910 -0.7360  0.3579
16724SOL    HW150953   1.233   7.039   7.825 -1.1237 -1.7755 -0.4523
16724SOL    HW250954   1.291   6.899   7.814  0.7828 -1.0449 -0.1385
16725SOL     OW50955   3.701   0.171   8.197  0.3548 -0.2246 -0.2930
16725SOL    HW150956   3.726   0.194   8.107 -0.8909  0.8591 -0.3960
16725SOL    HW250957   3.724   0.078   8.205  0.9656 -0.2139 -1.5456
16726SOL     OW50958   2.989   2.478   4.593 -0.3402  0.2973 -0.5264
16726SOL    HW150959   2.941   2.404   4.553 -0.2397 -0.3040  0.4402
16726SOL    HW250960   2.925   2.550   4.593 -0.9507 -0.2295 -0.0918
16727SOL     OW50961   0.222   1.212   0.951  0.0916  0.4111 -1.3604
16727SOL    HW150962   0.166   1.290   0.957 -0.5158 -0.0610 -0.8095
16727SOL    HW250963   0.164   1.139   0.970  0.9203 -0.0859 -0.6521
16728SOL     OW50964   5.815   5.486   8.186 -0.4353  0.5425 -0.2341
16728SOL    HW150965   5.757   5.478   8.261 -0.1618  2.6466  0.2783
16728SOL    HW250966   5.880   5.417   8.197 -0.7005  0.5003  1.2026
16729SOL     OW50967   2.420   1.897   4.357 -0.2390  0.2393 -0.0902
16729SOL    HW150968   2.459   1.815   4.327 -0.1063  0.6265 -1.0222
16729SOL    HW250969   2.425   1.893   4.452  2.6039  0.5087 -0.1389
16730SOL     OW50970   3.105   0.418   3.197 -0.3338 -0.1787  0.1195
16730SOL    HW150971   3.171   0.429   3.265 -2.1402  1.5031  1.7126
16730SOL    HW250972   3.063   0.335   3.218  1.0295 -1.1528 -0.7782
16731SOL     OW50973   3.479   5.083   6.070  0.2482 -0.0370  0.2800
16731SOL    HW150974   3.491   5.129   5.987 -1.5787  0.4118  0.2030
16731SOL    HW250975   3.402   5.028   6.056  1.1820 -1.5819  1.0273
16732SOL     OW50976   5.759   5.388   0.609 -0.0469 -0.2035  0.6471
16732SOL    HW150977   5.702   5.465   0.613 -1.1205 -0.9647  0.3825
16732SOL    HW250978   5.776   5.366   0.700 -3.0971 -2.0376  0.9095
16733SOL     OW50979   2.440   6.385   0.223  0.3232  0.1830 -0.2226
16733SOL    HW150980   2.523   6.346   0.195  2.1529  0.6414  3.8252
16733SOL    HW250981   2.410   6.328   0.294 -2.6458  0.3786 -1.1510
16734SOL     OW50982   1.277   2.618   3.894 -0.6386  0.0165  0.3469
16734SOL    HW150983   1.262   2.711   3.914 -1.5892  0.0063 -0.2503
16734SOL    HW250984   1.242   2.571   3.969  0.6972  0.1522  1.0904
16735SOL     OW50985   0.746   0.841   5.655  0.3537 -0.0986 -0.4688
16735SOL    HW150986   0.775   0.932   5.662 -0.3921  0.4810 -3.5011
16735SOL    HW250987   0.801   0.804   5.586 -1.8330 -0.7988 -1.9281
16736SOL     OW50988   0.089   7.745   1.174  0.1178  0.3418  0.3653
16736SOL    HW150989   0.020   7.786   1.225 -1.5194 -1.7243 -0.0368
16736SOL    HW250990   0.088   7.792   1.090  0.8498  1.8445  1.1639
16737SOL     OW50991   6.062   3.356   7.143 -0.4452  0.0841 -0.0526
16737SOL    HW150992   5.988   3.378   7.087 -1.0237 -3.2680 -0.8618
16737SOL    HW250993   6.034   3.276   7.188  1.2485  0.8885  2.6454
16738SOL     OW50994   5.664   7.239   5.191  0.3058 -0.6312  0.2830
16738SOL    HW150995   5.627   7.284   5.267 -0.6820 -1.3611  0.2558
16738SOL    HW250996   5.706   7.308   5.141  0.6080 -0.0704  1.2765
16739SOL     OW50997   7.762   4.553   0.191  0.1801 -0.2704  0.1737
16739SOL    HW150998   7.776   4.590   0.279  0.6005  1.0925 -0.4325
16739SOL    HW250999   7.672   4.521   0.192 -0.1892  0.7301  0.7797
16740SOL     OW51000   7.309   6.316   2.740  0.0967  0.1000  0.0208
16740SOL    HW151001   7.304   6.411   2.732  1.5162  0.4695  2.5628
16740SOL    HW251002   7.402   6.295   2.727 -0.0045 -0.7935  0.5946
16741SOL     OW51003   3.526   3.247   4.633  0.2690  0.3495 -0.1364
16741SOL    HW151004   3.604   3.210   4.673 -0.4736 -1.9152 -0.6544
16741SOL    HW251005   3.455   3.225   4.693 -0.1287  1.7047 -0.0590
16742SOL     OW51006   8.235   2.229   5.124  0.1712  0.3193 -0.1280
16742SOL    HW151007   8.310   2.172   5.110  0.0413  0.3970 -1.2610
16742SOL    HW251008   8.197   2.239   5.037  0.3135  2.2956 -0.0046
16743SOL     OW51009   2.836   2.455   5.520 -0.0448  0.2876  0.6225
16743SOL    HW151010   2.875   2.396   5.456 -0.8207 -0.0028  0.4101
16743SOL    HW251011   2.784   2.517   5.467 -0.1559  0.4546  0.9238
16744SOL     OW51012   7.728   6.530   6.362  0.0687 -0.1426 -0.0354
16744SOL    HW151013   7.804   6.512   6.418 -1.3532  0.6707  2.3024
16744SOL    HW251014   7.760   6.514   6.273  2.8864 -0.0809  0.8579
16745SOL     OW51015   3.844   5.447   5.455  0.5238  0.6312  0.2676
16745SOL    HW151016   3.873   5.387   5.523  0.2891  0.7801  0.5038
16745SOL    HW251017   3.756   5.473   5.482 -0.0123 -0.1460 -0.6495
16746SOL     OW51018   6.677   8.279   5.582  0.2041  0.1569  0.1747
16746SOL    HW151019   6.767   8.301   5.558  0.2925 -1.8310 -1.6771
16746SOL    HW251020   6.678   8.184   5.594 -1.5433  0.1601  0.6211
16747SOL     OW51021   1.933   7.562   7.785 -0.7023  0.3557 -0.0106
16747SOL    HW151022   1.983   7.642   7.770  1.3303 -0.7321  0.5756
16747SOL    HW251023   1.900   7.538   7.698  0.1769  0.8777 -0.5001
16748SOL     OW51024   2.352   6.452   5.387 -0.6042  0.3586  0.0985
16748SOL    HW151025   2.383   6.507   5.459  2.0110  1.7435 -1.9119
16748SOL    HW251026   2.346   6.365   5.425 -1.4978  1.3791  2.5175
16749SOL     OW51027   0.972   7.246   6.570  0.4246 -0.2610  0.0730
16749SOL    HW151028   1.045   7.185   6.558 -0.0715 -0.4990 -2.1446
16749SOL    HW251029   0.894   7.195   6.550 -0.1433  0.6463 -0.0813
16750SOL     OW51030   0.149   7.777   4.908 -0.3036  0.0368  0.3737
16750SOL    HW151031   0.155   7.714   4.980 -0.6259  1.4027  1.6452
16750SOL    HW251032   0.213   7.845   4.931  0.1177  0.1409 -1.0177
16751SOL     OW51033   1.005   8.012   0.062 -0.1148 -0.1194 -0.0842
16751SOL    HW151034   0.973   7.929   0.028 -2.7246  0.7104  0.1436
16751SOL    HW251035   0.968   8.018   0.150  1.4554  0.5523  0.5706
16752SOL     OW51036   2.862   1.524   7.598  0.0472  0.8302 -0.3171
16752SOL    HW151037   2.822   1.558   7.678 -0.2647  1.4009 -0.7065
16752SOL    HW251038   2.791   1.482   7.551  0.2901  0.2407 -0.1723
16753SOL     OW51039   3.406   2.851   0.910  0.1473 -0.4098  0.0521
16753SOL    HW151040   3.365   2.857   0.996 -1.1865  0.6250 -0.6083
16753SOL    HW251041   3.496   2.881   0.924 -1.0834  3.8039  0.4768
16754SOL     OW51042   1.099   3.191   6.101 -0.7660 -0.2480 -1.0703
16754SOL    HW151043   1.092   3.189   6.006 -1.3243  0.3228 -1.0558
16754SOL    HW251044   1.019   3.149   6.132 -0.5017 -0.5931 -0.8534
16755SOL     OW51045   1.953   0.065   6.170 -0.4345 -0.2137  0.3611
16755SOL    HW151046   2.041   0.047   6.204 -0.0825  0.6633 -0.0692
16755SOL    HW251047   1.966   0.074   6.076 -1.4775 -3.1656 -0.1784
16756SOL     OW51048   3.732   5.495   0.095  0.0658  0.4946 -0.1297
16756SOL    HW151049   3.648   5.463   0.129  0.5033 -1.0890 -0.4311
16756SOL    HW251050   3.710   5.575   0.046 -1.1170  0.6282  0.5878
16757SOL     OW51051   6.432   2.248   0.759  0.1648 -0.0326  0.2514
16757SOL    HW151052   6.483   2.192   0.817  0.1560 -0.1793  0.1174
16757SOL    HW251053   6.400   2.318   0.816  0.3324 -0.0597  0.3799
16758SOL     OW51054   7.595   6.006   0.054  0.0113 -0.0633 -0.0319
16758SOL    HW151055   7.620   5.956  -0.024  1.6640 -1.3786  1.2592
16758SOL    HW251056   7.639   6.090   0.044  2.6341 -1.2389  0.7184
16759SOL     OW51057   5.809   5.459   5.271  0.2831  0.2512 -0.5642
16759SOL    HW151058   5.838   5.395   5.207 -0.2682 -0.3040 -0.2700
16759SOL    HW251059   5.720   5.483   5.243  0.3062  0.5307 -0.4044
16760SOL     OW51060   4.186   6.432   8.153  0.1092  0.3611 -0.5201
16760SOL    HW151061   4.201   6.424   8.248 -1.6718  0.7135 -0.1716
16760SOL    HW251062   4.167   6.343   8.125  0.8138  0.2274 -0.5979
16761SOL     OW51063   2.576   4.413   7.094  0.2204 -0.5606  0.0149
16761SOL    HW151064   2.523   4.488   7.121  1.5952  0.7441 -0.7500
16761SOL    HW251065   2.619   4.383   7.174 -1.1022 -1.1879  0.5072
16762SOL     OW51066   7.614   7.914   0.963 -0.0161 -0.2612 -0.0971
16762SOL    HW151067   7.669   7.836   0.971  0.7526  0.4231  1.9762
16762SOL    HW251068   7.641   7.953   0.880  2.1948 -0.3261  0.5147
16763SOL     OW51069   5.393   7.526   7.210  0.5866  0.3909  0.1683
16763SOL    HW151070   5.446   7.459   7.253 -0.1626 -0.6130 -0.4157
16763SOL    HW251071   5.319   7.539   7.268  1.1735  1.4175  0.7295
16764SOL     OW51072   0.611   7.058   5.764 -0.0415 -0.1713 -0.6186
16764SOL    HW151073   0.595   7.045   5.857 -0.3209 -1.6294 -0.8539
16764SOL    HW251074   0.699   7.096   5.760 -0.1459  0.1894  0.2332
16765SOL     OW51075   5.115   7.224   7.439  0.1698 -0.5692 -0.0870
16765SOL    HW151076   5.159   7.270   7.510 -0.5279 -1.2461  0.8162
16765SOL    HW251077   5.031   7.198   7.477 -1.3701  1.3330 -1.9495
16766SOL     OW51078   4.489   1.596   8.122  0.2874  0.3413  0.0457
16766SOL    HW151079   4.451   1.683   8.112  0.7486  0.5655  0.1894
16766SOL    HW251080   4.538   1.601   8.204  0.3302 -0.0499  0.0465
16767SOL     OW51081   3.081   0.982   7.240  0.1538  0.2689  0.4156
16767SOL    HW151082   3.095   1.063   7.290 -0.5985  0.4285  0.3790
16767SOL    HW251083   3.030   1.010   7.164 -1.0944 -0.4132  0.9788
16768SOL     OW51084   2.140   6.111   2.341  0.5064 -0.2593 -0.5195
16768SOL    HW151085   2.053   6.127   2.304  0.3904  0.9197  0.2119
16768SOL    HW251086   2.156   6.018   2.326 -0.4742 -0.2818 -1.5118
16769SOL     OW51087   5.411   1.299   0.219 -0.0292 -0.2873 -0.3937
16769SOL    HW151088   5.486   1.297   0.160  1.4657  0.1972  1.3994
16769SOL    HW251089   5.395   1.392   0.235  2.4486 -0.2496  3.2350
16770SOL     OW51090   2.234   3.612   3.990  0.1332  0.2426 -0.0453
16770SOL    HW151091   2.308   3.665   4.018 -0.9720  2.3713 -0.9252
16770SOL    HW251092   2.199   3.574   4.070  1.2085  0.5240  0.5665
16771SOL     OW51093   0.813   5.131   1.268  0.5295  0.0063  0.5999
16771SOL    HW151094   0.729   5.149   1.310 -0.2236  0.7327 -1.1054
16771SOL    HW251095   0.790   5.091   1.184  1.8574  0.4880 -0.0278
16772SOL     OW51096   8.108   0.812   3.671 -0.6069 -0.2138 -0.6564
16772SOL    HW151097   8.133   0.879   3.734  0.9100 -1.6090  0.2979
16772SOL    HW251098   8.033   0.849   3.625 -0.5214  1.6478  0.6121
16773SOL     OW51099   0.397   1.330   3.656 -0.0422  0.0579 -0.3206
16773SOL    HW151100   0.314   1.291   3.629 -0.3874  0.4332  0.1674
16773SOL    HW251101   0.463   1.286   3.603 -0.6722  0.6695 -1.6565
16774SOL     OW51102   6.526   1.443   6.745 -0.2004  0.5600  0.1529
16774SOL    HW151103   6.493   1.408   6.662  0.6534 -1.7806  0.7078
16774SOL    HW251104   6.599   1.499   6.721 -0.6112  0.7251 -0.7285
16775SOL     OW51105   5.466   5.753   1.836  0.2619  0.0361  0.1694
16775SOL    HW151106   5.539   5.761   1.897  1.0646 -0.0332 -0.7715
16775SOL    HW251107   5.449   5.843   1.807  0.3521 -0.0146 -0.0433
16776SOL     OW51108   1.675   7.121   6.604  0.4639 -0.3083 -0.4987
16776SOL    HW151109   1.742   7.091   6.665 -0.5390  1.1520  1.4083
16776SOL    HW251110   1.603   7.058   6.614  0.6646 -0.6119 -0.9144
16777SOL     OW51111   2.528   0.719   3.667 -0.0799 -0.2250  0.3140
16777SOL    HW151112   2.519   0.624   3.656  0.9608 -0.1933 -1.3273
16777SOL    HW251113   2.557   0.730   3.757 -0.8928 -1.4125  0.7438
16778SOL     OW51114   7.741   3.531   6.729  0.3747  0.0880 -0.3631
16778SOL    HW151115   7.731   3.611   6.781 -1.3267 -0.8681  0.8406
16778SOL    HW251116   7.705   3.554   6.643  0.8691  0.9019 -0.3708
16779SOL     OW51117   2.435   3.201   4.303  0.4857  0.0106  0.3498
16779SOL    HW151118   2.530   3.212   4.308  0.4176  0.9115  0.0209
16779SOL    HW251119   2.411   3.237   4.217 -0.0546 -1.0074  0.0623
16780SOL     OW51120   4.312   3.244   4.000 -0.0461  0.2878 -0.3848
16780SOL    HW151121   4.322   3.162   3.952  2.0830 -0.2021  0.7709
16780SOL    HW251122   4.352   3.310   3.944 -2.3509  0.7248 -1.6160
16781SOL     OW51123   2.352   0.549   2.369 -0.4303 -0.0384 -0.6325
16781SOL    HW151124   2.309   0.546   2.283  0.6867  0.9529 -1.2706
16781SOL    HW251125   2.282   0.572   2.430 -1.3334 -1.1615 -1.1992
16782SOL     OW51126   6.411   0.303   5.500 -0.3788 -0.5551 -0.6020
16782SOL    HW151127   6.450   0.380   5.542  0.2533 -1.7897  1.1955
16782SOL    HW251128   6.318   0.323   5.496 -0.2636  0.1908  0.1259
16783SOL     OW51129   6.646   3.564   7.415 -0.3330  0.0344  0.4044
16783SOL    HW151130   6.603   3.484   7.446 -0.7350 -0.1737 -0.6616
16783SOL    HW251131   6.594   3.592   7.340  0.6635  0.4864 -0.1320
16784SOL     OW51132   1.710   7.646   4.774 -0.5147 -0.7049  0.2478
16784SOL    HW151133   1.698   7.740   4.764 -1.1468 -0.5736  1.9203
16784SOL    HW251134   1.790   7.626   4.725  0.5192  0.9769  1.1695
16785SOL     OW51135   1.689   2.505   4.350 -0.6068  0.8515  0.0364
16785SOL    HW151136   1.770   2.485   4.304 -0.9537  0.4946 -0.4180
16785SOL    HW251137   1.713   2.503   4.443  0.2044  2.0757 -0.1317
16786SOL     OW51138   4.628   8.225   2.190  0.2331  0.4566  0.3982
16786SOL    HW151139   4.665   8.313   2.184 -0.3659  0.7141  0.4127
16786SOL    HW251140   4.535   8.240   2.210 -1.2449  0.0796 -4.6267
16787SOL     OW51141   7.684   2.931   5.583 -0.2246  0.4467  0.2260
16787SOL    HW151142   7.630   2.930   5.505 -1.1172  0.2923  0.8299
16787SOL    HW251143   7.622   2.923   5.656  0.5809  0.5818  0.9507
16788SOL     OW51144   0.468   5.572   7.526 -0.7058 -0.0969 -0.0022
16788SOL    HW151145   0.510   5.496   7.565  4.0356  2.2301  0.0734
16788SOL    HW251146   0.491   5.569   7.434 -0.6317  1.1202 -0.0388
16789SOL     OW51147   1.648   8.178   2.697  0.2754  0.6186 -0.4151
16789SOL    HW151148   1.684   8.262   2.726  0.5191  0.3368  0.1071
16789SOL    HW251149   1.575   8.202   2.640 -0.3898  1.1939  0.6461
16790SOL     OW51150   2.283   5.100   0.803  0.2856 -0.0120  0.1852
16790SOL    HW151151   2.270   5.157   0.879  0.9227  1.8273 -0.9956
16790SOL    HW251152   2.261   5.012   0.834  2.0916  0.3814  2.9658
16791SOL     OW51153   0.543   3.206   1.592  0.1284  0.4391 -0.1577
16791SOL    HW151154   0.492   3.277   1.631 -1.2666 -0.6810  0.1605
16791SOL    HW251155   0.598   3.173   1.664 -1.5687 -0.8453  0.6219
16792SOL     OW51156   2.580   0.738   1.182  0.6023 -0.2229 -0.9332
16792SOL    HW151157   2.662   0.745   1.133  1.3308 -1.8693 -0.0464
16792SOL    HW251158   2.604   0.689   1.261 -1.1197 -0.1859 -0.3514
16793SOL     OW51159   0.047   6.142   3.620 -0.1867  0.4099  0.0140
16793SOL    HW151160   0.071   6.096   3.701 -2.9033 -1.7525 -0.2941
16793SOL    HW251161  -0.011   6.212   3.649  0.6990  1.1340  0.0959
16794SOL     OW51162   8.093   4.711   0.112  0.2587 -0.1158 -0.0495
16794SOL    HW151163   8.092   4.752   0.198 -0.7510  0.9875 -0.5578
16794SOL    HW251164   8.182   4.676   0.102  0.3868 -0.2554  1.4180
16795SOL     OW51165   5.431   3.259   4.382  1.0523 -0.3945  0.0243
16795SOL    HW151166   5.362   3.320   4.407  0.9818  0.1250 -1.3679
16795SOL    HW251167   5.387   3.174   4.378  0.4412 -0.0426 -1.0119
16796SOL     OW51168   5.996   2.220   1.127 -0.0642 -0.1452 -0.5130
16796SOL    HW151169   6.081   2.233   1.170 -1.1447 -0.1334  1.7950
16796SOL    HW251170   6.015   2.225   1.034  2.2095  1.4204 -0.0436
16797SOL     OW51171   6.642   6.787   2.909  0.5298  0.4672 -1.2825
16797SOL    HW151172   6.648   6.723   2.980  2.6924  1.0160 -0.8802
16797SOL    HW251173   6.606   6.739   2.835  1.5261 -1.0686 -0.8142
16798SOL     OW51174   0.729   5.055   2.687  0.5750  0.1645 -0.3143
16798SOL    HW151175   0.813   5.024   2.653  0.4104  1.0108 -1.5427
16798SOL    HW251176   0.666   5.031   2.620 -0.3330 -1.1349  0.9222
16799SOL     OW51177   1.069   0.473   2.990  0.1145 -0.7627  0.4712
16799SOL    HW151178   1.159   0.503   2.977  0.2269 -0.9506  0.8308
16799SOL    HW251179   1.064   0.391   2.941 -0.3164  0.0362 -0.8833
16800SOL     OW51180   6.758   7.444   2.836  0.4355  0.3116  0.7825
16800SOL    HW151181   6.834   7.502   2.825  0.5847  0.4322  2.3307
16800SOL    HW251182   6.729   7.458   2.926  0.2694 -1.7859  1.1076
16801SOL     OW51183   4.327   1.577   4.025 -0.3860  0.7075  0.4626
16801SOL    HW151184   4.401   1.606   4.078 -0.8298  2.5218  0.1556
16801SOL    HW251185   4.356   1.589   3.935 -0.0417 -1.3218  0.2364
16802SOL     OW51186   0.330   7.906   0.737 -0.2351  0.2459 -0.6882
16802SOL    HW151187   0.419   7.890   0.770 -0.4923 -0.4692 -0.3246
16802SOL    HW251188   0.311   7.829   0.682 -0.9568 -0.0395 -0.0580
16803SOL     OW51189   1.479   1.909   4.426  0.3529 -0.1166 -0.1489
16803SOL    HW151190   1.432   1.825   4.424 -0.0018  0.0807 -0.2523
16803SOL    HW251191   1.439   1.957   4.498 -1.8432  1.3047 -2.1536
16804SOL     OW51192   8.187   1.046   4.387 -0.0697  1.0432 -0.0766
16804SOL    HW151193   8.126   0.996   4.441  0.3436 -1.5205 -1.8539
16804SOL    HW251194   8.165   1.138   4.406 -0.9749  0.2945  3.1821
16805SOL     OW51195   4.474   3.137   0.551 -0.2965 -0.2876  0.5025
16805SOL    HW151196   4.427   3.186   0.484 -0.4328  0.2678  0.9935
16805SOL    HW251197   4.553   3.106   0.508  0.9659  2.3239  0.7702
16806SOL     OW51198   1.997   1.292   2.050  0.2705  0.0119 -0.7443
16806SOL    HW151199   2.074   1.327   2.096 -0.4227 -0.3999  0.7765
16806SOL    HW251200   1.926   1.297   2.114 -1.3022  1.5391 -2.5181
16807SOL     OW51201   0.062   4.424   3.500  0.0765  0.4351  0.2749
16807SOL    HW151202   0.064   4.362   3.427  1.5436 -0.0081  0.6507
16807SOL    HW251203  -0.004   4.389   3.559 -0.5102  0.3194 -0.4342
16808SOL     OW51204   4.588   4.210   4.774  0.1223 -0.5625 -0.1863
16808SOL    HW151205   4.521   4.146   4.798 -0.4111 -0.0891 -0.3818
16808SOL    HW251206   4.664   4.157   4.750  0.0820 -1.0891  0.8013
16809SOL     OW51207   7.517   6.754   2.657 -0.5279 -0.7948  0.2457
16809SOL    HW151208   7.458   6.682   2.680 -2.2030  0.4908  0.1631
16809SOL    HW251209   7.458   6.827   2.635  1.0653 -0.0875 -1.9682
16810SOL     OW51210   4.120   7.794   7.824 -0.1949  0.2956  0.2923
16810SOL    HW151211   4.062   7.815   7.750 -1.5325 -0.0733  1.1878
16810SOL    HW251212   4.083   7.844   7.897 -0.0065 -0.7567  1.1295
16811SOL     OW51213   0.971   1.334   6.485  0.0227 -0.1371  0.8521
16811SOL    HW151214   0.896   1.294   6.442  0.9538 -1.8139  0.6778
16811SOL    HW251215   1.040   1.269   6.477  2.2324  2.2137 -1.0287
16812SOL     OW51216   2.537   7.595   4.735 -0.5776  0.2665  0.2564
16812SOL    HW151217   2.553   7.657   4.806 -0.6732 -0.7499  1.2139
16812SOL    HW251218   2.514   7.513   4.780 -0.4338 -0.4671 -0.9490
16813SOL     OW51219   0.695   4.577   4.648 -0.2700 -0.3316  0.3617
16813SOL    HW151220   0.615   4.568   4.700  0.5932 -2.8719  1.4495
16813SOL    HW251221   0.746   4.645   4.693 -1.2074  0.2924  0.4958
16814SOL     OW51222   1.331   4.913   1.438 -0.3056  0.3499 -0.1299
16814SOL    HW151223   1.254   4.889   1.386  0.2822  1.3371 -1.4843
16814SOL    HW251224   1.294   4.954   1.517 -1.1677  1.4326 -1.0669
16815SOL     OW51225   4.243   1.302   6.820 -0.5440  0.1983  0.1482
16815SOL    HW151226   4.202   1.379   6.860 -0.4728 -0.5313  1.7037
16815SOL    HW251227   4.299   1.338   6.751  3.1581  2.1231  3.7198
16816SOL     OW51228   0.671   5.797   6.929 -0.2913  0.3595 -0.2750
16816SOL    HW151229   0.748   5.851   6.914 -0.3368 -0.1525 -2.7905
16816SOL    HW251230   0.691   5.750   7.011  1.6080  0.9913 -0.3129
16817SOL     OW51231   3.974   2.499   7.817 -0.1877 -0.1642  0.0919
16817SOL    HW151232   3.944   2.575   7.768 -0.7687  0.3797  1.2564
16817SOL    HW251233   4.069   2.510   7.823 -0.2604  0.4402  0.1901
16818SOL     OW51234   0.224   5.445   5.687  0.2919 -0.1188  0.0395
16818SOL    HW151235   0.243   5.438   5.781 -0.5335  0.2055  0.2409
16818SOL    HW251236   0.298   5.401   5.645  0.2975 -0.9396  0.8636
16819SOL     OW51237   2.524   2.583   4.725 -0.0080 -0.8287 -0.0402
16819SOL    HW151238   2.461   2.519   4.759 -0.0638 -0.0603  1.3508
16819SOL    HW251239   2.541   2.642   4.798 -0.7230  1.3552 -1.5290
16820SOL     OW51240   4.711   7.813   4.812 -0.6351 -0.3717 -0.6025
16820SOL    HW151241   4.627   7.775   4.836 -0.2171 -0.6991  0.3938
16820SOL    HW251242   4.775   7.765   4.865  0.1474  0.0917 -1.1066
16821SOL     OW51243   5.439   5.773   4.382 -0.4810  0.7042 -0.2920
16821SOL    HW151244   5.531   5.789   4.405  0.2600 -1.6573 -1.3486
16821SOL    HW251245   5.399   5.742   4.463 -0.2206  1.2280  0.0417
16822SOL     OW51246   1.304   3.977   3.072  0.4158  0.1445  0.0496
16822SOL    HW151247   1.389   3.984   3.114  0.2352 -0.5080  0.5360
16822SOL    HW251248   1.322   3.992   2.979  1.1428 -0.4918  0.0811
16823SOL     OW51249   7.094   8.130   3.039 -0.2520  0.2259 -0.2349
16823SOL    HW151250   7.030   8.147   2.970  1.1278  1.9396 -1.1846
16823SOL    HW251251   7.073   8.192   3.108  1.2810  1.9754 -1.2435
16824SOL     OW51252   4.320   6.299   2.986 -0.6244  0.2616  0.3744
16824SOL    HW151253   4.299   6.246   3.063  0.2495  1.1859  1.2807
16824SOL    HW251254   4.294   6.388   3.009 -0.8081  0.4782 -0.6040
16825SOL     OW51255   4.258   3.937   6.768  0.1398  0.0147  0.0684
16825SOL    HW151256   4.188   3.944   6.834 -0.3557  1.2258 -0.5493
16825SOL    HW251257   4.250   4.017   6.716  2.3886  0.4734  0.3388
16826SOL     OW51258   6.272   2.123   1.880 -0.4217  0.4682 -0.2282
16826SOL    HW151259   6.177   2.124   1.895 -0.3760  0.3247  0.0851
16826SOL    HW251260   6.310   2.137   1.966 -0.1575  0.8551 -0.4060
16827SOL     OW51261   1.750   4.713   5.446 -0.1390  0.1056  0.0534
16827SOL    HW151262   1.817   4.683   5.508 -0.6309  0.1333  0.6029
16827SOL    HW251263   1.780   4.680   5.361 -0.0505 -0.9146  0.4637
16828SOL     OW51264   7.891   4.564   7.547 -0.1888 -0.9857 -0.2245
16828SOL    HW151265   7.965   4.576   7.606 -0.6961  1.1115  0.0463
16828SOL    HW251266   7.822   4.527   7.602  0.3249 -2.0787 -0.2784
16829SOL     OW51267   1.032   3.620   6.807  0.1292  0.1442 -0.2141
16829SOL    HW151268   0.980   3.549   6.844 -1.4813  0.8555 -0.9722
16829SOL    HW251269   1.036   3.601   6.713 -0.2186  0.9638 -0.4089
16830SOL     OW51270   2.630   3.175   0.507 -0.0115 -0.4626  0.0392
16830SOL    HW151271   2.563   3.191   0.441  1.6083  0.6490 -1.4100
16830SOL    HW251272   2.654   3.083   0.494  0.0012 -0.3681 -0.6188
16831SOL     OW51273   4.262   1.351   3.424  0.4486  0.4870 -0.4905
16831SOL    HW151274   4.223   1.308   3.348  2.7594 -0.6575 -1.1198
16831SOL    HW251275   4.290   1.437   3.392  0.0372  0.6248 -0.4906
16832SOL     OW51276   2.090   3.055   3.619  0.0892 -0.6622  0.4256
16832SOL    HW151277   2.103   3.148   3.601 -0.6163 -0.5765  0.3131
16832SOL    HW251278   2.019   3.030   3.560  1.6113 -1.7703 -1.0389
16833SOL     OW51279   2.774   3.798   5.290 -0.2473  0.3270 -0.2335
16833SOL    HW151280   2.810   3.737   5.226 -1.3717  0.9452 -1.4931
16833SOL    HW251281   2.777   3.749   5.373 -1.5566 -1.6538 -1.2618
16834SOL     OW51282   5.780   0.504   4.581  0.6809 -0.1074  0.3263
16834SOL    HW151283   5.696   0.504   4.628  1.1910  0.7501  1.2801
16834SOL    HW251284   5.756   0.499   4.489 -0.3801 -1.0615  0.6228
16835SOL     OW51285   4.421   8.008   3.019 -0.2469 -0.4252  0.0517
16835SOL    HW151286   4.356   8.039   3.081 -1.8855 -1.5278 -1.0412
16835SOL    HW251287   4.409   8.062   2.941 -0.6778 -1.3796 -0.5712
16836SOL     OW51288   5.090   1.468   7.889 -0.0113  0.2995 -0.8949
16836SOL    HW151289   5.087   1.526   7.965 -0.6894  2.5924 -2.5501
16836SOL    HW251290   5.027   1.399   7.909 -0.1365  0.8141  0.6329
16837SOL     OW51291   6.421   3.841   3.680  0.8147  0.2842 -0.0873
16837SOL    HW151292   6.491   3.875   3.736 -0.3030  2.5262  0.0782
16837SOL    HW251293   6.345   3.834   3.738 -0.5375  3.2524 -1.3155
16838SOL     OW51294   5.690   4.086   2.079 -0.3478 -0.5569  0.2499
16838SOL    HW151295   5.730   4.172   2.064 -1.2505 -0.1117  0.3268
16838SOL    HW251296   5.602   4.106   2.110 -0.8479 -1.5123 -0.4996
16839SOL     OW51297   1.165   7.752   3.237 -1.0241  0.4631  0.4605
16839SOL    HW151298   1.240   7.746   3.297  0.6478 -3.0302 -1.6015
16839SOL    HW251299   1.129   7.663   3.235 -0.7572  0.2315 -3.7805
16840SOL     OW51300   6.306   7.010   1.465  0.3244  0.1530 -1.2276
16840SOL    HW151301   6.334   6.984   1.552  0.1183  0.1435 -1.1627
16840SOL    HW251302   6.230   6.954   1.447  0.0003  0.5704 -1.1689
16841SOL     OW51303   0.060   1.010   5.262  0.3840 -0.5646 -0.2345
16841SOL    HW151304   0.129   1.051   5.211  0.3933 -1.2245 -0.7718
16841SOL    HW251305   0.067   0.917   5.240 -0.8521 -0.6073 -0.5266
16842SOL     OW51306   1.468   0.001   3.981  0.0426  0.8827  0.0192
16842SOL    HW151307   1.416  -0.079   3.992  0.5665  0.5488  0.0791
16842SOL    HW251308   1.558  -0.029   3.974  0.2247  1.4554 -0.1812
16843SOL     OW51309   1.810   3.603   5.836  0.2091 -0.4959 -0.3149
16843SOL    HW151310   1.799   3.691   5.799 -0.5080 -0.7506 -0.7286
16843SOL    HW251311   1.903   3.598   5.856 -0.0678  1.1257  1.7155
16844SOL     OW51312   4.764   5.434   2.752 -0.2724 -0.1439  0.1364
16844SOL    HW151313   4.705   5.459   2.680  1.6650  0.9399 -1.1840
16844SOL    HW251314   4.817   5.363   2.716  0.1669 -0.1582  0.7916
16845SOL     OW51315   1.937   5.119   4.738 -0.1877  0.0496  0.5574
16845SOL    HW151316   1.910   5.032   4.768 -1.4920  0.5535  0.8985
16845SOL    HW251317   1.998   5.101   4.666  0.0452 -1.1457  1.0291
16846SOL     OW51318   7.881   1.931   6.936 -0.6717  0.1233  0.6318
16846SOL    HW151319   7.903   1.854   6.989  0.5677  0.3499  0.4819
16846SOL    HW251320   7.953   1.937   6.872 -1.4414  0.6408 -0.2094
16847SOL     OW51321   5.084   1.643   1.280 -0.3307 -0.4806  0.0467
16847SOL    HW151322   5.163   1.663   1.330 -0.7499 -0.9290  0.8980
16847SOL    HW251323   5.064   1.725   1.234  0.6216 -0.3638 -0.1825
16848SOL     OW51324   0.907   7.349   3.496  0.1022 -0.4120 -0.4814
16848SOL    HW151325   0.840   7.379   3.435  1.7227 -1.3652 -2.9010
16848SOL    HW251326   0.956   7.428   3.519 -0.9161  0.0554  0.1145
16849SOL     OW51327   7.159   4.894   4.907  0.0398  0.0345 -0.2184
16849SOL    HW151328   7.195   4.982   4.920  0.0116  0.0723 -0.3942
16849SOL    HW251329   7.069   4.910   4.880  0.3096 -0.0208 -1.1850
16850SOL     OW51330   4.906   3.983   5.326 -0.2968  0.0252  0.2998
16850SOL    HW151331   4.919   4.044   5.399 -0.5297  0.4997 -0.0546
16850SOL    HW251332   4.898   4.039   5.249  1.9584 -0.5245 -0.4179
16851SOL     OW51333   6.311   4.498   0.904  0.0040  0.6740  0.4490
16851SOL    HW151334   6.403   4.475   0.901 -0.3122 -0.7620  0.8230
16851SOL    HW251335   6.279   4.486   0.815  0.1387  0.9891  0.3591
16852SOL     OW51336   1.418   4.256   5.540  0.1357  0.0103  0.1483
16852SOL    HW151337   1.455   4.220   5.621  1.2053 -0.2966 -0.4495
16852SOL    HW251338   1.469   4.213   5.470 -1.9823 -1.1387 -0.7687
16853SOL     OW51339   5.642   0.624   5.794 -0.4383  0.2143 -0.0339
16853SOL    HW151340   5.684   0.700   5.836 -1.6452 -0.3491  2.3736
16853SOL    HW251341   5.560   0.613   5.841 -1.4939 -1.0899 -2.0344
16854SOL     OW51342   5.622   6.153   6.181  0.0779 -0.1501  0.0744
16854SOL    HW151343   5.670   6.070   6.174  2.6967  1.2915 -0.7058
16854SOL    HW251344   5.566   6.143   6.258  2.1569 -1.7899  1.4803
16855SOL     OW51345   6.014   2.705   3.277  0.0838 -0.2472  0.2199
16855SOL    HW151346   6.080   2.727   3.342 -1.0192  0.5773  1.1030
16855SOL    HW251347   5.933   2.742   3.312 -0.6802 -0.4506 -1.2630
16856SOL     OW51348   2.652   6.000   6.993 -0.2988  0.3866  0.4112
16856SOL    HW151349   2.719   5.967   6.932  0.2283  1.4904  0.3708
16856SOL    HW251350   2.686   5.977   7.080  0.5853  1.6860  0.4384
16857SOL     OW51351   8.030   0.437   5.534  0.2423  0.2865  0.4021
16857SOL    HW151352   8.087   0.368   5.566  1.5541  1.4865  0.7843
16857SOL    HW251353   7.981   0.398   5.462  0.8311 -1.0609  0.7194
16858SOL     OW51354   6.509   0.782   1.420 -0.3407  0.1993  0.2696
16858SOL    HW151355   6.427   0.733   1.414 -1.1228  1.5040 -0.0954
16858SOL    HW251356   6.495   0.861   1.368  2.4778 -1.2214 -3.0356
16859SOL     OW51357   4.054   6.207   4.400 -0.1595  0.5441 -0.3007
16859SOL    HW151358   3.972   6.250   4.378  0.0606 -0.2647 -3.0936
16859SOL    HW251359   4.033   6.113   4.401  0.3260  0.4275  1.0326
16860SOL     OW51360   5.363   5.162   5.920 -0.0886 -0.1181 -0.0271
16860SOL    HW151361   5.346   5.252   5.947 -1.9146 -0.1881 -0.8009
16860SOL    HW251362   5.447   5.166   5.874  0.9217  0.7637  1.7871
16861SOL     OW51363   6.305   3.800   3.403  0.2983  0.4704 -0.3028
16861SOL    HW151364   6.337   3.805   3.493 -3.2253  0.5617  1.1181
16861SOL    HW251365   6.296   3.891   3.376 -0.2469  0.4914 -0.0683
16862SOL     OW51366   0.781   5.136   3.098 -0.0265  0.4612 -0.3803
16862SOL    HW151367   0.834   5.178   3.166  0.3466  0.3569 -0.6050
16862SOL    HW251368   0.717   5.085   3.146 -0.4273  1.2109 -0.1011
16863SOL     OW51369   4.339   7.116   4.970  0.2974  0.7880 -0.0354
16863SOL    HW151370   4.322   7.022   4.958  1.5577  0.5830 -0.2986
16863SOL    HW251371   4.328   7.153   4.882 -0.2538  0.9074  0.0783
16864SOL     OW51372   4.819   0.514   2.691 -0.3073 -0.0515 -0.1869
16864SOL    HW151373   4.909   0.502   2.722 -0.6740 -1.2952  0.4661
16864SOL    HW251374   4.817   0.468   2.607 -0.6071 -0.9782  0.3168
16865SOL     OW51375   7.495   1.830   5.836  0.3724  0.4373  0.0506
16865SOL    HW151376   7.474   1.740   5.862 -2.6730  0.3076 -2.2708
16865SOL    HW251377   7.493   1.880   5.918 -1.6950 -1.0412  0.9825
16866SOL     OW51378   4.804   7.009   2.829 -0.2635  0.3739 -0.2878
16866SOL    HW151379   4.822   6.953   2.905  2.5640  1.0704 -0.3369
16866SOL    HW251380   4.788   6.948   2.757 -1.7124 -0.2875  0.5297
16867SOL     OW51381   6.643   2.481   2.012  1.6101 -0.5506  0.0136
16867SOL    HW151382   6.633   2.482   2.107  0.2771  0.7868 -0.1061
16867SOL    HW251383   6.638   2.389   1.988 -0.0482 -0.7755  1.0621
16868SOL     OW51384   4.093   1.778   3.496 -0.2963 -0.3936 -0.2318
16868SOL    HW151385   4.157   1.718   3.458  2.4574  1.0510  1.8001
16868SOL    HW251386   4.120   1.865   3.467 -1.3515  0.2794  0.6952
16869SOL     OW51387   4.835   5.980   6.278 -0.7492 -0.1302  0.1161
16869SOL    HW151388   4.825   5.955   6.186 -1.0623  0.2586  0.0416
16869SOL    HW251389   4.923   6.016   6.285 -0.1905 -1.4526  0.2764
16870SOL     OW51390   4.603   6.007   5.503  0.2660  0.4340  0.0234
16870SOL    HW151391   4.537   6.048   5.446 -1.1918 -2.0398 -0.1768
16870SOL    HW251392   4.675   5.987   5.444 -1.5088 -2.7426 -1.2827
16871SOL     OW51393   6.701   7.660   2.257 -0.0345 -0.0617 -0.2162
16871SOL    HW151394   6.649   7.584   2.231  0.7452 -0.0532 -1.8938
16871SOL    HW251395   6.655   7.695   2.334 -0.8564 -1.7350  0.0990
16872SOL     OW51396   0.795   5.029   6.477  0.0396 -0.3333  0.7694
16872SOL    HW151397   0.737   4.954   6.468 -1.5977  0.4522  3.6296
16872SOL    HW251398   0.738   5.101   6.505  1.8098  1.5872 -0.2283
16873SOL     OW51399   5.304   3.814   4.222  0.2856  0.0401 -1.1216
16873SOL    HW151400   5.256   3.895   4.204 -0.2835 -0.0768 -0.1606
16873SOL    HW251401   5.355   3.832   4.301 -0.5868 -0.8325 -0.3393
16874SOL     OW51402   2.418   0.524   1.644 -0.1386  0.2946 -0.4254
16874SOL    HW151403   2.390   0.464   1.713 -1.1315 -1.3580 -2.1697
16874SOL    HW251404   2.513   0.533   1.656 -0.3226  0.2873  1.2786
16875SOL     OW51405   4.267   1.850   3.856  0.1213  0.5008  0.5065
16875SOL    HW151406   4.294   1.774   3.804  0.3913  2.0451 -1.8113
16875SOL    HW251407   4.304   1.835   3.943 -0.3096 -2.2249  0.3003
16876SOL     OW51408   3.558   4.885   4.078 -0.2513  0.1328 -0.0423
16876SOL    HW151409   3.553   4.943   4.003  0.2953  0.2409  0.0041
16876SOL    HW251410   3.545   4.797   4.042 -0.1673  0.2003 -0.2346
16877SOL     OW51411   1.691   6.029   1.354 -0.0926 -0.3777  0.1060
16877SOL    HW151412   1.675   5.953   1.411  1.5950 -0.1671  0.9128
16877SOL    HW251413   1.610   6.080   1.359 -0.6714 -1.3287  0.8103
16878SOL     OW51414   2.087   2.930   5.661  0.3761 -0.0189  0.0673
16878SOL    HW151415   2.182   2.940   5.670  0.3032  1.7149 -0.7863
16878SOL    HW251416   2.064   2.866   5.729  2.2674 -1.2746 -0.3791
16879SOL     OW51417   5.968   2.260   2.903 -0.2202 -0.3951 -0.6460
16879SOL    HW151418   5.993   2.285   2.814 -1.9043 -0.1383 -1.0944
16879SOL    HW251419   5.990   2.167   2.910  0.7490 -0.1996 -1.0015
16880SOL     OW51420   7.576   7.638   2.049 -0.2045  0.1844 -0.1034
16880SOL    HW151421   7.621   7.723   2.046 -2.3781  1.4090 -0.2193
16880SOL    HW251422   7.484   7.660   2.063 -0.4714 -2.3258  3.1340
16881SOL     OW51423   2.665   1.342   0.962  0.4908 -0.2053  0.1166
16881SOL    HW151424   2.604   1.405   1.000  0.6003  0.8187 -1.3442
16881SOL    HW251425   2.631   1.326   0.874  0.2819 -2.4496  0.5474
16882SOL     OW51426   0.082   2.220   1.727 -0.3191 -0.3271 -0.1320
16882SOL    HW151427   0.070   2.216   1.822  1.1459  0.6754  0.1425
16882SOL    HW251428   0.147   2.152   1.709  2.2156  1.8191  0.2054
16883SOL     OW51429   2.969   1.763   2.175 -0.3686  0.5313 -0.2985
16883SOL    HW151430   2.910   1.812   2.118 -0.8352 -1.4289 -1.6045
16883SOL    HW251431   2.930   1.768   2.262 -0.8430  1.7268 -0.5667
16884SOL     OW51432   2.051   0.956   5.202 -0.0887 -0.0300  0.2042
16884SOL    HW151433   2.007   0.901   5.266 -2.1635 -1.1577 -2.0076
16884SOL    HW251434   1.997   1.035   5.197 -1.0583 -0.7265 -1.3511
16885SOL     OW51435   5.436   6.187   7.060  0.2209  0.1402  0.0569
16885SOL    HW151436   5.510   6.189   7.000  0.9450 -1.4842  0.8128
16885SOL    HW251437   5.359   6.199   7.004  0.9616  0.3008 -0.9538
16886SOL     OW51438   7.287   0.798   6.570  0.6529 -0.1601  0.2191
16886SOL    HW151439   7.352   0.844   6.623  1.6207  1.5226 -2.2651
16886SOL    HW251440   7.214   0.859   6.563  1.8832  1.1472 -2.9798
16887SOL     OW51441   6.830   2.083   3.905 -0.2412 -0.1082 -0.1943
16887SOL    HW151442   6.852   2.169   3.871  1.6909 -1.4162 -2.6127
16887SOL    HW251443   6.775   2.044   3.837  0.0591 -1.2338  0.1859
16888SOL     OW51444   2.813   6.709   8.121  0.5642 -0.3319  0.7221
16888SOL    HW151445   2.850   6.671   8.042  0.9324 -2.3366  1.7942
16888SOL    HW251446   2.727   6.667   8.129  0.1195  0.5875  0.8843
16889SOL     OW51447   0.648   3.657   5.686 -0.8056  0.0535 -0.0883
16889SOL    HW151448   0.672   3.663   5.779  0.7850 -0.6331 -0.4294
16889SOL    HW251449   0.731   3.645   5.640 -1.4204  1.6701 -1.7491
16890SOL     OW51450   2.663   0.697   7.319  0.0036 -0.2526 -0.4677
16890SOL    HW151451   2.577   0.716   7.355 -1.2614 -1.7086 -2.4976
16890SOL    HW251452   2.698   0.783   7.295 -0.2995  0.4712  1.4985
16891SOL     OW51453   7.412   1.598   5.986  0.4587 -0.3074  0.2109
16891SOL    HW151454   7.493   1.549   5.970  1.0775  0.0466  1.9853
16891SOL    HW251455   7.427   1.640   6.071 -1.9487 -0.9961  1.0497
16892SOL     OW51456   0.920   5.921   1.914 -0.5298  0.1447 -0.3189
16892SOL    HW151457   0.934   5.905   1.821 -1.3849  3.6899 -1.2217
16892SOL    HW251458   0.825   5.931   1.922 -0.3979  0.6621  0.7477
16893SOL     OW51459   7.007   3.012   4.269 -0.4497 -0.1583 -0.0339
16893SOL    HW151460   6.936   3.010   4.334  0.6323 -0.3326  1.1765
16893SOL    HW251461   7.084   3.040   4.319  1.4657 -4.4790 -0.1617
16894SOL     OW51462   6.065   0.792   4.830 -0.0540  0.4868 -0.0405
16894SOL    HW151463   6.158   0.804   4.849  0.3619 -0.4204 -1.3445
16894SOL    HW251464   6.063   0.721   4.765 -1.7155 -0.0944  0.6047
16895SOL     OW51465   7.694   1.643   3.144  0.1573  0.0916 -0.2150
16895SOL    HW151466   7.600   1.630   3.158  0.6577 -5.3618  0.3864
16895SOL    HW251467   7.700   1.681   3.056 -2.6160  0.0644 -0.5130
16896SOL     OW51468   3.726   2.957   7.983 -0.3912  0.1276 -0.1356
16896SOL    HW151469   3.780   2.991   7.912 -0.8851  0.6946 -0.2473
16896SOL    HW251470   3.787   2.947   8.056 -0.1503  0.8355 -0.2356
16897SOL     OW51471   2.326   6.609   3.788 -0.3916 -1.0772 -0.2400
16897SOL    HW151472   2.353   6.672   3.855 -0.8237 -1.0587 -0.0786
16897SOL    HW251473   2.379   6.532   3.805  1.3578 -0.2120 -1.4587
16898SOL     OW51474   1.392   3.145   4.080  0.9461  0.7267  0.2439
16898SOL    HW151475   1.487   3.160   4.076  0.9140  0.9190  0.1804
16898SOL    HW251476   1.382   3.053   4.057  0.9980  1.1231 -1.5427
16899SOL     OW51477   4.395   3.068   3.349  0.1958 -0.4131  0.2345
16899SOL    HW151478   4.430   3.137   3.406 -0.5746  1.6632 -1.6515
16899SOL    HW251479   4.342   3.115   3.285 -0.9404 -2.8720 -0.7484
16900SOL     OW51480   5.740   7.010   5.073 -0.2522  0.4075  0.1736
16900SOL    HW151481   5.834   6.998   5.088 -0.2055 -0.3111 -0.6256
16900SOL    HW251482   5.716   7.084   5.130  0.3414 -0.7649  2.0413
16901SOL     OW51483   4.608   2.883   6.833 -0.4358  0.1601 -0.1726
16901SOL    HW151484   4.612   2.948   6.904 -0.9280 -1.2895  1.2199
16901SOL    HW251485   4.603   2.799   6.878 -1.0252 -0.7849 -1.9485
16902SOL     OW51486   2.257   6.819   7.951  0.5490 -0.0088 -0.2151
16902SOL    HW151487   2.254   6.792   7.859  0.3921  1.6112 -0.7095
16902SOL    HW251488   2.331   6.880   7.955 -0.2327  0.9212  0.4317
16903SOL     OW51489   6.344   7.322   5.686 -0.4716 -0.4782 -0.6117
16903SOL    HW151490   6.251   7.300   5.684 -1.2569  2.2339  0.7806
16903SOL    HW251491   6.373   7.297   5.774 -0.3504  0.2126 -0.4436
16904SOL     OW51492   0.224   6.766   0.066  0.3501 -0.0944 -0.2996
16904SOL    HW151493   0.301   6.758   0.010  1.1369 -0.1784  0.7701
16904SOL    HW251494   0.150   6.755   0.007  1.1307  0.9762 -1.5221
16905SOL     OW51495   7.659   3.719   7.682 -0.2633 -0.2399  0.3093
16905SOL    HW151496   7.691   3.719   7.592 -1.1661  1.1754 -0.0382
16905SOL    HW251497   7.711   3.651   7.726 -0.7458 -1.9508 -1.5843
16906SOL     OW51498   4.877   6.643   5.069 -0.9014 -0.2207 -0.2367
16906SOL    HW151499   4.798   6.642   5.122 -0.8458  0.7721 -0.1234
16906SOL    HW251500   4.845   6.646   4.979 -0.9860 -1.1525 -0.2568
16907SOL     OW51501   7.497   3.624   5.976 -0.1939 -0.5967 -0.2229
16907SOL    HW151502   7.467   3.574   5.900 -0.0755 -0.2571 -0.4986
16907SOL    HW251503   7.591   3.604   5.981 -0.5758 -2.2535  1.0923
16908SOL     OW51504   6.338   1.790   4.637 -0.0200  0.5765 -0.0948
16908SOL    HW151505   6.250   1.805   4.672 -0.6003  1.8063 -1.9420
16908SOL    HW251506   6.323   1.764   4.546  1.4259 -2.3961  0.3970
16909SOL     OW51507   4.579   7.502   1.176 -0.7584 -0.1562  0.2575
16909SOL    HW151508   4.633   7.577   1.151  0.4601 -1.2182 -0.3688
16909SOL    HW251509   4.565   7.455   1.094 -0.4651 -1.2922  0.8501
16910SOL     OW51510   7.073   6.412   7.298  0.2617 -0.6866 -0.0914
16910SOL    HW151511   7.040   6.496   7.328  1.2524  0.0188 -0.9048
16910SOL    HW251512   7.005   6.378   7.241 -0.0072 -0.2939 -0.0075
16911SOL     OW51513   2.845   6.525   5.490 -0.2465 -0.0196  0.2837
16911SOL    HW151514   2.783   6.469   5.443 -2.2695  1.9477  0.3812
16911SOL    HW251515   2.802   6.542   5.574  0.2203  1.6926  0.2135
16912SOL     OW51516   1.840   8.236   7.595 -0.0210  0.1627  0.0905
16912SOL    HW151517   1.771   8.270   7.538 -0.3728 -0.3464  0.2113
16912SOL    HW251518   1.850   8.144   7.569  0.8587  0.3205 -0.1656
16913SOL     OW51519   4.642   6.947   3.772  0.3778  0.1312 -0.2207
16913SOL    HW151520   4.632   6.923   3.680  1.4527 -0.1376 -0.2700
16913SOL    HW251521   4.552   6.963   3.802 -0.2317 -2.2616 -0.6217
16914SOL     OW51522   6.662   5.590   6.408 -0.1007  0.3391  0.0134
16914SOL    HW151523   6.692   5.544   6.329  0.1737 -0.7405  0.7250
16914SOL    HW251524   6.649   5.680   6.379 -2.3073 -0.4917 -1.8449
16915SOL     OW51525   0.642   1.382   4.511  0.2470  0.0748 -0.4484
16915SOL    HW151526   0.547   1.392   4.509  0.0922 -0.7865  1.1192
16915SOL    HW251527   0.666   1.364   4.420 -1.1688 -0.4525 -0.7503
16916SOL     OW51528   2.906   1.395   6.339 -0.2438 -0.1287 -0.4163
16916SOL    HW151529   2.922   1.398   6.245 -1.5985  0.0390 -0.6656
16916SOL    HW251530   2.956   1.469   6.374 -2.7380  2.2517 -1.5477
16917SOL     OW51531   0.992   5.515   7.773  0.0602  0.0658  0.3237
16917SOL    HW151532   0.995   5.486   7.682 -0.4481  2.1195 -0.4061
16917SOL    HW251533   0.958   5.604   7.769 -2.1269 -0.5223  2.7209
16918SOL     OW51534   2.574   4.912   7.333 -0.4917  0.1571 -0.0365
16918SOL    HW151535   2.669   4.917   7.317 -0.4883  1.1214  0.2147
16918SOL    HW251536   2.536   4.966   7.264 -0.7386  1.0837  0.7957
16919SOL     OW51537   1.187   5.796   1.590  0.5078  0.4588 -0.0268
16919SOL    HW151538   1.183   5.826   1.499 -1.7481  0.5319  0.0316
16919SOL    HW251539   1.099   5.811   1.623  0.8190 -1.1519  1.6749
16920SOL     OW51540   0.308   7.451   3.285 -0.3669  0.2992 -0.3274
16920SOL    HW151541   0.224   7.491   3.308  0.2130  0.5293  1.6053
16920SOL    HW251542   0.296   7.358   3.306 -0.5826  0.0710 -1.4241
16921SOL     OW51543   7.753   8.073   3.921 -0.3722 -0.0202 -0.1437
16921SOL    HW151544   7.815   8.027   3.977 -0.4664 -0.3311 -0.2933
16921SOL    HW251545   7.668   8.056   3.960 -0.5189 -0.9147 -0.8424
16922SOL     OW51546   0.045   0.134   4.425  0.0684 -0.5835 -0.1880
16922SOL    HW151547   0.013   0.105   4.510  0.5640  0.7642  0.4913
16922SOL    HW251548   0.106   0.205   4.445 -0.7327  0.5905 -1.7147
16923SOL     OW51549   2.063   7.551   4.986  0.0119 -0.4612  0.3611
16923SOL    HW151550   2.083   7.466   4.946 -3.3195 -0.8106 -0.9087
16923SOL    HW251551   1.972   7.542   5.016 -0.4487  2.6473  0.1770
16924SOL     OW51552   4.975   2.404   4.649  0.2164  0.0725 -0.6265
16924SOL    HW151553   4.997   2.448   4.567 -1.8914  0.5715 -0.9631
16924SOL    HW251554   4.994   2.312   4.633 -1.3463 -0.0302 -2.1607
16925SOL     OW51555   8.154   7.411   2.978 -0.3484  0.4227 -0.0494
16925SOL    HW151556   8.223   7.347   2.966  0.6446  1.5872 -0.8041
16925SOL    HW251557   8.177   7.457   3.058 -0.9749 -0.0401  0.4073
16926SOL     OW51558   5.126   7.002   0.580 -0.1009 -0.1129  0.1240
16926SOL    HW151559   5.194   6.954   0.533  1.5261  2.5250 -0.4745
16926SOL    HW251560   5.174   7.067   0.632 -2.0887  2.1303 -0.6145
16927SOL     OW51561   7.382   4.885   4.215  0.2653  0.3373 -0.4316
16927SOL    HW151562   7.414   4.936   4.141 -0.2573 -0.2731 -1.1019
16927SOL    HW251563   7.419   4.798   4.201 -0.5037 -0.0009 -0.4442
16928SOL     OW51564   1.238   0.921   4.140 -0.1749  0.0303 -0.7587
16928SOL    HW151565   1.306   0.988   4.146  0.6141 -0.8642  0.6980
16928SOL    HW251566   1.209   0.906   4.230 -0.5808 -1.3357 -1.0833
16929SOL     OW51567   3.019   7.828   5.570 -0.0544  0.0433  0.1164
16929SOL    HW151568   3.052   7.740   5.553 -0.5586 -0.0597 -0.3525
16929SOL    HW251569   3.088   7.870   5.622  1.2296  0.1232 -1.5727
16930SOL     OW51570   8.025   1.246   7.235  0.0242  0.3278  0.2136
16930SOL    HW151571   8.107   1.199   7.251 -0.4359  0.1259  2.2566
16930SOL    HW251572   8.029   1.320   7.296 -1.8231 -0.3607  1.2265
16931SOL     OW51573   5.651   1.318   1.536  0.2640  1.0151 -0.2714
16931SOL    HW151574   5.575   1.338   1.481  0.0980  0.5832 -0.2048
16931SOL    HW251575   5.624   1.343   1.625 -0.0778  0.2045 -0.1282
16932SOL     OW51576   6.906   0.028   2.330 -0.0676  0.2590 -0.2110
16932SOL    HW151577   6.853  -0.045   2.361  0.2521  0.8959  2.0455
16932SOL    HW251578   6.977  -0.012   2.280  0.9363 -1.1851  2.1737
16933SOL     OW51579   3.516   0.415   3.167  0.6764  0.1883  0.6712
16933SOL    HW151580   3.499   0.400   3.074  1.4990 -0.2797  0.5898
16933SOL    HW251581   3.609   0.397   3.178  1.0698  2.2971  1.1815
16934SOL     OW51582   0.584   1.503   5.970 -0.3157  0.1320  0.5140
16934SOL    HW151583   0.647   1.489   5.899 -2.6569  1.0805 -1.9347
16934SOL    HW251584   0.516   1.437   5.955 -2.0055  1.8101  0.3771
16935SOL     OW51585   3.192   4.069   3.965  0.0125 -0.0174  0.2166
16935SOL    HW151586   3.099   4.057   3.987 -0.2443 -0.4223 -1.0252
16935SOL    HW251587   3.204   4.164   3.962 -0.2822  0.0363  0.6984
16936SOL     OW51588   2.816   4.264   0.153 -0.3108  0.0822  0.0747
16936SOL    HW151589   2.779   4.347   0.126 -0.3259 -0.4104 -1.5199
16936SOL    HW251590   2.744   4.201   0.144 -1.0331  0.2194  3.5602
16937SOL     OW51591   6.005   5.406   4.088  0.4666 -0.4628 -0.0853
16937SOL    HW151592   5.920   5.390   4.130 -0.6860  1.9110 -1.2699
16937SOL    HW251593   5.990   5.483   4.033  3.3063 -0.2184 -0.6855
16938SOL     OW51594   5.430   6.512   2.065 -0.0512 -0.5409  0.2284
16938SOL    HW151595   5.347   6.558   2.051  0.1916 -0.1470  0.0627
16938SOL    HW251596   5.494   6.582   2.081  0.2235 -0.8475  0.4923
16939SOL     OW51597   5.206   5.343   7.693 -1.0843  0.3580 -0.0067
16939SOL    HW151598   5.264   5.320   7.766 -0.9591  0.4977 -0.0614
16939SOL    HW251599   5.127   5.291   7.708 -0.9514  0.1798  0.0770
16940SOL     OW51600   7.949   2.842   1.022  0.4271  0.2050 -0.0013
16940SOL    HW151601   7.988   2.851   0.935 -1.6401 -0.1957 -1.0436
16940SOL    HW251602   7.930   2.749   1.031 -1.0749  0.4880  0.0536
16941SOL     OW51603   2.964   5.419   5.938  0.2583  0.4421 -0.0179
16941SOL    HW151604   2.981   5.439   6.031 -1.7430 -0.6728  0.6437
16941SOL    HW251605   2.880   5.461   5.920 -0.2378 -0.8512 -0.8070
16942SOL     OW51606   5.764   6.579   3.369  0.0013  0.0318  0.2168
16942SOL    HW151607   5.807   6.507   3.416 -0.0595 -0.7420 -0.8871
16942SOL    HW251608   5.671   6.554   3.368 -0.0591  0.2634  0.0505
16943SOL     OW51609   1.325   1.929   3.258  0.2537 -0.1417 -0.3619
16943SOL    HW151610   1.319   1.877   3.338 -0.0650 -1.0378 -0.9544
16943SOL    HW251611   1.413   1.966   3.261  0.9518 -1.7076 -0.5133
16944SOL     OW51612   3.523   5.231   7.945 -0.0002  0.6152 -0.9577
16944SOL    HW151613   3.596   5.287   7.920 -0.0732  1.1225 -0.0835
16944SOL    HW251614   3.465   5.231   7.869  0.7230  0.5153 -1.5165
16945SOL     OW51615   2.870   8.263   5.176  0.0161 -0.0491 -0.3433
16945SOL    HW151616   2.852   8.169   5.177 -0.5578  0.0547  0.6582
16945SOL    HW251617   2.965   8.269   5.175  0.0735 -0.6195 -2.0015
16946SOL     OW51618   6.725   3.266   8.113 -0.2127 -0.1124 -0.1016
16946SOL    HW151619   6.743   3.293   8.023 -0.1819  1.2912  0.3004
16946SOL    HW251620   6.658   3.199   8.105 -0.9209  0.6830 -1.1211
16947SOL     OW51621   8.212   7.465   3.711 -0.0003  0.0204 -0.0460
16947SOL    HW151622   8.215   7.427   3.799  0.3338  0.7319  0.2549
16947SOL    HW251623   8.189   7.391   3.654  1.1772 -0.7487  0.4531
16948SOL     OW51624   1.369   1.737   6.783  0.2583 -0.3227 -0.6890
16948SOL    HW151625   1.359   1.785   6.866 -0.0662  1.2364 -1.5821
16948SOL    HW251626   1.415   1.798   6.726  0.2235 -1.2673 -1.7538
16949SOL     OW51627   0.796   1.744   8.048 -0.0135 -0.2520  0.0560
16949SOL    HW151628   0.851   1.812   8.009  0.4023 -0.9104 -0.5327
16949SOL    HW251629   0.793   1.766   8.141 -0.8527  1.2244 -0.3023
16950SOL     OW51630   2.479   5.366   0.502 -0.5391  0.4550 -0.1001
16950SOL    HW151631   2.496   5.391   0.593  1.3375 -0.3632 -0.1728
16950SOL    HW251632   2.541   5.295   0.485  0.2147  1.5834 -2.4746
16951SOL     OW51633   0.530   6.243   6.795  0.7941  0.0539 -0.3247
16951SOL    HW151634   0.541   6.251   6.701  2.1143  0.4910 -0.1558
16951SOL    HW251635   0.618   6.254   6.831  0.1285  1.3220  1.0565
16952SOL     OW51636   4.332   6.774   6.287 -0.5172  0.3913 -0.3461
16952SOL    HW151637   4.285   6.692   6.273 -0.9632  0.3099  1.3473
16952SOL    HW251638   4.263   6.841   6.290 -0.6804  0.2176  2.5830
16953SOL     OW51639   7.776   1.258   7.418  0.5345 -0.1835 -0.0873
16953SOL    HW151640   7.867   1.270   7.444  0.8911 -1.3327 -0.7265
16953SOL    HW251641   7.781   1.221   7.330 -0.5510 -0.1423 -0.1763
16954SOL     OW51642   4.160   2.199   2.350 -0.0503 -0.4256  0.5189
16954SOL    HW151643   4.199   2.129   2.298 -1.6608 -0.9954  0.0353
16954SOL    HW251644   4.174   2.278   2.298  0.3776 -0.6332  0.3127
16955SOL     OW51645   3.106   5.122   1.193 -0.3565 -0.0949 -0.1856
16955SOL    HW151646   3.066   5.053   1.247  0.3295  0.4068  1.0198
16955SOL    HW251647   3.200   5.113   1.209 -0.2080  0.6208 -0.6373
16956SOL     OW51648   2.098   2.602   3.261 -0.2720 -0.2674 -0.5478
16956SOL    HW151649   2.024   2.598   3.322 -0.0512  0.7568 -0.1988
16956SOL    HW251650   2.132   2.512   3.259  0.1751 -0.1920  1.4228
16957SOL     OW51651   3.269   5.490   6.689 -0.5422  0.1293 -0.4405
16957SOL    HW151652   3.178   5.465   6.678  0.2116 -2.0694 -2.7238
16957SOL    HW251653   3.275   5.580   6.657 -1.7522  0.0233 -0.9743
16958SOL     OW51654   4.856   7.379   4.795  0.2156  0.1957  0.0363
16958SOL    HW151655   4.829   7.359   4.706  0.6032  0.5083 -0.1587
16958SOL    HW251656   4.836   7.300   4.845 -0.5847  0.2508 -0.1961
16959SOL     OW51657   0.967   5.274   3.852  0.0809  0.6959 -0.0569
16959SOL    HW151658   0.987   5.335   3.780  2.4760  0.0877  0.0025
16959SOL    HW251659   1.010   5.192   3.826  0.0727  0.1440  1.5738
16960SOL     OW51660   8.054   2.435   6.616  0.6165 -0.2745 -0.5422
16960SOL    HW151661   8.010   2.372   6.673 -0.6493  1.4668  0.4985
16960SOL    HW251662   8.089   2.382   6.545  1.6090 -2.4732  1.4220
16961SOL     OW51663   0.827   3.245   6.003  0.6097  0.1304 -0.2988
16961SOL    HW151664   0.758   3.180   5.989  0.9771 -0.1383 -0.9179
16961SOL    HW251665   0.866   3.256   5.916  1.0308  0.6325 -0.0448
16962SOL     OW51666   4.210   2.423   2.196  0.0527 -0.1523  0.0321
16962SOL    HW151667   4.305   2.424   2.206 -0.0217 -1.6753  1.1653
16962SOL    HW251668   4.189   2.510   2.163  1.8437  0.1660 -0.3932
16963SOL     OW51669   7.321   4.665   5.506  0.1009  0.1471  0.1598
16963SOL    HW151670   7.244   4.718   5.487  0.0601  0.0116 -0.0506
16963SOL    HW251671   7.332   4.609   5.429 -0.8820 -1.3935  1.0872
16964SOL     OW51672   0.872   1.703   2.570  0.0328  0.2889 -0.4298
16964SOL    HW151673   0.904   1.706   2.660  1.1229  2.0121 -0.8300
16964SOL    HW251674   0.841   1.791   2.552  0.7399  0.2515 -2.0353
16965SOL     OW51675   0.848   7.813   7.081  0.2884 -0.2333 -0.0119
16965SOL    HW151676   0.896   7.739   7.043  1.2025  0.5260 -0.3870
16965SOL    HW251677   0.843   7.792   7.175 -0.4135 -1.2722 -0.2693
16966SOL     OW51678   7.980   3.632   3.102  0.2064  0.2605  0.0910
16966SOL    HW151679   8.065   3.596   3.076  0.6746  1.1281  0.3841
16966SOL    HW251680   7.964   3.597   3.189  0.5054  0.5074  0.2444
16967SOL     OW51681   2.600   2.104   1.883 -0.0338 -0.3427  0.0906
16967SOL    HW151682   2.568   2.027   1.836 -0.8611 -1.2725  2.0486
16967SOL    HW251683   2.612   2.171   1.815  0.5281 -2.1146 -1.6390
16968SOL     OW51684   3.502   3.836   2.163  0.2462  0.0261 -0.0081
16968SOL    HW151685   3.472   3.810   2.250  0.8953  2.1505  0.9127
16968SOL    HW251686   3.595   3.812   2.161  0.4021  0.6207  0.1480
16969SOL     OW51687   5.797   1.429   4.451 -0.1878  0.2292 -0.0997
16969SOL    HW151688   5.761   1.406   4.537  1.1288  0.3106  0.5080
16969SOL    HW251689   5.796   1.525   4.450  1.5845  0.2942  0.6695
16970SOL     OW51690   5.520   0.226   6.696 -0.1010 -0.0390 -0.3534
16970SOL    HW151691   5.548   0.134   6.694 -0.4804 -0.1796  0.3533
16970SOL    HW251692   5.452   0.232   6.629 -1.0290 -0.6135  0.5061
16971SOL     OW51693   3.311   5.750   4.284  0.1045  0.4119 -0.0919
16971SOL    HW151694   3.310   5.659   4.315 -1.8982  0.0405 -1.0971
16971SOL    HW251695   3.220   5.778   4.289  0.5843  2.1281 -0.5047
16972SOL     OW51696   0.881   8.217   2.965 -0.3515 -0.2021  0.2804
16972SOL    HW151697   0.795   8.175   2.970 -0.4446 -0.1453 -0.6275
16972SOL    HW251698   0.864   8.310   2.982 -0.2662 -0.3776  1.4303
16973SOL     OW51699   5.169   5.022   7.571 -0.1154 -0.0318 -0.3876
16973SOL    HW151700   5.090   4.991   7.526 -0.0631  0.5024 -0.8527
16973SOL    HW251701   5.137   5.086   7.634 -0.1870 -0.7681  0.3475
16974SOL     OW51702   1.432   2.678   5.671 -0.4038  0.3994 -0.2530
16974SOL    HW151703   1.400   2.656   5.759 -0.5956 -0.3639 -0.5047
16974SOL    HW251704   1.464   2.768   5.679  0.8806 -0.1235  0.9646
16975SOL     OW51705   0.235   2.459   7.148  0.0362 -0.0734  0.3479
16975SOL    HW151706   0.160   2.480   7.204  0.2196  1.0359  0.2133
16975SOL    HW251707   0.202   2.393   7.087 -1.0643  0.9261 -0.1811
16976SOL     OW51708   5.610   3.736   4.430 -0.4742 -0.2131  0.2242
16976SOL    HW151709   5.609   3.662   4.492 -2.7145  0.6453  1.3148
16976SOL    HW251710   5.530   3.784   4.449 -0.1127  1.3556 -1.8939
16977SOL     OW51711   1.682   2.576   7.873  0.8055  0.3026 -0.2162
16977SOL    HW151712   1.727   2.514   7.931  0.7722  2.6596  2.5470
16977SOL    HW251713   1.592   2.545   7.870  1.3640 -1.3447 -1.2796
16978SOL     OW51714   3.301   5.750   0.527  0.1571  0.0402  0.0085
16978SOL    HW151715   3.332   5.734   0.438 -0.1624 -0.4871 -0.0152
16978SOL    HW251716   3.206   5.753   0.519  0.1381  3.8278 -0.2976
16979SOL     OW51717   0.960   0.480   0.097 -0.4651  0.0835 -0.5689
16979SOL    HW151718   0.870   0.497   0.070 -1.2045 -1.3970  0.8053
16979SOL    HW251719   1.013   0.533   0.037 -2.2237  0.9592 -1.4384
16980SOL     OW51720   7.234   2.039   6.955  0.5496 -0.3532  0.0342
16980SOL    HW151721   7.321   2.023   6.920  1.2198  0.6237  1.1737
16980SOL    HW251722   7.176   2.038   6.879  1.5730 -0.8375 -0.7587
16981SOL     OW51723   4.037   6.437   3.912 -0.6318  0.0880  0.4195
16981SOL    HW151724   4.086   6.358   3.934 -1.2421 -0.9153 -1.6167
16981SOL    HW251725   4.042   6.444   3.817 -2.5206  1.2263  0.3342
16982SOL     OW51726   2.190   3.161   0.577 -0.6121  0.7394  0.2994
16982SOL    HW151727   2.267   3.138   0.628  1.8085  0.6015 -3.0853
16982SOL    HW251728   2.136   3.082   0.578  1.4359 -0.7769 -0.6963
16983SOL     OW51729   1.433   7.185   1.463  0.0802 -0.2617 -0.0622
16983SOL    HW151730   1.343   7.164   1.486  0.3116 -0.7500  0.4166
16983SOL    HW251731   1.433   7.191   1.368 -0.5032 -0.0284 -0.0517
16984SOL     OW51732   5.574   2.334   6.469 -0.0978 -0.3059 -0.0799
16984SOL    HW151733   5.508   2.400   6.446 -0.6779  1.0635  4.5445
16984SOL    HW251734   5.526   2.269   6.521  1.7792 -0.3013  1.7893
16985SOL     OW51735   8.068   5.906   3.219 -0.0011 -0.0071  0.2730
16985SOL    HW151736   8.150   5.921   3.267 -1.5121 -0.3222  3.1805
16985SOL    HW251737   8.031   5.994   3.208  1.1618  0.2743 -2.1126
16986SOL     OW51738   7.347   7.513   7.868 -0.0673  0.4609 -0.6069
16986SOL    HW151739   7.327   7.420   7.856  2.7188 -0.2515 -0.3804
16986SOL    HW251740   7.377   7.543   7.783  4.2405 -0.3924  0.3872
16987SOL     OW51741   1.737   1.173   6.568 -0.4035  0.5477  0.7843
16987SOL    HW151742   1.669   1.113   6.537  0.7458 -0.0912 -0.6474
16987SOL    HW251743   1.816   1.147   6.519  0.7889  1.4849  2.1207
16988SOL     OW51744   7.300   8.087   5.928 -0.3425 -0.1639  0.4922
16988SOL    HW151745   7.372   8.028   5.953  0.3407  1.5672  2.9296
16988SOL    HW251746   7.225   8.029   5.919  1.1592 -1.9559 -1.5653
16989SOL     OW51747   3.979   1.044   0.213 -0.2538 -0.1474  0.3435
16989SOL    HW151748   4.058   1.032   0.266 -0.6078  0.2694  0.9695
16989SOL    HW251749   3.913   1.076   0.274 -0.1097  2.3925 -0.6839
16990SOL     OW51750   2.012   4.274   3.212 -0.0314  0.7866  0.2584
16990SOL    HW151751   1.991   4.240   3.124  1.8218 -3.1118  1.1142
16990SOL    HW251752   2.101   4.308   3.204 -0.0221  0.8222  0.5067
16991SOL     OW51753   0.121   6.208   2.775  0.1707 -0.3489  0.4255
16991SOL    HW151754   0.204   6.255   2.780 -0.0561  0.0885  0.1468
16991SOL    HW251755   0.096   6.215   2.683 -0.6404  0.3421  0.6888
16992SOL     OW51756   0.749   7.419   0.084 -0.0310  0.0820  0.0960
16992SOL    HW151757   0.686   7.416   0.156  0.7763  2.5926  1.0365
16992SOL    HW251758   0.834   7.409   0.127  0.3634 -1.7456 -0.9775
16993SOL     OW51759   7.866   7.140   2.725  0.3247 -0.8565  0.1254
16993SOL    HW151760   7.839   7.114   2.637 -1.7178  0.4129  0.3009
16993SOL    HW251761   7.786   7.133   2.777  0.2038  2.9694  0.7668
16994SOL     OW51762   1.589   5.533   2.139 -0.1055 -0.2448 -0.0297
16994SOL    HW151763   1.567   5.556   2.229 -1.6664 -0.3940 -0.3501
16994SOL    HW251764   1.556   5.444   2.128 -0.2009 -0.1230 -0.8321
16995SOL     OW51765   4.058   0.468   7.502 -0.1309 -0.3279  0.3648
16995SOL    HW151766   4.132   0.471   7.441 -0.3215 -0.8680  0.1017
16995SOL    HW251767   4.089   0.412   7.573  0.5866  1.3806  1.4440
16996SOL     OW51768   1.819   1.809   4.356 -0.5584  0.1582 -0.1155
16996SOL    HW151769   1.811   1.904   4.359  0.2331  0.2146  2.4833
16996SOL    HW251770   1.911   1.794   4.334 -0.7836 -0.0261 -0.9499
16997SOL     OW51771   6.059   1.685   3.301  0.2909 -0.0220  0.1952
16997SOL    HW151772   6.133   1.662   3.357 -0.6803  0.1898  1.6159
16997SOL    HW251773   6.025   1.602   3.270 -0.5816 -0.3151  1.8368
16998SOL     OW51774   1.645   4.006   1.306  0.0515  0.0015  0.0840
16998SOL    HW151775   1.701   4.082   1.319 -0.1474  0.0872  0.4460
16998SOL    HW251776   1.557   4.041   1.300  0.1059 -0.0265 -1.5024
16999SOL     OW51777   2.082   0.352   6.813 -0.0007  0.3032 -0.1387
16999SOL    HW151778   2.054   0.364   6.904  1.3412  1.7124  0.1230
16999SOL    HW251779   2.064   0.436   6.772 -2.1296 -0.8037 -1.6640
17000SOL     OW51780   3.469   0.375   2.264  0.4534 -0.4529 -0.0071
17000SOL    HW151781   3.423   0.395   2.346  0.1443  0.9090 -0.4811
17000SOL    HW251782   3.559   0.405   2.280  0.9732 -2.1812  0.5621
17001SOL     OW51783   7.812   1.013   6.779  0.0457 -0.2512 -0.5994
17001SOL    HW151784   7.861   1.013   6.861  0.9706  0.2866 -1.1348
17001SOL    HW251785   7.759   1.092   6.782 -0.7735 -0.8038 -0.0447
17002SOL     OW51786   4.544   3.185   5.474 -0.4331 -0.0248  0.0392
17002SOL    HW151787   4.567   3.143   5.392  0.5384  0.8489 -0.1562
17002SOL    HW251788   4.531   3.113   5.536  0.0995 -0.6401 -0.5572
17003SOL     OW51789   5.561   0.303   1.073 -0.5493  0.0770 -0.4862
17003SOL    HW151790   5.619   0.327   1.145 -0.9389  0.5097 -0.3127
17003SOL    HW251791   5.483   0.267   1.116 -1.3155  1.5005 -0.6286
17004SOL     OW51792   4.793   3.291   3.747 -0.0054 -0.1297  0.2015
17004SOL    HW151793   4.773   3.359   3.811  0.5910 -0.5808  0.8891
17004SOL    HW251794   4.887   3.278   3.754  0.0421 -0.2904 -0.6721
17005SOL     OW51795   7.201   3.401   6.415 -0.6112  0.3171 -0.1784
17005SOL    HW151796   7.109   3.383   6.436  0.1586 -1.3293  2.1672
17005SOL    HW251797   7.225   3.473   6.474 -0.5756  1.2858 -1.3476
17006SOL     OW51798   4.600   0.649   3.608  0.2388  0.5705  0.3810
17006SOL    HW151799   4.546   0.696   3.672  1.6784  1.1537  1.2131
17006SOL    HW251800   4.543   0.639   3.532 -2.0027 -1.3594  2.1618
17007SOL     OW51801   0.044   3.945   4.158  0.5931 -0.1140 -0.3694
17007SOL    HW151802  -0.016   3.998   4.210  0.8043 -0.4997  0.2775
17007SOL    HW251803   0.020   3.855   4.178  0.5492 -0.2729 -1.0960
17008SOL     OW51804   2.325   4.737   3.765  0.3096  0.0762  0.7074
17008SOL    HW151805   2.350   4.804   3.829 -1.7125  0.9069  0.7033
17008SOL    HW251806   2.293   4.787   3.690  2.3329 -0.8899 -0.8870
17009SOL     OW51807   5.515   5.545   5.462  0.0250 -0.0167  0.4417
17009SOL    HW151808   5.578   5.587   5.521 -0.4777  0.5180  0.6046
17009SOL    HW251809   5.522   5.594   5.380  1.0790 -1.0651 -0.1341
17010SOL     OW51810   8.163   2.391   3.328 -0.0024 -0.4858 -0.4491
17010SOL    HW151811   8.094   2.453   3.349  1.3154  1.4341 -1.4572
17010SOL    HW251812   8.195   2.419   3.242  1.5665 -1.7248 -0.3172
17011SOL     OW51813   2.484   4.174   4.460  0.3727 -0.1027  0.2157
17011SOL    HW151814   2.457   4.093   4.417  2.0052 -0.7798  0.3946
17011SOL    HW251815   2.406   4.230   4.457 -0.5431 -1.3686 -0.6255
17012SOL     OW51816   5.176   6.233   5.404 -0.1317  0.1766 -0.5140
17012SOL    HW151817   5.193   6.269   5.491  0.9414  1.0503 -1.0638
17012SOL    HW251818   5.089   6.193   5.411  0.2333 -0.3879  1.1389
17013SOL     OW51819   0.556   3.147   6.670  0.0883  0.0025  0.2875
17013SOL    HW151820   0.643   3.169   6.705  0.8185  1.7184 -2.2164
17013SOL    HW251821   0.507   3.113   6.744  2.0817  1.4521  2.4067
17014SOL     OW51822   6.459   1.678   6.921 -0.1454 -0.3677 -0.1161
17014SOL    HW151823   6.525   1.673   6.990 -2.1757 -1.3521  1.8930
17014SOL    HW251824   6.477   1.602   6.865  0.4985 -0.5388  0.3135
17015SOL     OW51825   2.371   1.519   2.715  0.3115  0.1169  0.5254
17015SOL    HW151826   2.410   1.596   2.758  1.6076 -0.1225 -0.1510
17015SOL    HW251827   2.434   1.496   2.647 -1.5979  0.4151 -1.4578
17016SOL     OW51828   2.238   8.105   6.230  0.2431 -0.0582  0.5784
17016SOL    HW151829   2.284   8.098   6.146 -0.9070 -0.3172 -0.0574
17016SOL    HW251830   2.302   8.145   6.289  1.2109 -0.2308 -0.3083
17017SOL     OW51831   6.304   1.019   7.791  0.0688  0.5478 -0.3987
17017SOL    HW151832   6.267   1.075   7.723 -1.7715  0.2979  0.3430
17017SOL    HW251833   6.273   0.931   7.769  2.4516 -0.1600 -1.2296
17018SOL     OW51834   5.667   0.961   4.381 -0.3036  0.3806  0.8078
17018SOL    HW151835   5.755   0.995   4.365 -0.8392  1.8155  0.7418
17018SOL    HW251836   5.619   0.978   4.299 -0.2930 -1.6714  0.3272
17019SOL     OW51837   4.569   7.002   5.399 -0.1117  0.2434 -0.0602
17019SOL    HW151838   4.561   6.925   5.344  0.8734  0.0266  0.0835
17019SOL    HW251839   4.653   6.992   5.443  0.0722  1.4309 -0.0978
17020SOL     OW51840   4.647   2.266   0.332  0.3177  0.1833 -0.8284
17020SOL    HW151841   4.622   2.247   0.423  0.2725  4.0545  0.1206
17020SOL    HW251842   4.733   2.225   0.323  1.5794  1.9017  1.9451
17021SOL     OW51843   4.899   6.776   8.083 -0.0397  0.8687  0.9116
17021SOL    HW151844   4.914   6.867   8.108 -0.2764  1.0285  0.4666
17021SOL    HW251845   4.968   6.728   8.129  1.4407  1.5129 -0.5220
17022SOL     OW51846   3.430   6.169   5.272  0.4018 -0.0568 -0.5425
17022SOL    HW151847   3.511   6.218   5.286  1.0970 -0.8232 -1.6824
17022SOL    HW251848   3.384   6.218   5.204 -0.0850  0.3560  0.0754
17023SOL     OW51849   7.670   6.770   5.532 -0.0147  0.0459 -0.7507
17023SOL    HW151850   7.608   6.698   5.519 -0.4186  0.2748 -0.1727
17023SOL    HW251851   7.652   6.800   5.621  1.7525 -0.6571 -0.1225
17024SOL     OW51852   5.515   5.822   2.309 -0.5300 -0.3098  0.3718
17024SOL    HW151853   5.530   5.893   2.247  0.2274 -0.3889  0.4505
17024SOL    HW251854   5.462   5.861   2.378  1.8715  0.9342  1.6735
17025SOL     OW51855   3.253   7.913   2.333  0.3433 -0.4042 -0.4324
17025SOL    HW151856   3.285   7.937   2.246  1.3137 -0.7073 -0.1739
17025SOL    HW251857   3.211   7.992   2.366  2.0263  0.4527 -0.2447
17026SOL     OW51858   4.470   3.606   5.601  0.1853  0.5926 -0.2550
17026SOL    HW151859   4.485   3.582   5.692 -0.2322  0.1001 -0.3078
17026SOL    HW251860   4.532   3.552   5.552  0.8012  1.2678 -0.2294
17027SOL     OW51861   8.003   6.385   1.048 -0.4729  0.0574  0.1766
17027SOL    HW151862   7.955   6.452   1.097 -1.3958 -1.6048  1.6153
17027SOL    HW251863   8.035   6.432   0.971 -3.5277  1.4858 -0.3645
17028SOL     OW51864   4.458   2.274   2.425 -0.6888  0.3361  0.2084
17028SOL    HW151865   4.456   2.228   2.341  1.4602  3.3558 -1.7164
17028SOL    HW251866   4.408   2.354   2.410  0.6290  1.4467  1.3911
17029SOL     OW51867   7.440   8.115   7.326 -0.0564 -0.4183 -0.2103
17029SOL    HW151868   7.345   8.127   7.329  0.0617  0.7116 -0.4263
17029SOL    HW251869   7.474   8.203   7.314  0.9756 -0.9442 -1.2526
17030SOL     OW51870   6.397   3.335   1.044  0.3169 -0.1935 -0.4110
17030SOL    HW151871   6.311   3.368   1.019  0.5230 -0.3948 -1.4254
17030SOL    HW251872   6.380   3.250   1.083 -0.2099  0.9712  2.0974
17031SOL     OW51873   0.084   6.784   3.014 -0.1322 -0.2937 -0.2870
17031SOL    HW151874   0.074   6.724   2.940  0.7399 -1.6428  0.6312
17031SOL    HW251875   0.151   6.846   2.986  0.2018 -0.8033 -0.6396
17032SOL     OW51876   0.544   1.844   4.120  0.1589  0.3393  0.6082
17032SOL    HW151877   0.487   1.885   4.185 -0.8123  1.3043 -0.7908
17032SOL    HW251878   0.497   1.854   4.037  0.2788 -2.8267  0.0150
17033SOL     OW51879   4.721   5.220   5.882 -0.4695  0.2068  0.4115
17033SOL    HW151880   4.756   5.202   5.795 -1.0656  0.6346  0.0801
17033SOL    HW251881   4.688   5.135   5.912 -1.2461  0.2635 -0.2340
17034SOL     OW51882   0.148   6.620   6.243  0.2461 -0.1881  0.5654
17034SOL    HW151883   0.068   6.662   6.210 -0.6349 -1.6093  0.7901
17034SOL    HW251884   0.123   6.589   6.330  1.8664  1.5919  1.7587
17035SOL     OW51885   1.184   0.058   3.212 -0.4510 -0.3821  0.2366
17035SOL    HW151886   1.125   0.131   3.196 -1.1226 -1.4330 -2.8623
17035SOL    HW251887   1.127  -0.019   3.215  0.5787 -1.2757 -1.5315
17036SOL     OW51888   5.039   7.609   1.997  0.4738 -0.8773 -0.2240
17036SOL    HW151889   5.081   7.603   2.083  0.9528 -1.6339 -0.5046
17036SOL    HW251890   5.104   7.651   1.941 -0.5552  1.4542  0.2201
17037SOL     OW51891   2.994   5.529   7.697 -0.1236 -0.0599 -0.3266
17037SOL    HW151892   2.947   5.563   7.773 -0.4146  0.2186 -0.6254
17037SOL    HW251893   3.083   5.513   7.728 -0.5122 -0.9837  0.3599
17038SOL     OW51894   4.954   2.709   2.614  0.5797  0.3164  0.8698
17038SOL    HW151895   4.926   2.761   2.690 -1.5143  0.8885 -0.2036
17038SOL    HW251896   5.033   2.753   2.583 -0.6642  2.4357  0.5000
17039SOL     OW51897   5.897   2.493   0.321 -0.0263  0.2073  0.0888
17039SOL    HW151898   5.973   2.447   0.285  0.0764  1.9982 -2.2393
17039SOL    HW251899   5.852   2.427   0.373  2.3985 -1.2729  0.5007
17040SOL     OW51900   5.667   6.727   2.371  0.3927  0.0110  0.0423
17040SOL    HW151901   5.762   6.717   2.369  0.5305  1.2188 -0.1540
17040SOL    HW251902   5.637   6.662   2.434  1.3661 -0.2988  0.1945
17041SOL     OW51903   1.149   7.888   0.668 -0.6703 -0.0240  0.2085
17041SOL    HW151904   1.142   7.795   0.691  0.1587 -0.1888 -0.1533
17041SOL    HW251905   1.164   7.888   0.573  0.9270  0.3837  0.4287
17042SOL     OW51906   1.820   6.612   2.336  0.2746  0.7711  0.2029
17042SOL    HW151907   1.802   6.555   2.411  0.5205 -0.1709 -0.4281
17042SOL    HW251908   1.915   6.623   2.337  0.4441 -0.4316 -0.7816
17043SOL     OW51909   5.574   5.172   1.037 -0.6361 -0.2034  0.1545
17043SOL    HW151910   5.521   5.128   0.970  0.3091  1.5093 -1.8043
17043SOL    HW251911   5.529   5.255   1.053  0.6862  0.6864 -0.5628
17044SOL     OW51912   7.445   0.257   4.226  0.4372 -0.4771 -0.0867
17044SOL    HW151913   7.439   0.274   4.132 -1.9421 -0.0606  0.0809
17044SOL    HW251914   7.356   0.233   4.252  0.7302  0.7339  2.3138
17045SOL     OW51915   8.110   6.605   0.294  0.1702 -0.1025 -0.4319
17045SOL    HW151916   8.133   6.614   0.202  1.2042 -0.0244 -0.1757
17045SOL    HW251917   8.019   6.634   0.299 -0.7553 -2.4778 -1.8512
17046SOL     OW51918   0.691   3.394   3.160  0.0523 -0.1633  0.2837
17046SOL    HW151919   0.720   3.464   3.219  0.7935  0.1629 -0.4341
17046SOL    HW251920   0.751   3.400   3.085 -0.3889 -1.0484 -0.1599
17047SOL     OW51921   6.497   0.823   3.558  0.4426  0.0352 -0.2116
17047SOL    HW151922   6.488   0.761   3.630  0.9207 -0.0442 -0.2115
17047SOL    HW251923   6.507   0.908   3.600 -0.3571  0.1365 -0.2154
17048SOL     OW51924   4.584   0.379   7.279  0.6253 -0.5067 -0.2685
17048SOL    HW151925   4.522   0.373   7.207  0.6316  0.4412 -0.3643
17048SOL    HW251926   4.560   0.308   7.339  0.2307 -0.9057 -0.8973
17049SOL     OW51927   5.565   0.705   4.192 -0.1646 -0.2913 -0.4607
17049SOL    HW151928   5.514   0.639   4.239 -1.2443  0.9780  0.2221
17049SOL    HW251929   5.546   0.688   4.100 -0.3088 -1.0197 -0.3053
17050SOL     OW51930   5.731   5.330   1.377 -0.1516 -0.2020  0.2978
17050SOL    HW151931   5.774   5.298   1.457  1.4358  0.8061 -0.1050
17050SOL    HW251932   5.656   5.271   1.365 -0.1806 -0.6463  2.2797
17051SOL     OW51933   7.688   3.309   4.922  0.6183  0.3170  0.6527
17051SOL    HW151934   7.748   3.341   4.989  1.1244 -1.1047  0.9119
17051SOL    HW251935   7.743   3.295   4.845  0.5435 -0.4603  0.7257
17052SOL     OW51936   8.292   2.326   3.553 -0.2515 -0.0387  0.4697
17052SOL    HW151937   8.247   2.362   3.476 -0.4069 -0.2023  0.4814
17052SOL    HW251938   8.225   2.273   3.596 -0.3566  0.5767  1.0793
17053SOL     OW51939   6.299   2.054   6.319  0.0937  0.1181 -0.2294
17053SOL    HW151940   6.240   2.054   6.395  0.4972 -0.0911  0.0907
17053SOL    HW251941   6.247   2.015   6.249 -0.3545  0.5046 -0.1187
17054SOL     OW51942   0.583   2.973   1.787  0.3200  0.6794  0.0733
17054SOL    HW151943   0.595   2.988   1.881 -1.3372 -0.2183  0.4701
17054SOL    HW251944   0.635   2.894   1.769 -0.5703 -0.0609  0.6066
17055SOL     OW51945   1.355   1.749   3.445 -0.5783  0.2357  0.2665
17055SOL    HW151946   1.425   1.683   3.454  1.4625  2.5353  4.0319
17055SOL    HW251947   1.277   1.698   3.425  1.4799 -2.9088 -0.5737
17056SOL     OW51948   6.029   8.166   3.667  0.0354 -0.1310 -0.0787
17056SOL    HW151949   6.101   8.225   3.644  0.9694 -0.2465  2.2518
17056SOL    HW251950   5.970   8.169   3.592  2.4768 -0.0752 -2.1496
17057SOL     OW51951   2.506   6.569   6.832 -0.3621  0.1575  0.0591
17057SOL    HW151952   2.592   6.609   6.843 -0.4642 -0.2542  3.2188
17057SOL    HW251953   2.445   6.635   6.862 -1.0481 -0.1087 -0.7158
17058SOL     OW51954   5.497   6.428   8.139  0.2388  0.4320 -0.4114
17058SOL    HW151955   5.542   6.403   8.219 -0.2588 -1.2916 -0.6178
17058SOL    HW251956   5.528   6.365   8.074 -1.6328 -0.1484 -0.8118
17059SOL     OW51957   4.575   6.989   8.213 -0.1372  0.1691 -0.5066
17059SOL    HW151958   4.614   6.905   8.187  1.3331  0.1005  1.6503
17059SOL    HW251959   4.502   6.964   8.271  0.8943  0.3299  0.9123
17060SOL     OW51960   7.638   0.707   2.420 -0.4493  0.6001 -0.1884
17060SOL    HW151961   7.589   0.664   2.350 -0.1180  1.1784 -0.7845
17060SOL    HW251962   7.694   0.770   2.375  1.2842 -0.4536  0.4291
17061SOL     OW51963   4.362   6.892   1.885  0.1288 -0.2790  0.0465
17061SOL    HW151964   4.358   6.802   1.853 -0.6319 -0.1323 -0.2987
17061SOL    HW251965   4.416   6.937   1.821 -0.4042 -0.2538 -0.3999
17062SOL     OW51966   0.247   4.765   6.639  0.9031 -0.9129  0.0218
17062SOL    HW151967   0.177   4.830   6.632  0.7208 -0.6598  3.0090
17062SOL    HW251968   0.256   4.730   6.551 -1.7312  0.3445 -0.8404
17063SOL     OW51969   3.941   4.003   3.907  0.0980 -0.3050  0.0971
17063SOL    HW151970   3.947   3.910   3.928  0.7530 -0.4238 -0.5766
17063SOL    HW251971   4.025   4.025   3.867 -0.5401  0.2408 -1.0039
17064SOL     OW51972   1.586   5.203   8.323 -0.2105 -0.2719  0.2698
17064SOL    HW151973   1.502   5.242   8.296  0.6221  1.7548  0.3696
17064SOL    HW251974   1.594   5.224   8.416  0.4237 -0.3653  0.2430
17065SOL     OW51975   2.257   3.962   5.880 -0.1665 -0.2214  0.4596
17065SOL    HW151976   2.248   3.889   5.819 -2.2141  0.9391 -0.7786
17065SOL    HW251977   2.347   3.956   5.912  0.7851 -1.3775 -2.0929
17066SOL     OW51978   6.142   8.096   6.885 -0.2219 -0.5856 -0.2396
17066SOL    HW151979   6.113   8.049   6.807 -0.6561  3.2626 -2.7020
17066SOL    HW251980   6.061   8.131   6.922  0.0812 -1.5925  1.4404
17067SOL     OW51981   1.081   3.207   2.528 -0.2555 -0.1398  0.5236
17067SOL    HW151982   0.995   3.167   2.520 -0.8209  1.2096 -0.3624
17067SOL    HW251983   1.086   3.234   2.620 -0.0401 -1.7684  1.0269
17068SOL     OW51984   8.208   8.066   8.000 -0.3181  0.3018 -0.5482
17068SOL    HW151985   8.197   8.079   8.094 -2.8690  1.3681 -0.8910
17068SOL    HW251986   8.181   8.150   7.962 -0.6944 -0.5567 -2.2598
17069SOL     OW51987   6.535   2.069   7.573  0.1361  0.0360  0.0147
17069SOL    HW151988   6.561   1.991   7.524 -0.2482 -0.4718  0.6151
17069SOL    HW251989   6.470   2.112   7.517 -0.7068 -0.8314  0.3080
17070SOL     OW51990   0.567   5.358   4.255  0.4165  0.3576 -0.3566
17070SOL    HW151991   0.616   5.277   4.269 -0.0031  0.5040  2.6098
17070SOL    HW251992   0.618   5.425   4.299 -0.8219  1.0984  0.0090
17071SOL     OW51993   6.331   6.510   4.844  0.0946 -0.3280 -0.1653
17071SOL    HW151994   6.290   6.423   4.836  1.5372 -1.0978  0.4285
17071SOL    HW251995   6.418   6.499   4.805  1.4612 -0.0203  2.5354
17072SOL     OW51996   2.989   1.330   0.069  0.1625  0.5619 -0.4389
17072SOL    HW151997   2.900   1.363   0.058  0.3943  0.8894 -1.4294
17072SOL    HW251998   2.978   1.238   0.091 -0.4137  0.0381 -2.6862
17073SOL     OW51999   5.266   4.601   0.704  0.0487  0.1127 -0.4935
17073SOL    HW152000   5.229   4.518   0.733  0.0814  0.6314  1.1330
17073SOL    HW252001   5.294   4.585   0.614 -1.0667 -1.2629 -0.6253
17074SOL     OW52002   3.426   5.691   1.085 -0.0930 -0.4364 -0.3599
17074SOL    HW152003   3.373   5.612   1.073 -0.9126 -0.2632  1.7873
17074SOL    HW252004   3.494   5.666   1.146  0.0236  0.3450 -0.1568
17075SOL     OW52005   3.959   6.125   6.715 -0.1295  0.1004  0.6436
17075SOL    HW152006   3.969   6.219   6.699 -0.1292 -0.2664 -1.7969
17075SOL    HW252007   4.031   6.104   6.775  1.9736  1.1080 -1.3479
17076SOL     OW52008   5.947   5.206   6.932 -0.4237 -0.3992  0.1213
17076SOL    HW152009   5.919   5.131   6.984 -1.9834 -0.0999 -0.2204
17076SOL    HW252010   5.989   5.265   6.994 -2.8404  0.2558  1.2707
17077SOL     OW52011   7.461   1.935   7.369 -0.0600 -0.7335 -0.6595
17077SOL    HW152012   7.389   1.934   7.306 -1.2815 -1.7457  0.6732
17077SOL    HW252013   7.421   1.906   7.451  1.7175 -0.5639  0.3127
17078SOL     OW52014   5.587   2.296   2.494 -0.2717 -0.4357  0.0706
17078SOL    HW152015   5.671   2.271   2.455 -0.7772 -1.0465 -0.6371
17078SOL    HW252016   5.599   2.277   2.588  0.3078 -0.7153 -0.0525
17079SOL     OW52017   6.650   1.398   5.684 -0.1785  0.7911  0.0992
17079SOL    HW152018   6.684   1.377   5.771 -0.3264  0.2543  0.0344
17079SOL    HW252019   6.707   1.468   5.652  1.4605 -0.6630 -0.3670
17080SOL     OW52020   0.219   5.467   3.943  0.1392 -0.0156  0.3005
17080SOL    HW152021   0.259   5.456   3.857 -1.5099  0.5010 -0.5761
17080SOL    HW252022   0.279   5.424   4.003  3.2560  2.7202 -0.5522
17081SOL     OW52023   6.074   4.051   0.212 -0.1361  0.0884 -0.0951
17081SOL    HW152024   6.045   4.133   0.173 -0.7170 -0.1812 -0.2395
17081SOL    HW252025   5.995   4.013   0.251 -0.0081 -0.7030 -0.5718
17082SOL     OW52026   5.686   3.244   4.335  0.1092  0.2810 -0.0569
17082SOL    HW152027   5.595   3.245   4.365  0.4447 -0.0779  1.0329
17082SOL    HW252028   5.696   3.159   4.292  0.1575 -0.0437  0.5877
17083SOL     OW52029   4.307   2.033   1.581  0.1887  0.1035 -0.3224
17083SOL    HW152030   4.342   1.985   1.656 -1.0104 -0.1907  0.0600
17083SOL    HW252031   4.384   2.050   1.526  0.9256 -0.5627  0.4753
17084SOL     OW52032   1.231   0.470   0.472 -0.3545  0.0424 -0.5468
17084SOL    HW152033   1.257   0.481   0.380  2.0869  0.6440  0.1297
17084SOL    HW252034   1.255   0.554   0.513 -0.0787 -0.7153  0.8860
17085SOL     OW52035   6.721   2.013   5.143 -0.2894  0.0297 -0.5337
17085SOL    HW152036   6.789   2.054   5.195  0.2462  0.2793 -1.4110
17085SOL    HW252037   6.646   2.006   5.202 -0.8570  3.4211 -0.6463
17086SOL     OW52038   2.489   1.795   3.243 -0.0130  0.0798  0.3875
17086SOL    HW152039   2.538   1.715   3.224 -0.1894  0.4323 -1.8008
17086SOL    HW252040   2.401   1.765   3.266 -0.3529 -0.3739 -1.3628
17087SOL     OW52041   2.896   5.849   8.314 -0.2784 -0.1197 -0.2360
17087SOL    HW152042   2.850   5.913   8.261 -1.6801 -0.3770  0.6233
17087SOL    HW252043   2.915   5.777   8.255  1.6459  1.1737 -1.3157
17088SOL     OW52044   7.457   6.047   3.929 -0.2283  0.3734  0.0428
17088SOL    HW152045   7.415   6.027   3.845  0.7568 -4.2095  0.4163
17088SOL    HW252046   7.385   6.054   3.991 -0.7713 -0.7800 -0.4335
17089SOL     OW52047   2.942   5.978   2.868 -0.2163  0.3186  0.3662
17089SOL    HW152048   2.932   6.057   2.814  2.2282  0.4007 -0.1254
17089SOL    HW252049   2.855   5.940   2.872 -1.3606  2.7021  0.0957
17090SOL     OW52050   8.141   1.964   5.040 -0.1796  0.9215  0.2234
17090SOL    HW152051   8.230   1.931   5.023 -0.9785 -0.9998 -0.4434
17090SOL    HW252052   8.124   1.942   5.131 -0.5767 -0.2621 -0.1206
17091SOL     OW52053   7.121   0.411   6.702 -0.4359  0.2391 -0.4369
17091SOL    HW152054   7.172   0.457   6.769 -1.0871 -0.9223  0.9052
17091SOL    HW252055   7.060   0.477   6.670  0.5606  1.0926 -0.6519
17092SOL     OW52056   4.987   6.871   4.982  0.0095  0.2141  0.3956
17092SOL    HW152057   4.982   6.779   5.005  0.9529 -0.4988 -2.0058
17092SOL    HW252058   4.931   6.880   4.905  1.2036  1.2775 -0.3911
17093SOL     OW52059   7.303   3.828   2.637  0.0286  0.0274 -0.3880
17093SOL    HW152060   7.252   3.907   2.619 -0.2698 -0.1883 -0.4942
17093SOL    HW252061   7.293   3.775   2.558 -1.3658 -0.9637  0.4167
17094SOL     OW52062   0.801   3.096   0.754 -0.0999  0.3943  0.1009
17094SOL    HW152063   0.721   3.135   0.718 -1.1795 -2.6615 -1.1675
17094SOL    HW252064   0.822   3.026   0.692  1.0494 -1.6892  2.6952
17095SOL     OW52065   5.850   5.857   3.084 -0.0380  0.7458 -0.7260
17095SOL    HW152066   5.893   5.897   3.159  0.5607 -0.0387 -0.6345
17095SOL    HW252067   5.756   5.860   3.105 -0.0436  2.3514 -0.8738
17096SOL     OW52068   8.159   3.956   3.685 -0.0475  0.1014  0.0968
17096SOL    HW152069   8.199   3.870   3.672 -0.8628 -0.7892  2.8016
17096SOL    HW252070   8.228   4.010   3.724 -0.0183  0.1821 -0.0632
17097SOL     OW52071   2.524   2.181   4.771 -0.0367 -0.5579 -0.0062
17097SOL    HW152072   2.552   2.234   4.697 -1.6241  0.0993 -0.1712
17097SOL    HW252073   2.605   2.162   4.819  0.7310  0.9069 -0.6522
17098SOL     OW52074   6.121   6.299   0.482 -0.4356 -0.1032  0.0399
17098SOL    HW152075   6.177   6.229   0.515  0.1456  0.9870  1.5253
17098SOL    HW252076   6.055   6.255   0.429  0.2145 -1.6951  0.4901
17099SOL     OW52077   7.357   7.921   5.213  0.4716  0.0659  0.3033
17099SOL    HW152078   7.338   7.994   5.272  0.1885  1.0116 -0.9148
17099SOL    HW252079   7.399   7.855   5.269  1.5749  1.5154  1.2555
17100SOL     OW52080   4.357   4.166   6.008 -0.1203  0.1421  0.1266
17100SOL    HW152081   4.412   4.214   5.946 -1.1826  0.3632 -0.6797
17100SOL    HW252082   4.330   4.088   5.960 -0.7130  0.1690  0.4122
17101SOL     OW52083   2.081   6.791   6.071  0.1740  0.2208  0.6167
17101SOL    HW152084   1.991   6.761   6.083  0.8833 -2.9446 -0.8986
17101SOL    HW252085   2.130   6.711   6.050  2.7313  2.2435 -1.8854
17102SOL     OW52086   6.654   5.298   8.164  0.3096 -0.6987 -0.1869
17102SOL    HW152087   6.608   5.354   8.227  0.0137  2.2762 -2.7733
17102SOL    HW252088   6.741   5.285   8.203 -0.1993  0.1144  1.3242
17103SOL     OW52089   6.133   8.093   2.719 -0.4913 -0.4539  0.3300
17103SOL    HW152090   6.117   8.075   2.812  0.4689  1.8385  0.9976
17103SOL    HW252091   6.165   8.010   2.684  1.0831 -0.8439  2.5232
17104SOL     OW52092   8.152   1.939   3.474 -0.7840 -0.2835  0.1208
17104SOL    HW152093   8.136   1.930   3.568 -0.6582 -0.5422  0.1175
17104SOL    HW252094   8.107   2.020   3.450 -3.8852 -1.9646 -0.2610
17105SOL     OW52095   4.998   6.699   7.558  0.2063  0.3669 -0.1879
17105SOL    HW152096   5.024   6.612   7.529  1.0084  0.6519 -0.3675
17105SOL    HW252097   4.986   6.691   7.653 -2.4749 -0.5784 -0.5282
17106SOL     OW52098   0.007   6.701   4.054  0.0721 -0.4211 -0.0335
17106SOL    HW152099   0.086   6.689   4.107 -0.4338 -0.2192  0.7816
17106SOL    HW252100   0.038   6.744   3.975  0.5007  1.6662  1.1949
17107SOL     OW52101   2.363   6.820   7.175 -0.0691  0.2074  0.6268
17107SOL    HW152102   2.385   6.792   7.086  0.3140  0.1507  0.7355
17107SOL    HW252103   2.388   6.912   7.177 -2.1817  0.8383 -0.0142
17108SOL     OW52104   2.153   6.747   1.735 -0.0171 -0.3098 -0.1397
17108SOL    HW152105   2.085   6.697   1.780 -0.6663 -0.2406 -1.0103
17108SOL    HW252106   2.112   6.774   1.652  1.2849 -0.8304 -0.9769
17109SOL     OW52107   2.128   4.397   1.180 -0.0874 -0.1193  0.1710
17109SOL    HW152108   2.164   4.485   1.197  1.9421 -1.0820  1.2231
17109SOL    HW252109   2.119   4.358   1.266 -2.1397 -0.5635 -0.2054
17110SOL     OW52110   2.385   7.360   6.328 -0.9537 -0.1061 -0.0998
17110SOL    HW152111   2.308   7.409   6.357 -1.2650  0.2780 -1.4887
17110SOL    HW252112   2.415   7.407   6.250  1.2304  0.2753  0.8955
17111SOL     OW52113   5.793   7.586   0.571 -0.1322  0.8667  0.0837
17111SOL    HW152114   5.830   7.580   0.483 -1.5046 -1.5570 -0.4394
17111SOL    HW252115   5.868   7.574   0.630  0.3976 -0.7776 -0.8597
17112SOL     OW52116   3.191   3.358   6.841  0.0892  0.1886 -0.1108
17112SOL    HW152117   3.161   3.366   6.751 -2.1996 -0.6307  0.5093
17112SOL    HW252118   3.253   3.285   6.839  0.6073  0.6339 -1.1121
17113SOL     OW52119   5.336   4.553   8.122  0.3408  0.1554 -0.0386
17113SOL    HW152120   5.259   4.535   8.069 -0.0284 -0.0027  0.5463
17113SOL    HW252121   5.407   4.564   8.059 -0.5424  2.4003 -0.7352
17114SOL     OW52122   8.206   3.281   6.657 -0.0644  0.6448  0.1434
17114SOL    HW152123   8.252   3.309   6.578  0.8540  0.5384  0.6270
17114SOL    HW252124   8.231   3.190   6.669 -1.2265  0.2695 -0.1456
17115SOL     OW52125   2.258   1.072   3.377 -0.4964 -0.2586  0.0256
17115SOL    HW152126   2.349   1.044   3.391 -0.4779 -1.6897 -2.3533
17115SOL    HW252127   2.214   1.051   3.459  0.3620 -4.0313 -0.2756
17116SOL     OW52128   3.035   0.529   5.246 -0.9586  0.5911 -0.1957
17116SOL    HW152129   3.004   0.617   5.267 -1.9893  0.1934  0.0338
17116SOL    HW252130   3.020   0.521   5.152 -0.1858  0.9048 -0.3560
17117SOL     OW52131   1.004   0.853   4.750  0.5013  0.4080  0.2670
17117SOL    HW152132   1.024   0.908   4.674  0.0038 -0.2937 -0.3891
17117SOL    HW252133   1.021   0.764   4.720 -1.0990 -0.0016  0.4924
17118SOL     OW52134   3.554   5.270   2.051  0.1276  0.0245  0.0791
17118SOL    HW152135   3.502   5.201   2.093  2.4330 -2.1692 -0.3786
17118SOL    HW252136   3.616   5.298   2.119 -1.1299  2.1553  0.4348
17119SOL     OW52137   3.374   1.881   2.016 -0.0876 -0.1346  0.0703
17119SOL    HW152138   3.330   1.814   2.068 -1.0163 -0.2046 -0.7824
17119SOL    HW252139   3.461   1.890   2.057  0.4835 -2.6290 -0.4312
17120SOL     OW52140   3.478   6.093   0.633 -0.1822 -0.2372 -0.0437
17120SOL    HW152141   3.544   6.160   0.618 -0.4673  0.5921  2.0521
17120SOL    HW252142   3.513   6.039   0.703 -0.7366 -1.2173 -0.4944
17121SOL     OW52143   2.123   1.573   6.276  0.9417 -0.2584  0.6553
17121SOL    HW152144   2.089   1.616   6.354  4.4703  1.1625  1.6406
17121SOL    HW252145   2.142   1.483   6.305 -0.1512 -0.5123  0.6204
17122SOL     OW52146   2.661   2.074   6.840  0.0915  0.6004  0.4962
17122SOL    HW152147   2.571   2.100   6.854  0.0344  0.1601  0.9865
17122SOL    HW252148   2.687   2.117   6.759 -1.2432 -0.9805 -0.8364
17123SOL     OW52149   5.775   1.397   1.206  0.4768 -0.3636 -0.4193
17123SOL    HW152150   5.801   1.447   1.285  2.2709  0.9934 -1.7651
17123SOL    HW252151   5.744   1.464   1.145 -1.1876 -1.4325 -0.8044
17124SOL     OW52152   5.785   5.385   6.774  1.0018 -0.4860 -0.0558
17124SOL    HW152153   5.822   5.452   6.832  0.2152  0.3381 -0.4861
17124SOL    HW252154   5.799   5.303   6.822  2.8316 -0.1611  0.0610
17125SOL     OW52155   4.435   5.654   1.038 -0.1548  0.4689 -0.2828
17125SOL    HW152156   4.458   5.568   1.073  2.0193  0.5583 -1.3015
17125SOL    HW252157   4.357   5.680   1.087 -2.4365 -3.1199 -1.5845
17126SOL     OW52158   2.916   6.745   5.290  0.1004 -0.2106  0.1513
17126SOL    HW152159   2.932   6.694   5.211  1.0736  1.6288 -0.8912
17126SOL    HW252160   2.906   6.679   5.359  0.7245 -1.8060 -1.2193
17127SOL     OW52161   1.756   7.709   1.423 -0.1937 -0.0619  0.3775
17127SOL    HW152162   1.787   7.737   1.337 -1.1000  0.5366  0.2284
17127SOL    HW252163   1.784   7.618   1.431  0.5954  0.1239 -0.2119
17128SOL     OW52164   8.040   6.823   2.583 -0.2881 -0.0025 -0.4084
17128SOL    HW152165   7.954   6.825   2.624  0.1966  0.8976  0.6202
17128SOL    HW252166   8.030   6.874   2.503 -1.0675 -1.1768 -1.0907
17129SOL     OW52167   2.046   2.896   2.304  0.2513 -0.2834 -0.6106
17129SOL    HW152168   2.031   2.820   2.247 -0.7143  0.2743 -1.1137
17129SOL    HW252169   1.962   2.941   2.308  0.8181  0.7902 -0.3526
17130SOL     OW52170   0.560   3.607   6.930 -0.0724 -0.1177 -0.2352
17130SOL    HW152171   0.628   3.560   6.979 -0.3654  0.1028  0.3849
17130SOL    HW252172   0.533   3.677   6.988 -0.5830  0.0125 -0.6282
17131SOL     OW52173   0.683   3.578   3.919 -0.4021 -0.3729  0.6665
17131SOL    HW152174   0.752   3.645   3.928 -1.3809  0.8782 -0.7327
17131SOL    HW252175   0.630   3.588   3.998  0.3233 -0.5191  1.1774
17132SOL     OW52176   7.596   1.682   1.444  0.0120 -0.5034  0.8200
17132SOL    HW152177   7.510   1.685   1.402  0.1356 -0.7871  0.5398
17132SOL    HW252178   7.599   1.760   1.499  0.1418  0.3254 -0.3082
17133SOL     OW52179   6.011   0.470   2.703 -0.0451  0.4373 -0.4442
17133SOL    HW152180   5.930   0.496   2.660 -0.5528 -1.1177 -0.4889
17133SOL    HW252181   6.038   0.390   2.657  1.1144  0.5232  0.0500
17134SOL     OW52182   0.813   4.740   1.504 -0.2601 -0.1224 -0.5486
17134SOL    HW152183   0.846   4.742   1.594  0.0866  1.7879 -0.6738
17134SOL    HW252184   0.891   4.731   1.449 -0.4758 -1.3491 -0.6759
17135SOL     OW52185   7.495   0.648   4.550 -0.4212 -0.3087 -0.3062
17135SOL    HW152186   7.412   0.692   4.534  0.5248  2.3832  1.5446
17135SOL    HW252187   7.504   0.647   4.646  1.0147 -1.9143 -0.3951
17136SOL     OW52188   4.154   7.480   7.617 -0.4181 -0.2324 -0.5553
17136SOL    HW152189   4.209   7.533   7.675 -0.5879  1.3419 -1.7784
17136SOL    HW252190   4.208   7.463   7.541 -0.6204 -1.2517 -0.4925
17137SOL     OW52191   2.435   5.117   1.723  0.2413  0.4664  0.1805
17137SOL    HW152192   2.495   5.175   1.769 -0.5161  1.0907  0.3888
17137SOL    HW252193   2.382   5.076   1.791  0.4180 -0.0911 -0.0028
17138SOL     OW52194   3.416   3.962   7.677 -0.3327 -0.2139  0.1108
17138SOL    HW152195   3.343   3.922   7.629 -1.5820  1.8872  0.1368
17138SOL    HW252196   3.374   4.010   7.748  1.1276  0.7326  0.3714
17139SOL     OW52197   3.126   1.483   2.412 -0.0978 -0.4732  0.2578
17139SOL    HW152198   3.090   1.568   2.388  0.7774  0.1350  1.0519
17139SOL    HW252199   3.177   1.500   2.491  0.8560 -1.5664 -0.1013
17140SOL     OW52200   2.902   3.640   6.129  0.1097 -0.3198  0.0004
17140SOL    HW152201   2.860   3.706   6.074 -2.0612 -2.3639 -0.9615
17140SOL    HW252202   2.901   3.677   6.217 -2.2631  0.4255 -0.2931
17141SOL     OW52203   2.807   3.713   2.849  0.2493  0.3847  0.2987
17141SOL    HW152204   2.844   3.627   2.868 -0.5836  0.1874  1.0870
17141SOL    HW252205   2.759   3.737   2.928  0.6504  1.6802  0.1671
17142SOL     OW52206   8.210   6.192   0.982 -0.4041  0.2253 -0.0002
17142SOL    HW152207   8.197   6.173   0.889 -1.4961 -0.6954  0.3060
17142SOL    HW252208   8.129   6.236   1.009 -0.4601 -0.2678  0.6830
17143SOL     OW52209   0.295   7.179   2.024 -0.4068  0.1918 -0.4512
17143SOL    HW152210   0.319   7.268   1.999 -1.2898  0.7054  0.4725
17143SOL    HW252211   0.230   7.153   1.959 -0.0650  0.1775 -0.7891
17144SOL     OW52212   5.953   3.256   5.589 -0.5749 -0.3102  0.0697
17144SOL    HW152213   5.914   3.328   5.540 -1.6086 -0.7319  0.2576
17144SOL    HW252214   6.042   3.286   5.608 -0.3920  0.1769 -1.4020
17145SOL     OW52215   3.613   4.232   1.699  0.1370 -0.5155 -0.6562
17145SOL    HW152216   3.683   4.269   1.646 -0.3775 -0.9503 -1.6525
17145SOL    HW252217   3.631   4.138   1.700 -1.4846 -0.8962 -2.5489
17146SOL     OW52218   4.845   3.128   6.699  0.0953 -0.2175  0.0302
17146SOL    HW152219   4.925   3.173   6.725  0.5559 -1.3768  0.6787
17146SOL    HW252220   4.808   3.183   6.630  1.1544  0.6270  0.1122
17147SOL     OW52221   7.232   2.899   3.664 -0.4832 -0.3297  0.3259
17147SOL    HW152222   7.183   2.933   3.738 -0.5501 -0.2785  0.2581
17147SOL    HW252223   7.320   2.935   3.675 -1.1503  1.9738 -1.1055
17148SOL     OW52224   5.029   1.199   3.610 -0.1306  0.0039 -0.3049
17148SOL    HW152225   5.033   1.244   3.695 -0.5647  1.2021 -0.8955
17148SOL    HW252226   4.984   1.261   3.552 -1.8401 -1.6624 -0.8683
17149SOL     OW52227   7.600   8.318   4.392 -0.0155  0.0523 -0.1734
17149SOL    HW152228   7.598   8.338   4.485  1.6006 -0.9051  0.1214
17149SOL    HW252229   7.692   8.332   4.366 -0.8772  2.6629 -2.2167
17150SOL     OW52230   4.129   1.559   6.864  0.1521  0.0007  0.4440
17150SOL    HW152231   4.035   1.576   6.865  0.3304  1.0557  0.5026
17150SOL    HW252232   4.164   1.609   6.938  0.7833 -0.2145  0.3041
17151SOL     OW52233   7.235   7.254   8.016 -0.1843 -0.7625  0.2903
17151SOL    HW152234   7.264   7.164   8.002  0.8852 -0.3628 -0.2080
17151SOL    HW252235   7.178   7.249   8.092  0.9959 -1.6569  1.1675
17152SOL     OW52236   5.961   1.757   6.981 -0.1784  0.8710 -0.0137
17152SOL    HW152237   5.884   1.803   7.017 -0.3427  0.0886  0.6502
17152SOL    HW252238   6.012   1.827   6.940 -0.8438  1.5290  0.2372
17153SOL     OW52239   0.302   1.816   5.196  0.0060 -0.0501 -0.0706
17153SOL    HW152240   0.316   1.780   5.283 -1.1583 -2.4614 -0.7937
17153SOL    HW252241   0.282   1.740   5.141 -0.5407  1.5086 -2.1837
17154SOL     OW52242   5.759   2.166   0.697 -0.2648 -0.0624  0.4153
17154SOL    HW152243   5.834   2.114   0.668 -0.8456  0.1764 -1.7263
17154SOL    HW252244   5.691   2.148   0.631 -1.2392  1.6403  0.8935
17155SOL     OW52245   4.753   0.162   6.019 -0.6061  0.0959  0.1235
17155SOL    HW152246   4.665   0.126   6.031 -0.6712  0.6917  1.7168
17155SOL    HW252247   4.752   0.244   6.069  1.3404 -0.7141  1.6274
17156SOL     OW52248   5.991   7.397   0.903  0.3601  0.2772 -0.6469
17156SOL    HW152249   6.026   7.310   0.921  2.0528  0.9355 -0.6407
17156SOL    HW252250   5.896   7.383   0.898  0.3619 -1.1908  1.5620
17157SOL     OW52251   5.300   0.781   0.807  0.1618  0.5177  0.1961
17157SOL    HW152252   5.335   0.817   0.889  0.1805  0.7018  0.1071
17157SOL    HW252253   5.371   0.725   0.774  0.1783  0.4918  0.2746
17158SOL     OW52254   6.596   6.592   5.149 -0.0527 -0.3529  0.8166
17158SOL    HW152255   6.636   6.528   5.090  1.9274 -0.4738  2.1953
17158SOL    HW252256   6.657   6.666   5.147 -0.1297 -0.2220  2.4166
17159SOL     OW52257   2.423   1.848   1.889  0.1612 -0.3567  0.3530
17159SOL    HW152258   2.398   1.907   1.960  0.2168 -0.7811  0.7264
17159SOL    HW252259   2.342   1.831   1.842 -0.0603 -0.8633  0.9088
17160SOL     OW52260   2.163   0.351   0.755  0.1790  0.0614 -0.2203
17160SOL    HW152261   2.225   0.330   0.685  0.1134 -0.8317 -0.0153
17160SOL    HW252262   2.084   0.301   0.733 -0.3227  0.8389 -0.2382
17161SOL     OW52263   6.461   3.994   5.379 -0.3129 -0.3669 -0.2901
17161SOL    HW152264   6.369   4.015   5.365 -0.3583  2.0166  2.6189
17161SOL    HW252265   6.503   4.078   5.398  1.8471 -1.6810  1.3321
17162SOL     OW52266   1.675   7.792   8.208  0.5073  0.7120  0.1729
17162SOL    HW152267   1.751   7.830   8.163  0.9554  0.3024  0.5688
17162SOL    HW252268   1.668   7.704   8.172 -0.7333  1.2548 -0.9860
17163SOL     OW52269   3.970   5.296   4.527 -0.3598  0.2058 -0.2519
17163SOL    HW152270   4.045   5.295   4.587 -0.0418 -0.6279 -0.6511
17163SOL    HW252271   3.932   5.383   4.538  0.6174  0.6136  0.0203
17164SOL     OW52272   7.011   2.739   1.649  0.1401 -0.0935 -0.0544
17164SOL    HW152273   7.099   2.715   1.621 -0.0216 -1.6968  0.6406
17164SOL    HW252274   6.964   2.760   1.568  1.3971  1.7248 -0.3434
17165SOL     OW52275   8.183   1.382   4.764  0.1567 -0.0029  0.3955
17165SOL    HW152276   8.150   1.458   4.811 -1.9884 -1.1744  0.9230
17165SOL    HW252277   8.276   1.399   4.753 -0.3249  2.9330 -0.0040
17166SOL     OW52278   0.694   6.349   4.392  0.6055 -0.4339  0.0589
17166SOL    HW152279   0.654   6.436   4.388  1.3373 -0.0577  0.7472
17166SOL    HW252280   0.664   6.305   4.313 -1.7684 -0.4305  0.8745
17167SOL     OW52281   5.599   4.217   3.163 -0.1385 -0.0279 -0.2029
17167SOL    HW152282   5.668   4.188   3.103 -0.4256 -0.9802 -0.0904
17167SOL    HW252283   5.588   4.310   3.143  0.4898 -0.0894 -0.9080
17168SOL     OW52284   1.040   4.282   2.804  0.5438 -0.2071 -0.1451
17168SOL    HW152285   1.091   4.355   2.839  1.2955 -1.4135  1.3735
17168SOL    HW252286   1.075   4.268   2.716 -0.8257  2.3637 -1.1997
17169SOL     OW52287   0.783   0.927   3.801 -0.2053 -0.1743  0.2887
17169SOL    HW152288   0.711   0.989   3.788  0.0412  0.3642  1.3582
17169SOL    HW252289   0.744   0.841   3.784 -0.8763  0.1720  0.0263
17170SOL     OW52290   6.112   5.509   5.786 -0.0865  0.3650  0.6134
17170SOL    HW152291   6.149   5.574   5.847 -0.3015 -0.8694  2.1269
17170SOL    HW252292   6.020   5.536   5.776 -0.1686  0.3403  1.2146
17171SOL     OW52293   2.185   7.730   0.337 -0.3111  0.2341 -0.1855
17171SOL    HW152294   2.183   7.824   0.355 -0.2702  0.2608 -0.3235
17171SOL    HW252295   2.275   7.704   0.360 -0.6981 -0.0205  1.1246
17172SOL     OW52296   7.538   2.483   2.690  0.4944  0.0492  0.4412
17172SOL    HW152297   7.617   2.430   2.698  1.2421  1.1532  0.7492
17172SOL    HW252298   7.494   2.451   2.611  2.2043  0.6198 -0.7936
17173SOL     OW52299   4.527   5.188   2.043 -0.1916  0.1099 -0.6290
17173SOL    HW152300   4.563   5.103   2.017 -1.7262 -0.7471 -0.1052
17173SOL    HW252301   4.587   5.252   2.007  1.0078 -1.2026 -1.0495
17174SOL     OW52302   0.572   6.223   1.919 -0.2525  0.0128  0.2824
17174SOL    HW152303   0.639   6.291   1.929 -0.4673  0.3301 -0.4053
17174SOL    HW252304   0.497   6.268   1.882 -0.4320 -0.5838 -0.0914
17175SOL     OW52305   6.500   3.599   1.070 -0.3441 -0.1147 -0.4267
17175SOL    HW152306   6.457   3.518   1.041  0.1607 -0.1970 -0.9621
17175SOL    HW252307   6.428   3.661   1.081 -0.8046 -0.7923  0.5788
17176SOL     OW52308   7.289   7.928   7.650 -0.1126 -0.4873 -0.0063
17176SOL    HW152309   7.232   8.004   7.635  0.8779  0.5457  1.1708
17176SOL    HW252310   7.300   7.925   7.745  0.3326 -1.7709 -0.0801
17177SOL     OW52311   0.139   4.705   4.066  0.5774 -0.1542  0.4044
17177SOL    HW152312   0.148   4.623   4.114 -0.0899 -1.0782 -0.9819
17177SOL    HW252313   0.208   4.702   4.000  0.1492  0.0873 -0.0657
17178SOL     OW52314   5.300   7.302   4.481  0.4320 -0.1082 -0.7343
17178SOL    HW152315   5.391   7.273   4.473  0.8360  0.9362 -0.2011
17178SOL    HW252316   5.306   7.398   4.489 -0.6575 -0.0776  0.0069
17179SOL     OW52317   1.635   1.678   0.456 -0.0331 -0.4896  0.7610
17179SOL    HW152318   1.688   1.612   0.501 -1.5850 -0.9937  1.9348
17179SOL    HW252319   1.682   1.760   0.469  1.0273 -1.0785  0.7792
17180SOL     OW52320   3.923   0.729   4.668 -0.4433 -0.3856  0.4386
17180SOL    HW152321   3.960   0.812   4.639  0.5326 -1.1394 -0.5587
17180SOL    HW252322   3.902   0.683   4.587  0.0146 -1.5418  0.9551
17181SOL     OW52323   1.442   3.059   0.429 -0.3094 -0.8356  0.8880
17181SOL    HW152324   1.377   3.128   0.417  1.1989  0.7904  1.4366
17181SOL    HW252325   1.397   2.978   0.408 -1.8357  0.4258 -1.0751
17182SOL     OW52326   7.422   4.226   2.929 -0.0035 -0.0151  0.1916
17182SOL    HW152327   7.409   4.135   2.902 -0.6204  0.4320 -1.1049
17182SOL    HW252328   7.511   4.228   2.965 -0.1459 -1.2142  0.6474
17183SOL     OW52329   2.279   5.417   1.245 -0.1474 -0.2518 -0.3827
17183SOL    HW152330   2.256   5.328   1.269  0.7395 -0.3023  0.3636
17183SOL    HW252331   2.293   5.461   1.329  1.5220 -0.0019 -0.7506
17184SOL     OW52332   0.145   5.650   6.761 -0.3775  0.3964 -0.6585
17184SOL    HW152333   0.063   5.672   6.805 -0.1378 -0.9468  0.5053
17184SOL    HW252334   0.128   5.566   6.719  0.8016 -0.5924  0.7641
17185SOL     OW52335   7.535   5.244   5.153 -0.1581 -0.1359 -0.0999
17185SOL    HW152336   7.449   5.209   5.131 -0.5934  1.3399 -0.8957
17185SOL    HW252337   7.565   5.190   5.226 -1.5385 -1.0032 -0.1404
17186SOL     OW52338   2.279   6.911   4.578  0.0817 -0.6316  0.1803
17186SOL    HW152339   2.253   6.849   4.510  0.4924  0.0310 -0.6000
17186SOL    HW252340   2.365   6.942   4.551 -1.3594  2.6324 -1.1882
17187SOL     OW52341   3.708   4.938   5.252  0.4187  0.2710  0.1807
17187SOL    HW152342   3.617   4.912   5.236  0.3331  0.6081  0.1122
17187SOL    HW252343   3.745   4.865   5.302 -0.1715  0.5721  1.0752
17188SOL     OW52344   0.576   7.066   4.203  0.1829  0.0919 -0.9625
17188SOL    HW152345   0.638   7.137   4.220  0.2060 -0.1464  0.0011
17188SOL    HW252346   0.621   6.988   4.236 -0.8099 -0.0171  0.1880
17189SOL     OW52347   3.325   3.755   1.955 -0.3497 -0.0819 -0.0746
17189SOL    HW152348   3.289   3.828   1.905 -2.3242 -1.1694 -0.3286
17189SOL    HW252349   3.355   3.795   2.037 -1.3347  1.0404 -0.2407
17190SOL     OW52350   7.479   6.482   7.648  0.2113  0.0204  0.7273
17190SOL    HW152351   7.541   6.412   7.629  0.3036  0.2619  0.1253
17190SOL    HW252352   7.501   6.552   7.587 -1.9970 -0.6798 -1.0168
17191SOL     OW52353   0.892   3.940   2.122  0.3448  0.0450  0.2883
17191SOL    HW152354   0.982   3.924   2.093  0.3255  0.7554 -0.1933
17191SOL    HW252355   0.868   4.022   2.079 -0.1337  0.4671  1.3329
17192SOL     OW52356   4.412   6.022   4.449 -0.2485 -0.0694  0.1670
17192SOL    HW152357   4.393   6.116   4.438 -0.5564 -0.2306 -0.8492
17192SOL    HW252358   4.381   5.983   4.367 -2.5644 -1.4501  1.5876
17193SOL     OW52359   0.963   1.784   4.321  0.2300 -0.2825  0.1345
17193SOL    HW152360   0.888   1.775   4.262  0.5922 -0.8400 -0.2486
17193SOL    HW252361   0.929   1.833   4.396 -0.1497  0.7647 -0.6997
17194SOL     OW52362   0.401   0.070   7.934  0.3607  0.4299 -0.1848
17194SOL    HW152363   0.464   0.035   7.871  1.0338  0.5973  0.3928
17194SOL    HW252364   0.437   0.154   7.961  1.6861 -0.9244  2.6890
17195SOL     OW52365   8.142   5.949   4.232  0.5332  0.6323 -0.4645
17195SOL    HW152366   8.223   5.985   4.198  1.3579  0.4892  1.2415
17195SOL    HW252367   8.131   5.866   4.184  2.0749  0.0422  0.1253
17196SOL     OW52368   2.943   5.183   3.142  0.0135 -0.6494  0.3506
17196SOL    HW152369   3.031   5.147   3.131 -0.3136 -0.7203 -2.7229
17196SOL    HW252370   2.954   5.277   3.127 -0.2015 -0.3394  1.8904
17197SOL     OW52371   2.511   5.931   6.423  0.0435  0.0398 -0.5507
17197SOL    HW152372   2.475   5.885   6.498  3.3074 -0.6752  0.7063
17197SOL    HW252373   2.440   5.990   6.395 -1.5637 -0.2191  2.5637
17198SOL     OW52374   8.106   4.548   3.687 -0.5994 -0.0962  0.1372
17198SOL    HW152375   8.015   4.532   3.665 -0.5714 -1.2706  0.7950
17198SOL    HW252376   8.148   4.462   3.682  0.5962  0.5048 -0.6657
17199SOL     OW52377   6.677   7.962   7.717 -0.1895  0.0125 -0.2291
17199SOL    HW152378   6.675   7.866   7.714  0.5603  0.0082 -1.0524
17199SOL    HW252379   6.585   7.987   7.721 -0.3995 -0.7388 -0.0366
17200SOL     OW52380   1.643   5.024   7.011 -0.4448  0.4020  0.1180
17200SOL    HW152381   1.595   4.954   7.054 -1.4142  0.6966 -0.4640
17200SOL    HW252382   1.604   5.105   7.044  0.0421  0.6605  0.0774
17201SOL     OW52383   0.663   3.148   6.252  0.3842 -0.7190  0.2658
17201SOL    HW152384   0.669   3.216   6.186 -0.1742 -0.3752  0.5508
17201SOL    HW252385   0.723   3.079   6.223  0.5612 -0.3307 -0.2965
17202SOL     OW52386   6.800   7.441   5.428 -0.1911 -0.6491 -0.1518
17202SOL    HW152387   6.764   7.416   5.343  0.3882 -0.9409 -0.3169
17202SOL    HW252388   6.726   7.477   5.476 -0.5617 -0.6557 -0.7146
17203SOL     OW52389   5.003   1.932   6.938  0.0892  0.0028  0.7133
17203SOL    HW152390   5.045   1.881   6.870  0.9295  3.1494 -1.3570
17203SOL    HW252391   4.909   1.925   6.920  0.0753 -1.7451  1.2934
17204SOL     OW52392   2.015   6.044   8.101  0.1752  0.1559 -0.6226
17204SOL    HW152393   1.970   6.126   8.122 -0.0152 -0.1029  0.0084
17204SOL    HW252394   2.063   6.063   8.021 -1.3183  0.3520 -1.5100
17205SOL     OW52395   7.951   6.186   6.710  0.4024 -0.1988  0.4706
17205SOL    HW152396   7.938   6.095   6.734  1.6290 -0.5209  0.0186
17205SOL    HW252397   7.887   6.203   6.641  1.1965 -1.2021 -0.5542
17206SOL     OW52398   7.313   3.117   0.976  0.0241  0.0387 -0.4832
17206SOL    HW152399   7.385   3.149   1.031 -0.7463  2.7551 -0.8950
17206SOL    HW252400   7.258   3.067   1.036  0.4592  0.9065  0.6866
17207SOL     OW52401   2.180   2.195   1.739  0.0777 -0.0777  0.2631
17207SOL    HW152402   2.181   2.217   1.646  0.5836 -0.5599  0.1517
17207SOL    HW252403   2.268   2.216   1.769  0.2137 -0.8316  0.4154
17208SOL     OW52404   6.373   2.695   1.361  0.4220  0.1240 -0.2958
17208SOL    HW152405   6.405   2.611   1.395 -2.0792 -1.2137 -0.9565
17208SOL    HW252406   6.342   2.674   1.273 -1.2246  1.5013 -0.0862
17209SOL     OW52407   6.658   2.909   7.484 -0.3991  0.3987 -0.4374
17209SOL    HW152408   6.749   2.924   7.461 -0.3959 -0.9851 -1.3966
17209SOL    HW252409   6.614   2.892   7.401 -1.4335  0.5290  0.0622
17210SOL     OW52410   6.189   0.676   2.551  0.0787  0.0279  0.8593
17210SOL    HW152411   6.140   0.640   2.625 -3.1265  0.2392 -0.9617
17210SOL    HW252412   6.145   0.639   2.473  0.5009  3.1051 -0.9891
17211SOL     OW52413   5.373   1.155   6.598  0.2997 -0.2413 -0.1859
17211SOL    HW152414   5.441   1.089   6.582  0.8303 -0.0688  1.2289
17211SOL    HW252415   5.414   1.216   6.659 -0.9917  0.1162  0.3348
17212SOL     OW52416   3.408   3.757   4.181 -0.1974  0.1351  0.5199
17212SOL    HW152417   3.494   3.795   4.196  0.5148 -1.1530 -0.1595
17212SOL    HW252418   3.398   3.690   4.249 -0.9660  0.7192  1.0108
17213SOL     OW52419   4.442   5.534   4.663 -0.3638  0.1059 -0.4177
17213SOL    HW152420   4.516   5.490   4.622 -0.4611  0.1467 -0.6358
17213SOL    HW252421   4.377   5.543   4.593 -0.7159 -0.2466 -0.1435
17214SOL     OW52422   2.711   4.315   7.354 -0.0582  0.2099 -0.2573
17214SOL    HW152423   2.677   4.242   7.406  2.9598 -0.4742  0.9970
17214SOL    HW252424   2.731   4.383   7.418 -2.0240  1.9053 -1.3231
17215SOL     OW52425   8.130   0.941   2.291 -0.4485 -0.0300 -0.6697
17215SOL    HW152426   8.177   0.927   2.373 -0.6293 -0.0934 -0.5761
17215SOL    HW252427   8.160   0.872   2.233  0.5975  0.7338 -1.0642
17216SOL     OW52428   7.317   0.426   7.573 -0.0213 -0.0261  0.7624
17216SOL    HW152429   7.360   0.504   7.609 -2.9554  1.7559  0.7327
17216SOL    HW252430   7.274   0.385   7.647  2.0649 -2.1843  0.9155
17217SOL     OW52431   8.164   0.947   3.376  0.3347 -0.1118 -0.2366
17217SOL    HW152432   8.174   1.031   3.333  0.3088  0.2894  0.5261
17217SOL    HW252433   8.118   0.892   3.313  0.0150  0.5590 -0.5867
17218SOL     OW52434   0.440   0.873   3.662 -0.5707  0.1501  0.5901
17218SOL    HW152435   0.432   0.874   3.567 -2.2665  0.2420  0.6979
17218SOL    HW252436   0.518   0.820   3.680 -1.0946 -1.1515 -0.8026
17219SOL     OW52437   2.236   6.815   7.688  0.3757  0.1865  0.5305
17219SOL    HW152438   2.170   6.884   7.684 -0.0223 -0.1467  1.2664
17219SOL    HW252439   2.309   6.850   7.637 -1.0863 -0.2544 -2.0684
17220SOL     OW52440   5.435   2.432   7.294 -0.1734 -0.3720 -0.3038
17220SOL    HW152441   5.448   2.358   7.353  1.0799  1.3443  1.7274
17220SOL    HW252442   5.394   2.500   7.348 -0.5941  0.6860 -1.8814
17221SOL     OW52443   0.040   5.833   4.589  0.3835 -0.3521  0.3715
17221SOL    HW152444   0.082   5.803   4.509  0.0121 -0.5273  0.2415
17221SOL    HW252445   0.101   5.899   4.624  0.0829  0.4455 -0.5608
17222SOL     OW52446   7.364   2.998   3.130  0.3594  0.0098 -0.2007
17222SOL    HW152447   7.442   2.968   3.177 -0.6959  1.1042  2.4437
17222SOL    HW252448   7.356   3.090   3.154 -2.6274 -0.4453  1.0765
17223SOL     OW52449   3.454   2.152   7.868 -0.0619  0.4242 -0.7069
17223SOL    HW152450   3.398   2.087   7.910 -0.5861  1.3742  0.0944
17223SOL    HW252451   3.441   2.138   7.774 -1.2813  0.3239 -0.5334
17224SOL     OW52452   5.692   8.020   1.441 -0.3005  0.5030 -0.3896
17224SOL    HW152453   5.598   8.002   1.437 -0.0954 -0.7898  0.1203
17224SOL    HW252454   5.732   7.934   1.450  1.0438  0.9079 -2.1104
17225SOL     OW52455   5.576   5.587   0.642  0.1503  0.3496  0.9848
17225SOL    HW152456   5.588   5.655   0.575 -0.6945 -0.8844 -0.4854
17225SOL    HW252457   5.503   5.618   0.695  0.2159  0.9025  0.7559
17226SOL     OW52458   1.541   6.351   4.683 -0.3889 -0.2097 -0.3971
17226SOL    HW152459   1.513   6.442   4.672 -0.1365 -0.0702  0.0575
17226SOL    HW252460   1.475   6.313   4.742 -0.4306 -0.2915 -0.4957
17227SOL     OW52461   1.626   0.122   7.117  0.2250  0.1516 -0.4575
17227SOL    HW152462   1.593   0.197   7.167  2.1856  1.1033 -0.5162
17227SOL    HW252463   1.585   0.132   7.031  0.6511  1.3211 -0.5483
17228SOL     OW52464   0.442   4.648   2.449 -0.3336  0.2632 -0.3245
17228SOL    HW152465   0.430   4.588   2.523 -3.3625  0.3599 -0.6192
17228SOL    HW252466   0.495   4.598   2.387 -0.1912 -0.9223  0.7056
17229SOL     OW52467   3.291   1.541   6.632  0.0891 -0.1896 -0.3580
17229SOL    HW152468   3.272   1.469   6.571 -0.5434 -0.0041 -0.3852
17229SOL    HW252469   3.228   1.609   6.610 -0.4551 -0.2928  0.7982
17230SOL     OW52470   2.227   5.105   6.502 -0.5198 -0.4768  0.0964
17230SOL    HW152471   2.144   5.109   6.548 -0.2398  1.3625  0.5376
17230SOL    HW252472   2.292   5.133   6.567  0.1824 -0.0823 -0.7514
17231SOL     OW52473   0.319   1.131   2.695 -0.0996  0.6588 -0.0525
17231SOL    HW152474   0.393   1.185   2.667  1.6765 -0.0406  2.8225
17231SOL    HW252475   0.331   1.048   2.649  0.4529  0.8333 -0.2310
17232SOL     OW52476   3.450   7.555   1.468  0.4241  0.6162 -0.3749
17232SOL    HW152477   3.441   7.641   1.509  0.5290  0.8160 -0.7590
17232SOL    HW252478   3.534   7.522   1.501 -0.0086  0.2909  0.4280
17233SOL     OW52479   2.630   1.849   6.123 -0.1604  0.3682 -0.2296
17233SOL    HW152480   2.680   1.920   6.082  0.7203  0.2464  0.5986
17233SOL    HW252481   2.648   1.858   6.216  2.5688 -2.7802 -0.2664
17234SOL     OW52482   0.257   7.903   1.523  0.5323 -0.1695  1.0551
17234SOL    HW152483   0.259   7.870   1.613 -1.4870 -1.2106  0.7695
17234SOL    HW252484   0.334   7.864   1.481 -0.0886 -2.0300  1.5829
17235SOL     OW52485   0.796   0.041   6.218 -0.5804  0.0864  0.0883
17235SOL    HW152486   0.783   0.090   6.299  0.7987 -1.3829  1.2747
17235SOL    HW252487   0.821  -0.047   6.247 -1.4682 -0.9092 -1.9498
17236SOL     OW52488   0.524   5.337   7.630 -0.0135  0.1925  0.2130
17236SOL    HW152489   0.565   5.283   7.698 -1.0060 -2.1620 -0.9574
17236SOL    HW252490   0.430   5.320   7.639 -0.3255  1.5136 -0.3994
17237SOL     OW52491   1.017   4.195   8.046 -0.0628 -0.0531  0.5544
17237SOL    HW152492   1.112   4.207   8.056 -0.2748  1.5068  0.9280
17237SOL    HW252493   0.979   4.275   8.080 -1.5472 -0.7318  0.5662
17238SOL     OW52494   6.655   4.732   7.977  0.2410  0.4233  0.0098
17238SOL    HW152495   6.618   4.741   7.890  0.2396  0.4963  0.0186
17238SOL    HW252496   6.614   4.653   8.013 -0.2178  0.7422  0.1829
17239SOL     OW52497   3.002   0.078   5.783 -0.3546 -0.0362  0.6099
17239SOL    HW152498   2.983   0.155   5.836 -0.9314 -0.0135  0.3797
17239SOL    HW252499   2.934   0.015   5.807 -0.0031 -0.4025  0.6553
17240SOL     OW52500   6.338   6.006   7.819 -0.3263  0.0403  0.6558
17240SOL    HW152501   6.408   5.998   7.753 -0.1758 -0.0046  0.8208
17240SOL    HW252502   6.265   5.956   7.782 -0.7092  1.1439 -0.1060
17241SOL     OW52503   7.538   5.869   6.220  0.1185  0.1943  0.4942
17241SOL    HW152504   7.624   5.841   6.189 -0.2177  1.6297 -1.9608
17241SOL    HW252505   7.478   5.804   6.185 -0.2829  1.9162 -2.3181
17242SOL     OW52506   3.935   7.454   2.845  0.2993 -0.3495 -0.0574
17242SOL    HW152507   3.864   7.511   2.815 -0.6031 -2.0737 -1.3728
17242SOL    HW252508   4.009   7.477   2.789 -0.0683 -0.4827 -0.6065
17243SOL     OW52509   0.937   0.147   6.512  0.1946 -0.3953 -0.5035
17243SOL    HW152510   0.923   0.071   6.568  1.1424  0.0060  0.3284
17243SOL    HW252511   1.031   0.164   6.519  0.2636 -0.0945 -1.9259
17244SOL     OW52512   7.356   2.397   2.181  0.2782  0.3393  0.4462
17244SOL    HW152513   7.406   2.464   2.136  0.3290 -0.4727 -0.7591
17244SOL    HW252514   7.266   2.407   2.149 -0.2321  1.3375  2.0675
17245SOL     OW52515   5.562   2.270   1.021  0.0766 -0.0423 -0.1235
17245SOL    HW152516   5.575   2.307   0.934 -1.1180 -0.2915 -0.4311
17245SOL    HW252517   5.472   2.295   1.044  0.2419 -0.3145  0.8688
17246SOL     OW52518   3.765   0.117   4.733 -0.1869  0.2393 -0.4938
17246SOL    HW152519   3.676   0.126   4.767 -0.1485  2.4967 -0.8125
17246SOL    HW252520   3.809   0.060   4.795 -0.7186  2.4762  2.1314
17247SOL     OW52521   7.141   0.840   1.750 -0.3107 -0.3681  0.4407
17247SOL    HW152522   7.216   0.794   1.715  1.3577  2.1171  0.4636
17247SOL    HW252523   7.097   0.876   1.673 -0.1159  0.0849  0.5339
17248SOL     OW52524   1.086   2.027   3.134  0.0183  0.6358  0.0674
17248SOL    HW152525   1.023   2.022   3.206 -0.0021 -1.2191 -0.0378
17248SOL    HW252526   1.169   1.998   3.172  0.0929  0.0144 -0.5516
17249SOL     OW52527   0.948   0.415   5.966 -0.2483 -0.3317  0.2155
17249SOL    HW152528   0.904   0.473   5.903 -0.6755 -0.3077  0.5318
17249SOL    HW252529   0.891   0.339   5.972 -0.4278 -0.1514  0.8902
17250SOL     OW52530   1.462   6.233   4.028  0.2550  0.1639  0.8430
17250SOL    HW152531   1.393   6.168   4.010 -0.1929  1.1084 -1.1404
17250SOL    HW252532   1.466   6.286   3.949  2.1115  1.2238  1.5818
17251SOL     OW52533   1.427   6.582   4.690  0.2488  0.1481 -0.0366
17251SOL    HW152534   1.420   6.635   4.610 -0.8095  0.3504  0.1696
17251SOL    HW252535   1.336   6.572   4.719  0.4328 -1.7263 -0.0211
17252SOL     OW52536   0.417   0.056   0.373 -0.1197 -0.0972  0.2494
17252SOL    HW152537   0.359   0.045   0.298  0.8218  1.1584 -0.7174
17252SOL    HW252538   0.411   0.150   0.393  1.0144 -0.0845  0.5753
17253SOL     OW52539   0.728   7.418   1.514 -0.4014  0.0198 -0.6776
17253SOL    HW152540   0.800   7.481   1.510  0.7043 -1.0834  0.6133
17253SOL    HW252541   0.661   7.461   1.567  1.6708 -0.9677  3.1464
17254SOL     OW52542   1.183   0.633   8.270 -0.1667  0.2663  0.2360
17254SOL    HW152543   1.165   0.588   8.187 -1.3025  0.2024  0.4992
17254SOL    HW252544   1.187   0.726   8.248 -1.1655  0.3097  0.2082
17255SOL     OW52545   4.832   2.942   4.971 -0.0382  0.1425  0.0343
17255SOL    HW152546   4.753   2.907   5.012  0.8027 -0.4729  1.1936
17255SOL    HW252547   4.830   2.907   4.882 -0.6464 -0.5573  0.3067
17256SOL     OW52548   8.233   4.444   0.167  0.0621 -0.1663 -0.0047
17256SOL    HW152549   8.263   4.359   0.197 -0.5879 -0.4460 -0.1443
17256SOL    HW252550   8.139   4.434   0.152  0.3324 -0.0624 -2.1493
17257SOL     OW52551   1.807   3.070   3.125  0.2500  0.0605  0.8300
17257SOL    HW152552   1.741   3.078   3.057  0.6997  0.9142  0.4808
17257SOL    HW252553   1.820   2.976   3.135 -0.5306 -0.0941  0.4326
17258SOL     OW52554   1.833   2.024   6.437  0.5626  0.3259  0.5924
17258SOL    HW152555   1.852   1.935   6.408 -0.0325 -0.0030  1.1780
17258SOL    HW252556   1.916   2.070   6.427  0.3478  0.3184 -1.8361
17259SOL     OW52557   6.323   3.014   0.107 -0.2457 -0.6023 -0.2790
17259SOL    HW152558   6.315   2.929   0.149 -0.3754  0.3028  1.6561
17259SOL    HW252559   6.259   3.012   0.036 -1.8936 -1.3567  1.1489
17260SOL     OW52560   4.277   1.420   1.312  0.2885 -0.1571  0.4822
17260SOL    HW152561   4.309   1.499   1.355  2.9831 -0.2388 -1.1433
17260SOL    HW252562   4.353   1.385   1.266 -1.8631 -1.1797 -2.6525
17261SOL     OW52563   3.265   3.988   5.640 -0.4278 -0.2909  0.5365
17261SOL    HW152564   3.330   4.025   5.581 -0.6965 -0.5833  0.0505
17261SOL    HW252565   3.183   4.033   5.618 -0.4656 -0.1797  0.8993
17262SOL     OW52566   5.007   0.919   7.080 -0.7189  0.1285 -0.1408
17262SOL    HW152567   4.916   0.929   7.051 -1.2643 -2.4227  0.4420
17262SOL    HW252568   5.023   0.995   7.135 -2.2937  0.9442 -0.7492
17263SOL     OW52569   1.296   0.988   1.819  0.2552 -0.6023 -0.2185
17263SOL    HW152570   1.335   0.902   1.836  1.6950 -0.3486 -1.9479
17263SOL    HW252571   1.358   1.050   1.856 -0.3746 -0.2637  0.2905
17264SOL     OW52572   7.945   5.194   2.645  0.0528 -0.6676  0.0879
17264SOL    HW152573   8.003   5.259   2.607 -1.3323  0.2429 -0.5462
17264SOL    HW252574   7.866   5.243   2.669 -0.4630 -1.8558  0.9130
17265SOL     OW52575   5.077   2.570   2.109 -0.6409 -0.2288  0.5016
17265SOL    HW152576   5.048   2.485   2.076 -1.3309 -0.1961  0.9906
17265SOL    HW252577   5.125   2.609   2.036  0.4143 -1.3811  0.5440
17266SOL     OW52578   3.304   0.551   4.292  0.4890 -0.2953  0.2321
17266SOL    HW152579   3.255   0.468   4.295  0.7657 -0.4830 -0.3077
17266SOL    HW252580   3.357   0.545   4.212  1.2220 -0.0008  0.6807
17267SOL     OW52581   7.383   2.522   0.716 -0.2643 -0.3723 -0.4735
17267SOL    HW152582   7.454   2.566   0.669 -0.4920 -0.1941 -0.6504
17267SOL    HW252583   7.324   2.593   0.743 -0.0522 -0.4481  0.2290
17268SOL     OW52584   4.521   7.048   5.881 -0.0783 -0.0519 -0.0406
17268SOL    HW152585   4.555   7.097   5.956 -0.2118  0.3413 -0.2352
17268SOL    HW252586   4.430   7.028   5.905  0.2614 -1.0569  0.4561
17269SOL     OW52587   1.640   7.104   8.297  0.1023  0.0278 -0.3540
17269SOL    HW152588   1.603   7.104   8.209  1.2132  0.6922 -0.8485
17269SOL    HW252589   1.709   7.038   8.295  0.0720 -0.0201  0.0432
17270SOL     OW52590   1.046   6.105   3.527 -0.0473  0.2770 -0.4365
17270SOL    HW152591   1.071   6.156   3.451 -0.4841  0.5333 -0.4098
17270SOL    HW252592   1.065   6.162   3.602 -0.4670  0.3796 -0.4035
17271SOL     OW52593   0.187   0.847   3.794  0.0648  0.7363  0.1443
17271SOL    HW152594   0.118   0.865   3.730  1.6051  0.9951 -1.5484
17271SOL    HW252595   0.268   0.861   3.745  1.3320 -0.9763  1.6328
17272SOL     OW52596   5.204   2.993   4.897 -0.0953 -0.1142 -0.5696
17272SOL    HW152597   5.233   3.061   4.836 -0.0103 -0.5979 -1.0778
17272SOL    HW252598   5.265   2.921   4.884  0.6349  0.1920  0.9178
17273SOL     OW52599   4.479   4.156   0.578  0.2804  0.2016 -0.1036
17273SOL    HW152600   4.540   4.225   0.551  0.4588 -0.2744 -0.9676
17273SOL    HW252601   4.533   4.093   0.626  0.1759  0.5040  0.4179
17274SOL     OW52602   5.216   2.978   2.872 -0.4159 -0.2774 -0.5238
17274SOL    HW152603   5.151   3.031   2.826 -1.7560 -2.0603 -0.7598
17274SOL    HW252604   5.300   3.010   2.840 -1.0365  2.8083  0.5535
17275SOL     OW52605   6.647   7.220   3.601 -0.7213 -0.1988 -0.0142
17275SOL    HW152606   6.656   7.287   3.669 -3.7608  4.0828 -3.2974
17275SOL    HW252607   6.736   7.202   3.572  0.3121  1.0352  2.1797
17276SOL     OW52608   4.289   3.988   0.957 -0.0556 -0.6920  0.7317
17276SOL    HW152609   4.280   4.078   0.989 -0.8708 -0.5261  0.0594
17276SOL    HW252610   4.301   3.936   1.036 -0.3715 -0.0876  1.1895
17277SOL     OW52611   2.830   7.878   3.436  0.1587  0.1053 -0.4616
17277SOL    HW152612   2.908   7.931   3.449  0.4220  0.1923 -2.2379
17277SOL    HW252613   2.811   7.884   3.343 -1.8442 -0.1097 -0.1239
17278SOL     OW52614   4.739   1.310   7.503  0.4854 -0.1495 -0.5866
17278SOL    HW152615   4.744   1.397   7.541 -0.1488 -0.1500 -0.4874
17278SOL    HW252616   4.753   1.250   7.577 -0.9668 -0.1556 -0.2708
17279SOL     OW52617   5.135   4.982   0.459  0.4885 -0.1009  0.1785
17279SOL    HW152618   5.074   4.920   0.419 -1.6287  0.6701  1.9839
17279SOL    HW252619   5.176   4.932   0.530 -2.3343  0.7505  2.6323
17280SOL     OW52620   7.858   4.592   6.146  0.0935  0.5537  0.1297
17280SOL    HW152621   7.921   4.663   6.131 -0.1684  0.5674 -1.0196
17280SOL    HW252622   7.840   4.557   6.058 -1.7779  0.7804  0.3964
17281SOL     OW52623   3.156   3.847   7.637  0.5909  0.0314 -0.0305
17281SOL    HW152624   3.081   3.788   7.637  1.3538 -0.9537  0.0645
17281SOL    HW252625   3.119   3.932   7.613 -0.8993  0.0316  2.0304
17282SOL     OW52626   5.299   3.246   3.608 -0.0601 -0.3844 -0.2797
17282SOL    HW152627   5.342   3.205   3.683 -0.2158  1.2673  0.7631
17282SOL    HW252628   5.337   3.334   3.604 -1.3334  0.1591 -1.0374
17283SOL     OW52629   3.695   5.842   7.924  0.1143 -0.1790  0.3624
17283SOL    HW152630   3.748   5.779   7.974  0.0794 -0.9398 -0.5136
17283SOL    HW252631   3.612   5.846   7.970 -0.4058 -1.9068 -0.3331
17284SOL     OW52632   2.220   3.613   5.309 -0.4994 -0.1183  0.4143
17284SOL    HW152633   2.253   3.530   5.344  1.1163  0.4131  0.2372
17284SOL    HW252634   2.222   3.673   5.384  0.1815  0.2474  0.1158
17285SOL     OW52635   7.776   5.411   2.415 -0.3586  0.0586  0.2043
17285SOL    HW152636   7.860   5.427   2.457 -0.0484  0.5331 -0.5780
17285SOL    HW252637   7.774   5.316   2.399 -0.6807 -0.2093  1.6701
17286SOL     OW52638   4.875   7.223   1.908  0.2177  0.0220  0.0718
17286SOL    HW152639   4.788   7.257   1.888  0.6686  0.0267 -2.1687
17286SOL    HW252640   4.864   7.175   1.990 -1.9012 -0.0219 -0.1838
17287SOL     OW52641   6.083   2.807   4.589 -0.2533 -0.2652  0.0220
17287SOL    HW152642   6.041   2.734   4.544 -0.6390 -0.1623  0.2121
17287SOL    HW252643   6.127   2.767   4.664 -0.2037 -0.3441 -0.0501
17288SOL     OW52644   3.341   0.782   3.218  0.6033  0.6714 -0.1770
17288SOL    HW152645   3.434   0.759   3.215  1.1463  2.6799  0.0646
17288SOL    HW252646   3.337   0.858   3.276 -1.8031 -2.0483  3.6735
17289SOL     OW52647   0.596   3.209   8.050 -0.3298 -0.1559  0.4872
17289SOL    HW152648   0.543   3.197   7.971  0.4390  0.2829 -0.1071
17289SOL    HW252649   0.604   3.121   8.087 -0.3450 -0.4335 -0.1556
17290SOL     OW52650   4.965   5.253   2.675  0.2599  0.4103  0.1788
17290SOL    HW152651   5.045   5.307   2.673 -0.1023  0.9708  0.4904
17290SOL    HW252652   4.989   5.178   2.729  1.0196 -0.1674 -0.9098
17291SOL     OW52653   2.040   1.050   8.153 -0.5483 -0.0384  0.5117
17291SOL    HW152654   1.965   1.076   8.100 -1.3149 -0.2453  1.4595
17291SOL    HW252655   2.088   1.131   8.168 -0.3423  0.0262 -0.4460
17292SOL     OW52656   3.841   7.438   6.708 -0.1763 -0.4406 -0.0853
17292SOL    HW152657   3.865   7.531   6.710  2.5919 -1.0790  0.2470
17292SOL    HW252658   3.772   7.430   6.774  0.1189  1.2441  0.4814
17293SOL     OW52659   5.885   2.083   4.804 -0.4029 -0.2554 -0.8651
17293SOL    HW152660   5.872   2.050   4.893 -2.2304  0.7962 -0.7057
17293SOL    HW252661   5.978   2.102   4.799  0.0560 -1.9892  0.2273
17294SOL     OW52662   0.241   4.072   2.224  0.3011 -0.2967 -0.6704
17294SOL    HW152663   0.327   4.111   2.237  0.0824 -0.0203 -0.0278
17294SOL    HW252664   0.179   4.140   2.251 -0.1127 -0.6264 -0.7732
17295SOL     OW52665   6.513   8.023   3.976  0.3007 -0.2600 -0.1424
17295SOL    HW152666   6.470   7.962   4.036 -2.6670  0.7211 -1.0989
17295SOL    HW252667   6.534   8.100   4.030 -0.2063 -0.2969  0.1087
17296SOL     OW52668   2.512   1.466   8.242  0.1164 -0.6155  0.1112
17296SOL    HW152669   2.469   1.521   8.307 -2.3283 -1.9801 -0.2498
17296SOL    HW252670   2.489   1.506   8.158  1.8156  0.1370 -0.0362
17297SOL     OW52671   7.563   5.224   5.544 -0.2037  0.6630  0.5426
17297SOL    HW152672   7.471   5.214   5.521  0.2435 -3.4593 -0.2432
17297SOL    HW252673   7.563   5.228   5.640 -1.2114 -2.3992  0.7950
17298SOL     OW52674   5.301   2.023   5.885  0.1408  0.1885 -0.2088
17298SOL    HW152675   5.262   1.949   5.839 -0.7772  0.3167  0.3516
17298SOL    HW252676   5.375   1.985   5.934  1.0367  0.0257 -1.6344
17299SOL     OW52677   3.337   8.016   7.478  0.0654 -0.0329  0.1507
17299SOL    HW152678   3.295   7.931   7.464  0.9826 -0.4304 -0.2553
17299SOL    HW252679   3.265   8.078   7.481 -0.5584 -0.7110 -0.4709
17300SOL     OW52680   5.254   6.883   0.377  0.3872 -0.1936  0.6556
17300SOL    HW152681   5.210   6.862   0.295  1.5857  2.0339 -0.6606
17300SOL    HW252682   5.344   6.902   0.351  0.6480  1.1800  2.3939
17301SOL     OW52683   3.873   4.447   5.838  0.2920  0.8771 -0.4220
17301SOL    HW152684   3.906   4.495   5.914  0.7714 -1.4273  0.9071
17301SOL    HW252685   3.952   4.425   5.788  0.3987 -0.7875  0.4119
17302SOL     OW52686   4.674   5.850   4.602  0.7705 -0.1193  0.0019
17302SOL    HW152687   4.697   5.916   4.667  2.1336  1.5420 -2.0329
17302SOL    HW252688   4.719   5.770   4.631  0.2357  0.1872  1.7641
17303SOL     OW52689   7.930   2.110   2.875  0.4515  0.1474 -0.1247
17303SOL    HW152690   8.016   2.145   2.897  0.0213  2.0825 -1.2968
17303SOL    HW252691   7.932   2.099   2.779  0.0187 -1.6143  0.0350
17304SOL     OW52692   1.329   3.993   7.852  0.4975  0.1672 -0.2323
17304SOL    HW152693   1.281   3.998   7.769  1.6487  1.7020 -0.8555
17304SOL    HW252694   1.261   3.996   7.919 -0.3600  4.2406 -1.0175
17305SOL     OW52695   7.970   7.639   6.495  0.3285 -0.1086  0.0664
17305SOL    HW152696   8.030   7.587   6.548  1.0598 -1.9251 -2.3412
17305SOL    HW252697   8.021   7.715   6.468  0.5843 -0.1618  0.4028
17306SOL     OW52698   1.292   1.154   4.389  0.0181 -0.3110 -0.3598
17306SOL    HW152699   1.360   1.193   4.444  0.5549  1.2170 -2.0045
17306SOL    HW252700   1.329   1.070   4.361  0.4561 -0.3129  0.2039
17307SOL     OW52701   3.973   2.539   4.462  0.4464  0.0979  0.2204
17307SOL    HW152702   4.062   2.507   4.480  0.2644 -0.4973  0.0870
17307SOL    HW252703   3.981   2.588   4.381  0.7485  0.4603  0.4679
17308SOL     OW52704   1.432   8.275   3.023 -0.3206 -0.1584 -0.8469
17308SOL    HW152705   1.407   8.186   2.998  0.3079 -0.1787 -1.4257
17308SOL    HW252706   1.371   8.298   3.094 -0.2880 -1.1628 -0.4762
17309SOL     OW52707   7.072   5.244   1.744  0.6582  0.5364  0.3222
17309SOL    HW152708   7.148   5.302   1.736  0.1656  0.9809 -2.3070
17309SOL    HW252709   7.011   5.276   1.676  0.5500 -3.3003 -1.6453
17310SOL     OW52710   5.983   2.992   5.536 -0.1912 -0.1791  0.5942
17310SOL    HW152711   5.985   3.081   5.502 -2.5264 -0.3492 -0.1371
17310SOL    HW252712   5.890   2.974   5.552  0.3948 -1.7942  2.6149
17311SOL     OW52713   6.495   3.319   7.430 -0.6088 -0.1266 -0.0131
17311SOL    HW152714   6.487   3.243   7.373  0.8972 -0.9271  0.7778
17311SOL    HW252715   6.552   3.290   7.502 -1.5141  1.1889  1.3010
17312SOL     OW52716   2.128   5.438   6.253  0.1542  0.0810 -1.0092
17312SOL    HW152717   2.176   5.361   6.224  0.6018 -0.4973  1.0996
17312SOL    HW252718   2.190   5.510   6.242  0.2920 -0.1091 -1.5039
17313SOL     OW52719   3.201   7.576   1.328 -0.0684  0.5421  0.0499
17313SOL    HW152720   3.284   7.546   1.365  0.5913  1.6961 -0.4173
17313SOL    HW252721   3.152   7.609   1.403 -0.0512 -0.0107  0.3102
17314SOL     OW52722   4.884   6.893   6.338 -0.0809  0.0930  0.1907
17314SOL    HW152723   4.932   6.960   6.387  0.8746  0.0053 -0.6197
17314SOL    HW252724   4.799   6.934   6.319 -0.4695  0.1439  1.8655
17315SOL     OW52725   5.923   8.007   0.640 -0.2329  0.0826 -0.4827
17315SOL    HW152726   5.905   8.096   0.669  1.7842  0.5898 -0.6574
17315SOL    HW252727   6.010   7.987   0.674  0.3332 -0.9611 -2.3855
17316SOL     OW52728   7.922   3.112   2.423 -0.2945 -0.5244  0.0131
17316SOL    HW152729   7.879   3.034   2.458  0.2433 -1.0676 -0.5032
17316SOL    HW252730   7.918   3.101   2.328 -0.5033  0.2397 -0.0709
17317SOL     OW52731   2.452   6.439   4.701 -0.3738  0.9155 -0.5905
17317SOL    HW152732   2.426   6.490   4.624 -0.8914  0.7418 -0.5366
17317SOL    HW252733   2.435   6.498   4.775 -0.3686  0.8954 -0.5738
17318SOL     OW52734   7.363   4.699   3.283 -0.5187  0.1068  0.5472
17318SOL    HW152735   7.360   4.722   3.376  0.8888 -1.3441  1.0052
17318SOL    HW252736   7.360   4.783   3.237  1.2958  1.0608  2.0088
17319SOL     OW52737   4.401   5.521   6.179 -0.2019  0.0414 -0.1412
17319SOL    HW152738   4.452   5.584   6.231  0.1156  0.0637 -0.4773
17319SOL    HW252739   4.466   5.467   6.136 -0.4794 -0.9702  0.6812
17320SOL     OW52740   5.076   4.172   7.775 -0.2531 -0.1932  0.1997
17320SOL    HW152741   5.147   4.146   7.716 -0.4815 -1.4903  0.4590
17320SOL    HW252742   5.070   4.100   7.838  0.9296  1.7554  2.7406
17321SOL     OW52743   6.082   1.977   6.871  0.1040  0.0421  0.0423
17321SOL    HW152744   6.092   2.044   6.938 -1.8386 -0.6925  1.1497
17321SOL    HW252745   6.018   2.014   6.810  2.6999  1.2108 -2.2137
17322SOL     OW52746   4.730   5.991   4.825 -0.0560  0.1257  0.7712
17322SOL    HW152747   4.806   6.018   4.773 -0.0524 -0.9340  0.2053
17322SOL    HW252748   4.689   6.073   4.853  0.7009  0.7020  0.2080
17323SOL     OW52749   6.986   2.691   5.921  1.0541  0.8042 -0.4625
17323SOL    HW152750   7.016   2.768   5.971  0.6815  0.9703 -0.4934
17323SOL    HW252751   6.968   2.625   5.988 -2.8411  2.1039  0.0497
17324SOL     OW52752   7.034   5.541   0.586 -0.5422  0.1594 -0.0327
17324SOL    HW152753   7.110   5.578   0.631 -0.2521 -0.9069  0.3873
17324SOL    HW252754   7.071   5.477   0.525 -1.1247 -1.4653  1.2208
17325SOL     OW52755   1.928   2.251   2.519  0.0734 -0.0214 -0.2236
17325SOL    HW152756   2.020   2.225   2.528  0.2390  1.1751  2.7528
17325SOL    HW252757   1.931   2.337   2.477  0.2381 -0.3117 -0.8176
17326SOL     OW52758   4.050   4.076   5.939 -0.2788 -0.4925 -0.3109
17326SOL    HW152759   4.137   4.036   5.931  0.0611  0.2643 -0.5052
17326SOL    HW252760   4.043   4.098   6.033  0.1383  0.2902 -0.4497
17327SOL     OW52761   3.772   6.360   6.954 -0.1790 -0.1353 -0.2028
17327SOL    HW152762   3.865   6.379   6.943 -0.4412  1.7203  0.3148
17327SOL    HW252763   3.764   6.330   7.045  0.2520 -3.2011 -1.0540
17328SOL     OW52764   3.903   2.702   6.311 -1.0949  0.5411 -0.2643
17328SOL    HW152765   3.930   2.793   6.297 -0.3860  0.3657 -0.0869
17328SOL    HW252766   3.827   2.690   6.255 -1.7401  1.5105  0.3811
17329SOL     OW52767   2.327   8.070   1.191  0.6247 -0.1706 -0.0894
17329SOL    HW152768   2.379   8.140   1.230  1.2187 -0.4450 -0.3650
17329SOL    HW252769   2.239   8.081   1.227  1.0369 -0.1081  0.9168
17330SOL     OW52770   3.803   5.736   5.552  0.9542  0.1201  0.0382
17330SOL    HW152771   3.850   5.654   5.538 -0.9781 -0.9170 -0.7240
17330SOL    HW252772   3.723   5.710   5.597 -0.1322  1.4570 -1.0495
17331SOL     OW52773   2.737   0.714   1.420  0.1301  0.6012 -0.5126
17331SOL    HW152774   2.789   0.653   1.367 -0.0010  0.3259 -0.3305
17331SOL    HW252775   2.754   0.800   1.382 -0.4886  0.3336 -1.4172
17332SOL     OW52776   5.014   6.444   0.345  0.1760  0.2963 -0.3219
17332SOL    HW152777   5.079   6.396   0.397  0.6536 -0.9261 -1.9403
17332SOL    HW252778   5.064   6.475   0.269 -0.8623  0.4148 -0.9693
17333SOL     OW52779   4.253   7.500   2.135  0.2419  0.0029 -0.2749
17333SOL    HW152780   4.270   7.435   2.067  1.4160 -1.4150  1.2913
17333SOL    HW252781   4.313   7.572   2.116  0.8457 -0.5583 -0.5323
17334SOL     OW52782   1.299   8.303   5.843  0.6468 -0.6615  0.3717
17334SOL    HW152783   1.264   8.392   5.850  0.7743 -0.5719 -0.1338
17334SOL    HW252784   1.380   8.313   5.794  0.4971 -1.0984  0.0318
17335SOL     OW52785   1.182   6.888   7.401  0.3780 -0.2136  0.0047
17335SOL    HW152786   1.241   6.913   7.472  0.4394 -0.9436  0.2205
17335SOL    HW252787   1.179   6.792   7.405 -0.4816 -0.2075 -0.2777
17336SOL     OW52788   4.898   2.112   8.018  0.1878  0.0869 -0.3431
17336SOL    HW152789   4.943   2.061   7.950 -0.9772  0.1670 -1.2012
17336SOL    HW252790   4.882   2.197   7.978 -1.5125 -0.2282 -0.4044
17337SOL     OW52791   3.115   0.337   6.629 -0.3219 -0.1948  0.3126
17337SOL    HW152792   3.094   0.373   6.715 -1.4047  0.3263 -0.1535
17337SOL    HW252793   3.184   0.395   6.595  0.0850 -0.3827  0.8044
17338SOL     OW52794   1.344   5.885   0.023  0.0367  0.5430  0.4216
17338SOL    HW152795   1.322   5.829  -0.050  0.7822 -0.7131  1.1258
17338SOL    HW252796   1.439   5.878   0.032  0.1175  1.7009  0.7047
17339SOL     OW52797   7.528   1.525   4.677 -0.0342  0.5453 -0.4586
17339SOL    HW152798   7.486   1.594   4.625 -0.2668 -0.5525 -1.7738
17339SOL    HW252799   7.581   1.476   4.614  1.4301  0.4824  0.7484
17340SOL     OW52800   5.759   5.300   4.805  0.0518  0.3593  0.3384
17340SOL    HW152801   5.720   5.213   4.794 -0.6169  0.4608  1.7185
17340SOL    HW252802   5.802   5.317   4.721 -0.4665 -0.9661 -0.2335
17341SOL     OW52803   1.001   6.338   8.038  0.3579  0.5935 -0.7587
17341SOL    HW152804   1.085   6.330   8.083  1.2791  0.1287 -2.5011
17341SOL    HW252805   1.013   6.410   7.977 -0.5436  0.5871 -0.9539
17342SOL     OW52806   0.123   8.197   6.128 -0.4190  0.3107  0.0624
17342SOL    HW152807   0.122   8.217   6.221 -0.3701  1.7934 -0.2265
17342SOL    HW252808   0.198   8.139   6.116  1.0727  2.0276  0.6198
17343SOL     OW52809   5.240   3.498   2.249  0.0636 -0.7864 -0.8286
17343SOL    HW152810   5.217   3.441   2.323  0.4836 -1.5497 -1.2713
17343SOL    HW252811   5.311   3.553   2.281  0.5984 -1.4733 -0.8125
17344SOL     OW52812   6.786   3.762   4.610  0.0448  0.1252 -0.0344
17344SOL    HW152813   6.807   3.669   4.604  1.2305  0.4592 -1.7230
17344SOL    HW252814   6.758   3.786   4.522  1.6995  1.7867 -0.1557
17345SOL     OW52815   3.000   2.883   3.216  0.4495  0.5468 -0.3649
17345SOL    HW152816   3.075   2.841   3.258  0.6044  1.3256  0.1625
17345SOL    HW252817   3.020   2.878   3.122  1.1141  0.6359 -0.2362
17346SOL     OW52818   5.422   4.588   3.515 -0.2233 -0.1424  0.3891
17346SOL    HW152819   5.517   4.587   3.525 -0.1561 -0.7677 -0.2015
17346SOL    HW252820   5.402   4.676   3.484  0.2809 -0.3200 -0.4692
17347SOL     OW52821   0.098   7.255   7.532  0.3090  0.2722 -0.1712
17347SOL    HW152822   0.161   7.327   7.533  1.8767 -0.9948 -2.0499
17347SOL    HW252823   0.133   7.191   7.593 -0.3933  0.5077  0.4983
17348SOL     OW52824   7.854   3.572   3.341  0.1038 -0.3455 -0.4487
17348SOL    HW152825   7.919   3.589   3.409  0.3055 -0.6174 -0.5682
17348SOL    HW252826   7.829   3.480   3.355  0.5967 -0.5885 -1.1154
17349SOL     OW52827   0.780   3.654   7.494 -0.5895  0.3512  0.6100
17349SOL    HW152828   0.709   3.607   7.450 -1.1443  1.0064  0.7866
17349SOL    HW252829   0.736   3.720   7.546  0.1314  0.3990  1.1747
17350SOL     OW52830   2.052   4.352   2.219  0.2756 -0.0834  0.3604
17350SOL    HW152831   1.996   4.422   2.255 -0.7859 -0.4022 -0.5999
17350SOL    HW252832   2.077   4.300   2.295  0.3457  0.8190  0.9764
17351SOL     OW52833   5.811   7.146   1.747  0.0854  0.3125 -0.0381
17351SOL    HW152834   5.718   7.124   1.747 -0.6495  2.8638  1.7180
17351SOL    HW252835   5.814   7.237   1.717  2.1013  0.1337 -0.5434
17352SOL     OW52836   0.070   0.014   7.456  0.7432 -0.9642 -0.1244
17352SOL    HW152837   0.050   0.059   7.539  0.7555 -1.6182  0.2366
17352SOL    HW252838   0.063  -0.079   7.477  0.6725 -1.1323 -0.8832
17353SOL     OW52839   6.211   2.308   1.671  0.6424  0.1013  0.4133
17353SOL    HW152840   6.252   2.294   1.757 -0.0782 -2.6746  0.4044
17353SOL    HW252841   6.138   2.246   1.670 -2.2105  3.1890 -0.4962
17354SOL     OW52842   1.636   6.053   1.038 -0.2153  0.8143 -0.0024
17354SOL    HW152843   1.647   6.100   1.120  0.1865  2.1000 -0.7750
17354SOL    HW252844   1.551   6.082   1.004 -0.9278 -0.5892  0.4903
17355SOL     OW52845   2.197   4.062   1.229  0.3572  0.1394  0.2191
17355SOL    HW152846   2.174   3.980   1.271  1.0832 -0.3510 -0.3013
17355SOL    HW252847   2.141   4.128   1.270 -0.6822 -0.7150  0.1971
17356SOL     OW52848   6.067   3.842   7.542 -0.0737  0.7757 -0.3765
17356SOL    HW152849   6.162   3.851   7.538  0.1321 -0.6341  0.6008
17356SOL    HW252850   6.036   3.928   7.570  1.1598  0.5723  1.8920
17357SOL     OW52851   0.924   6.532   0.491 -0.3301  0.6387  0.0457
17357SOL    HW152852   0.950   6.623   0.478  1.1338  0.0730 -1.4460
17357SOL    HW252853   0.957   6.487   0.413  0.4251 -1.4585  1.5006
17358SOL     OW52854   7.897   0.614   0.369 -0.1714 -1.1530  0.4346
17358SOL    HW152855   7.813   0.600   0.324 -0.4849 -0.6307  0.8480
17358SOL    HW252856   7.897   0.548   0.438 -0.0929 -1.3639  0.2368
17359SOL     OW52857   1.574   1.947   0.633 -0.2062  0.3413  0.5032
17359SOL    HW152858   1.488   1.966   0.670  0.1272 -1.3723  2.3480
17359SOL    HW252859   1.605   1.871   0.683  2.3283  0.8439 -0.1743
17360SOL     OW52860   6.187   1.095   2.527 -0.3831  0.4386  0.6042
17360SOL    HW152861   6.268   1.131   2.491 -0.3417  0.5196  0.7785
17360SOL    HW252862   6.141   1.060   2.451  0.0900 -0.1464  0.5830
17361SOL     OW52863   1.187   1.715   0.855  0.5113  0.0300 -0.1173
17361SOL    HW152864   1.195   1.685   0.765  0.4128 -1.4267  0.3268
17361SOL    HW252865   1.129   1.650   0.897 -0.5898  1.4519  0.6507
17362SOL     OW52866   2.154   8.297   5.789  0.2038 -0.3201 -0.0044
17362SOL    HW152867   2.110   8.370   5.745 -1.4297 -0.9546  0.5410
17362SOL    HW252868   2.182   8.333   5.873 -0.1106 -0.1832  0.0409
17363SOL     OW52869   8.094   2.004   6.362  0.4376 -0.2170 -0.2600
17363SOL    HW152870   8.169   1.955   6.394 -0.1903 -1.0191  0.0385
17363SOL    HW252871   8.018   1.955   6.394 -0.2136 -0.1042 -1.5425
17364SOL     OW52872   0.140   0.941   1.817 -0.5947 -0.0421 -0.5478
17364SOL    HW152873   0.113   0.865   1.869 -0.7192 -0.3766 -1.0934
17364SOL    HW252874   0.089   0.935   1.737  2.0854 -1.5294 -2.2834
17365SOL     OW52875   2.606   1.213   1.566 -0.2032  0.3964  0.1914
17365SOL    HW152876   2.614   1.301   1.603  1.1041 -0.4756  2.0895
17365SOL    HW252877   2.511   1.201   1.554 -0.3522  2.3822 -1.0219
17366SOL     OW52878   2.022   8.085   1.260  0.0090  0.0339  0.3912
17366SOL    HW152879   1.992   8.028   1.189 -0.6525  0.4461  0.3259
17366SOL    HW252880   1.990   8.172   1.236  0.9047  0.4182  0.5496
17367SOL     OW52881   7.816   7.680   1.009  0.2417 -0.3309  0.1372
17367SOL    HW152882   7.819   7.604   1.066  0.2117 -0.3351  0.1333
17367SOL    HW252883   7.887   7.666   0.946 -0.7209 -1.1141 -0.8169
17368SOL     OW52884   6.369   2.887   2.120 -0.5024  0.2859 -0.2626
17368SOL    HW152885   6.281   2.918   2.102  0.8299  2.4296 -4.5062
17368SOL    HW252886   6.423   2.927   2.052  3.2974 -3.2616  0.2607
17369SOL     OW52887   8.021   4.825   3.684 -0.2032 -0.3218 -0.4678
17369SOL    HW152888   8.063   4.739   3.696  0.1011 -0.1173 -0.0599
17369SOL    HW252889   7.975   4.817   3.600  1.1849 -0.3423 -1.2677
17370SOL     OW52890   2.541   5.241   2.439 -0.3596 -0.0991 -0.0266
17370SOL    HW152891   2.533   5.215   2.347 -1.5491 -0.3475  0.1256
17370SOL    HW252892   2.610   5.185   2.474 -1.5207 -1.7144 -0.2007
17371SOL     OW52893   5.544   0.365   5.666 -0.0510  0.1377 -0.0379
17371SOL    HW152894   5.614   0.307   5.694 -1.3588 -0.8432  1.2725
17371SOL    HW252895   5.566   0.450   5.705 -0.5802 -0.6295  2.0212
17372SOL     OW52896   3.084   8.142   7.487  0.0709  0.7711  0.3179
17372SOL    HW152897   3.070   8.145   7.392  0.0668 -0.0575  0.2792
17372SOL    HW252898   2.998   8.118   7.523  0.2965  0.1227  0.4422
17373SOL     OW52899   6.570   2.646   6.847  0.0380  0.3441  0.3753
17373SOL    HW152900   6.631   2.581   6.812 -2.4247 -1.0685 -1.6581
17373SOL    HW252901   6.538   2.692   6.770 -0.5949  1.8651  1.5051
17374SOL     OW52902   5.657   7.774   2.493 -0.7385  0.5247  0.5532
17374SOL    HW152903   5.630   7.692   2.535 -0.4815 -0.0750 -0.3982
17374SOL    HW252904   5.697   7.825   2.563 -1.2319 -0.0128  1.2447
17375SOL     OW52905   3.752   1.436   7.718  0.3909  0.1697  0.1700
17375SOL    HW152906   3.731   1.379   7.791  0.3499 -0.0512 -0.0122
17375SOL    HW252907   3.772   1.521   7.758 -1.0295  0.4486  0.3322
17376SOL     OW52908   6.639   5.720   0.367 -0.3323  0.1605 -0.7072
17376SOL    HW152909   6.692   5.771   0.428  1.1377 -0.6074 -1.2901
17376SOL    HW252910   6.698   5.700   0.295 -0.9604 -2.0393 -0.6730
17377SOL     OW52911   7.725   1.719   5.081  0.6724 -0.1810  0.0376
17377SOL    HW152912   7.779   1.794   5.054  0.1159  0.5532  0.8976
17377SOL    HW252913   7.740   1.713   5.175  0.3733 -0.8892  0.0409
17378SOL     OW52914   7.457   3.471   4.024  0.6865 -0.3747 -0.5580
17378SOL    HW152915   7.481   3.395   4.077  0.5073 -0.6365 -0.8494
17378SOL    HW252916   7.363   3.462   4.010  0.8940 -0.8786 -1.7831
17379SOL     OW52917   0.953   6.203   5.164 -0.0871 -0.1488  0.0217
17379SOL    HW152918   0.863   6.186   5.137  0.1579 -1.1152 -0.2407
17379SOL    HW252919   0.989   6.116   5.183  0.9221  0.1734 -0.3370
17380SOL     OW52920   0.520   3.177   5.009 -0.0479  0.1948 -0.0508
17380SOL    HW152921   0.537   3.107   4.946 -1.5188  0.5494 -0.9027
17380SOL    HW252922   0.605   3.217   5.025  0.7738 -1.6227  0.2676
17381SOL     OW52923   7.813   2.173   5.735  0.4895  0.0760  0.2183
17381SOL    HW152924   7.827   2.081   5.716  1.1960 -0.0289  1.2001
17381SOL    HW252925   7.850   2.219   5.659  0.3566 -0.4334 -0.1575
17382SOL     OW52926   7.289   0.023   7.734 -0.4578  0.1197 -0.2846
17382SOL    HW152927   7.337  -0.053   7.766  1.4940  1.0744 -0.8054
17382SOL    HW252928   7.228   0.044   7.804  0.2607 -0.8117  0.6512
17383SOL     OW52929   0.872   0.321   7.791 -0.1806 -0.1731 -0.2694
17383SOL    HW152930   0.829   0.236   7.784 -0.1815 -0.2763  0.8333
17383SOL    HW252931   0.880   0.351   7.700 -1.6795 -0.5950 -0.5766
17384SOL     OW52932   5.833   7.007   7.641  0.0117 -0.1346 -0.0705
17384SOL    HW152933   5.774   7.074   7.677 -0.7730 -0.8657  0.0197
17384SOL    HW252934   5.920   7.032   7.674 -0.3459  0.5324  0.3990
17385SOL     OW52935   3.472   1.938   2.508  0.6373  0.1858  0.3653
17385SOL    HW152936   3.559   1.955   2.472  1.3388 -2.0221  0.8339
17385SOL    HW252937   3.471   1.984   2.592  0.9532  1.0685 -0.1054
17386SOL     OW52938   2.052   4.639   5.465 -0.2488 -0.4706 -0.0379
17386SOL    HW152939   2.036   4.729   5.437 -1.4778 -1.1545 -1.7091
17386SOL    HW252940   2.124   4.645   5.527 -0.8014  1.7443  0.4578
17387SOL     OW52941   5.225   3.951   8.145  0.2783  0.3422 -0.6219
17387SOL    HW152942   5.307   4.001   8.139  0.8724 -0.3458  0.9814
17387SOL    HW252943   5.232   3.905   8.229 -1.6719  0.0921 -0.5519
17388SOL     OW52944   1.407   2.087   7.852  0.5509 -0.1258 -0.6667
17388SOL    HW152945   1.453   2.071   7.769  0.4383 -1.0446 -0.5642
17388SOL    HW252946   1.421   2.007   7.903 -0.7120 -0.2148 -0.4317
17389SOL     OW52947   6.493   3.179   8.218 -0.5904 -0.2134 -0.3331
17389SOL    HW152948   6.463   3.193   8.129  2.0400 -1.3846 -1.5102
17389SOL    HW252949   6.428   3.119   8.256 -1.6227  0.1149 -1.5009
17390SOL     OW52950   7.718   5.656   2.863  0.2689  0.6288 -0.2077
17390SOL    HW152951   7.772   5.695   2.932 -0.6965 -0.2260  1.0646
17390SOL    HW252952   7.631   5.691   2.877  0.1459  0.8173 -1.3148
17391SOL     OW52953   4.029   5.758   7.495 -0.2892 -0.7176 -0.0403
17391SOL    HW152954   4.091   5.792   7.559 -0.1053 -0.6957 -0.2309
17391SOL    HW252955   3.950   5.738   7.546  0.5224 -2.6162  0.5635
17392SOL     OW52956   0.145   5.760   4.347 -0.1858 -0.2767 -0.4320
17392SOL    HW152957   0.130   5.734   4.257 -0.2784 -0.2946 -0.4108
17392SOL    HW252958   0.225   5.714   4.373 -1.4907 -2.2561  0.3092
17393SOL     OW52959   1.307   0.689   1.621  0.1366 -0.2918 -0.0258
17393SOL    HW152960   1.371   0.726   1.683  0.1156  0.4819 -0.4510
17393SOL    HW252961   1.235   0.659   1.677  1.2793 -2.0986  0.5489
17394SOL     OW52962   2.384   1.421   7.644 -0.2144 -0.4104 -0.0290
17394SOL    HW152963   2.339   1.372   7.575 -2.0377  1.3413 -0.1626
17394SOL    HW252964   2.400   1.507   7.607  0.5895 -0.0571  1.0817
17395SOL     OW52965   6.912   2.677   7.884 -0.0136  0.1706  0.2184
17395SOL    HW152966   6.966   2.603   7.913 -1.5022 -0.9040  0.4117
17395SOL    HW252967   6.958   2.712   7.807  2.6856  1.4898  2.2797
17396SOL     OW52968   6.338   7.978   7.724  0.6480  0.1386 -0.4836
17396SOL    HW152969   6.322   8.063   7.764 -0.0517  0.4520 -1.3879
17396SOL    HW252970   6.298   7.915   7.784  0.1008  0.5500 -0.4116
17397SOL     OW52971   6.200   5.521   8.150 -0.6209 -0.1250 -0.0605
17397SOL    HW152972   6.156   5.436   8.143  0.8487 -0.9278 -0.2321
17397SOL    HW252973   6.284   5.507   8.105  0.1451  1.0555  0.9338
17398SOL     OW52974   2.819   4.666   7.308  0.1003  0.0973 -0.1192
17398SOL    HW152975   2.812   4.751   7.350 -1.3348 -0.2208  0.3541
17398SOL    HW252976   2.801   4.603   7.379  1.1239 -0.5967 -0.4577
17399SOL     OW52977   1.743   3.790   3.476 -0.9593 -0.3428 -0.7481
17399SOL    HW152978   1.653   3.795   3.445 -0.5732  0.2310 -1.8670
17399SOL    HW252979   1.741   3.825   3.565 -1.7871 -0.0519 -0.8787
17400SOL     OW52980   5.714   2.054   5.598 -0.0486 -0.6692 -0.2911
17400SOL    HW152981   5.762   1.972   5.606 -0.0168 -0.5670  0.6603
17400SOL    HW252982   5.622   2.028   5.604 -0.1116 -0.8052 -1.5918
17401SOL     OW52983   7.938   4.583   8.212 -0.5124 -0.0445  0.1886
17401SOL    HW152984   7.999   4.605   8.282  0.2442  1.8854 -1.0027
17401SOL    HW252985   7.880   4.659   8.206  0.1816  0.3613 -2.0292
17402SOL     OW52986   3.372   8.307   5.815  1.2626 -0.0032 -0.0898
17402SOL    HW152987   3.383   8.312   5.910 -0.1960 -1.1549  0.1853
17402SOL    HW252988   3.413   8.225   5.790 -0.2442 -0.7971 -0.0906
17403SOL     OW52989   1.995   4.539   2.425  0.6934 -0.2286 -0.1232
17403SOL    HW152990   1.911   4.576   2.452 -0.4650 -2.8144  0.0483
17403SOL    HW252991   2.060   4.602   2.457 -1.0877  1.2799  0.7253
17404SOL     OW52992   2.380   3.317   0.428  0.4431 -0.0533 -0.1554
17404SOL    HW152993   2.317   3.254   0.465 -0.7560  1.1155 -0.1072
17404SOL    HW252994   2.354   3.325   0.336  0.6036  0.3495 -0.1657
17405SOL     OW52995   4.055   6.157   3.370  0.3338 -0.3324  0.0599
17405SOL    HW152996   3.975   6.174   3.420 -1.0901 -2.2636 -1.4246
17405SOL    HW252997   4.024   6.130   3.283  2.5004 -2.9752 -0.0176
17406SOL     OW52998   0.040   2.964   5.913 -0.4076  0.1327 -0.4226
17406SOL    HW152999   0.027   2.879   5.870  1.0413  0.3866 -1.4239
17406SOL    HW253000   0.116   2.952   5.970  0.5461  1.0352 -1.4472
17407SOL     OW53001   1.660   5.974   2.477 -0.3196 -0.2160 -0.0080
17407SOL    HW153002   1.593   6.005   2.416 -0.9929  0.1972  0.9149
17407SOL    HW253003   1.614   5.911   2.533  0.5072 -1.2634 -0.4751
17408SOL     OW53004   3.236   4.244   2.841 -0.5730  0.2924  0.0744
17408SOL    HW153005   3.204   4.335   2.844  0.8026  0.8098  0.0125
17408SOL    HW253006   3.268   4.228   2.930 -1.1231 -0.2647  0.1769
17409SOL     OW53007   1.591   5.508   3.720  0.3024  0.2230 -0.3094
17409SOL    HW153008   1.521   5.444   3.707  1.0889 -0.9133  0.8083
17409SOL    HW253009   1.571   5.547   3.805 -0.4625  1.8845 -1.2107
17410SOL     OW53010   5.802   7.759   1.535 -0.5517  0.3895  0.4145
17410SOL    HW153011   5.875   7.723   1.485 -1.5063  0.2318 -0.9296
17410SOL    HW253012   5.842   7.793   1.615  0.7217 -1.4663  0.6435
17411SOL     OW53013   5.589   5.070   6.772 -0.3492  0.0038  0.0285
17411SOL    HW153014   5.523   5.134   6.745 -1.8800 -1.5680 -0.1310
17411SOL    HW253015   5.646   5.061   6.695 -1.8007 -0.8508 -1.0158
17412SOL     OW53016   5.626   0.767   4.867 -0.1541 -0.1960 -0.0635
17412SOL    HW153017   5.590   0.680   4.884 -1.1712  0.2306  0.0044
17412SOL    HW253018   5.563   0.827   4.906  0.9894  0.5567  0.6763
17413SOL     OW53019   6.881   4.007   7.096  0.4547  0.7118  0.2208
17413SOL    HW153020   6.890   4.036   7.186 -1.0768  0.4163  0.4988
17413SOL    HW253021   6.793   4.035   7.070  0.1987 -0.7281 -0.5900
17414SOL     OW53022   7.996   6.029   0.585 -0.4141 -0.2480  0.8378
17414SOL    HW153023   7.910   6.072   0.577 -0.1829 -0.0040 -0.7943
17414SOL    HW253024   7.987   5.971   0.660 -2.0280 -0.2534  0.6817
17415SOL     OW53025   1.137   1.981   1.053 -0.0594 -0.3878  0.2423
17415SOL    HW153026   1.125   2.021   1.139  1.7066  0.0727  0.3059
17415SOL    HW253027   1.169   1.893   1.072  0.2792 -0.3044  0.0654
17416SOL     OW53028   4.108   3.130   0.126  0.3114 -0.3209  0.3720
17416SOL    HW153029   4.149   3.195   0.070 -0.2717  0.6981  1.0992
17416SOL    HW253030   4.124   3.160   0.216 -1.7953  0.0286  0.6882
17417SOL     OW53031   1.257   2.661   4.879 -0.5116  0.4542 -0.2295
17417SOL    HW153032   1.257   2.651   4.975  2.0107 -1.4131 -0.3072
17417SOL    HW253033   1.246   2.572   4.846 -1.5995  1.1152 -1.7095
17418SOL     OW53034   1.093   5.327   2.532 -0.1406 -0.2739 -0.2507
17418SOL    HW153035   1.129   5.380   2.461 -0.8453  0.2371 -0.2407
17418SOL    HW253036   1.000   5.321   2.513 -0.4584  0.4231  0.9537
17419SOL     OW53037   2.408   0.750   2.098 -0.4006 -0.2438 -0.1257
17419SOL    HW153038   2.325   0.785   2.065 -0.1606  1.5360  0.9830
17419SOL    HW253039   2.421   0.796   2.181  1.1301 -1.3569  0.2901
17420SOL     OW53040   6.663   4.851   4.130 -0.3247 -0.1960 -0.0113
17420SOL    HW153041   6.636   4.838   4.039  0.8721  1.4999 -0.6520
17420SOL    HW253042   6.751   4.888   4.124  0.3049 -1.2991  1.8917
17421SOL     OW53043   4.248   2.777   5.150 -0.0474 -0.1111 -0.1284
17421SOL    HW153044   4.178   2.841   5.153  0.6249  0.6094  1.4161
17421SOL    HW253045   4.203   2.692   5.150 -0.9252  0.3419  0.2768
17422SOL     OW53046   4.771   3.348   7.848 -0.5992  0.1317  0.3768
17422SOL    HW153047   4.843   3.403   7.817  0.5255 -1.6861 -0.4109
17422SOL    HW253048   4.761   3.281   7.779 -1.8675 -0.6801  1.3065
17423SOL     OW53049   7.439   7.090   0.322  0.6407 -0.1208  0.3517
17423SOL    HW153050   7.502   7.084   0.250  0.4490 -3.0464  0.3134
17423SOL    HW253051   7.358   7.119   0.280  1.3601  1.4947  0.0155
17424SOL     OW53052   5.056   3.941   3.338 -0.6232 -0.0103 -0.2787
17424SOL    HW153053   5.019   3.854   3.353 -0.4987  0.0351  0.3158
17424SOL    HW253054   5.042   3.988   3.420  0.2288  0.2039 -0.2466
17425SOL     OW53055   3.529   5.810   4.128 -0.2747 -0.3693  0.1273
17425SOL    HW153056   3.497   5.875   4.064  0.7835  2.2379  2.0551
17425SOL    HW253057   3.453   5.792   4.183 -0.2012  0.5164  0.5418
17426SOL     OW53058   1.892   4.791   2.853 -0.2109  0.7610 -0.2245
17426SOL    HW153059   1.851   4.841   2.782  0.3081  0.4016 -0.7957
17426SOL    HW253060   1.818   4.754   2.902 -0.5798  0.2728 -1.1226
17427SOL     OW53061   7.113   5.117   2.859  0.2461  0.1037  0.2662
17427SOL    HW153062   7.033   5.142   2.813 -0.0713 -0.9984  0.1880
17427SOL    HW253063   7.153   5.200   2.884 -0.5055  0.6872 -0.4027
17428SOL     OW53064   7.955   8.083   2.908  0.0821 -0.8248 -0.3268
17428SOL    HW153065   7.873   8.104   2.863 -0.4673 -0.3740  0.8372
17428SOL    HW253066   8.019   8.072   2.838 -0.1677  2.2716 -1.1869
17429SOL     OW53067   4.747   3.432   2.621  0.2856  0.1098  0.8628
17429SOL    HW153068   4.789   3.492   2.559 -0.6844 -0.8568 -0.8114
17429SOL    HW253069   4.676   3.392   2.571  0.9852 -2.5650  1.8197
17430SOL     OW53070   5.135   7.546   7.368  0.0392 -0.2184  0.1771
17430SOL    HW153071   5.142   7.492   7.447 -0.4782  0.4318  0.6833
17430SOL    HW253072   5.054   7.518   7.326  0.6249 -0.9820 -0.4491
17431SOL     OW53073   1.860   7.427   5.540 -0.0444 -0.1200  0.3719
17431SOL    HW153074   1.868   7.341   5.581 -0.2272  0.0408  0.7480
17431SOL    HW253075   1.948   7.447   5.508  0.1310 -0.1843  0.8138
17432SOL     OW53076   4.855   1.451   5.898 -0.8124 -0.4970  0.2298
17432SOL    HW153077   4.845   1.438   5.993 -1.5992 -0.0694  0.2142
17432SOL    HW253078   4.948   1.434   5.881  0.0387  2.1453  1.5479
17433SOL     OW53079   6.216   0.273   5.045 -0.2601  0.2742 -0.2634
17433SOL    HW153080   6.235   0.363   5.070 -1.1398  0.3155  0.3018
17433SOL    HW253081   6.245   0.266   4.954  1.2204  0.6836  0.1533
17434SOL     OW53082   0.533   1.928   5.133  0.1645 -0.3446  0.3396
17434SOL    HW153083   0.536   2.018   5.167  1.1024 -0.7116  1.2943
17434SOL    HW253084   0.442   1.901   5.146  0.3716 -0.2982  2.1784
17435SOL     OW53085   2.675   5.624   2.375  0.4527 -0.0064  0.4248
17435SOL    HW153086   2.724   5.669   2.443  1.0283  0.2956 -0.1759
17435SOL    HW253087   2.606   5.686   2.351 -0.4235 -0.5421  1.4619
17436SOL     OW53088   8.290   5.944   2.770 -0.2463  0.4554  0.4951
17436SOL    HW153089   8.328   6.029   2.793 -0.0551  0.4306  0.2657
17436SOL    HW253090   8.358   5.880   2.790 -0.2550  0.3897  0.3153
17437SOL     OW53091   5.864   3.819   0.095 -0.7964  0.1813  0.3583
17437SOL    HW153092   5.938   3.793   0.040  1.0023 -0.5080  2.8942
17437SOL    HW253093   5.828   3.737   0.127 -1.5525  0.5693  0.5148
17438SOL     OW53094   2.577   6.467   6.389 -0.2723 -0.1590 -0.3059
17438SOL    HW153095   2.570   6.554   6.427 -2.1570  0.6559 -2.3412
17438SOL    HW253096   2.621   6.415   6.456 -0.9756  1.8301  1.8126
17439SOL     OW53097   4.614   2.395   0.739 -0.2309  0.3458 -0.4220
17439SOL    HW153098   4.666   2.448   0.678 -0.0034  0.7118  0.0806
17439SOL    HW253099   4.621   2.442   0.822 -1.2407  0.3049 -0.3111
17440SOL     OW53100   5.528   6.842   1.127  0.2399 -0.0537 -0.3209
17440SOL    HW153101   5.473   6.797   1.063  1.1950  0.8107 -1.8004
17440SOL    HW253102   5.520   6.935   1.106  2.6328  0.0868 -0.9665
17441SOL     OW53103   4.271   1.715   7.061 -0.0434  0.4629 -0.1668
17441SOL    HW153104   4.271   1.810   7.050 -0.0878  0.8545  2.5283
17441SOL    HW253105   4.356   1.687   7.028  1.6745  2.0388  2.5184
17442SOL     OW53106   8.133   1.801   2.570  0.3796 -0.3872  0.0496
17442SOL    HW153107   8.071   1.729   2.554  1.0482 -1.2685  1.2262
17442SOL    HW253108   8.161   1.787   2.661  3.2819 -0.7890 -0.8382
17443SOL     OW53109   6.011   7.207   5.132  0.6580 -0.0186 -0.1593
17443SOL    HW153110   6.049   7.273   5.189 -0.9801  0.1061  0.8797
17443SOL    HW253111   5.994   7.132   5.190 -1.4528  0.2766 -0.3200
17444SOL     OW53112   8.043   4.191   2.670  0.0184 -0.2593 -0.0854
17444SOL    HW153113   8.058   4.101   2.698 -0.9744  0.1079  1.7537
17444SOL    HW253114   8.084   4.245   2.737  0.4944  0.6922 -1.0961
17445SOL     OW53115   4.628   7.942   1.743  0.3456 -0.5101  0.1493
17445SOL    HW153116   4.721   7.932   1.767 -0.4797  0.1257  4.5012
17445SOL    HW253117   4.609   8.034   1.761 -0.7575 -0.0393 -2.8336
17446SOL     OW53118   0.252   1.480   1.474  0.2769  0.0655  0.2745
17446SOL    HW153119   0.185   1.540   1.508 -0.9311 -1.0981  0.0658
17446SOL    HW253120   0.325   1.489   1.534 -0.8644 -0.1157  1.7571
17447SOL     OW53121   2.992   4.699   7.610  0.4824  0.1611  0.1646
17447SOL    HW153122   3.029   4.680   7.697  0.1164 -1.3862  0.0183
17447SOL    HW253123   2.920   4.758   7.627 -0.5032 -1.2452  1.1275
17448SOL     OW53124   5.460   6.282   0.872 -0.5217 -0.4306 -0.0735
17448SOL    HW153125   5.452   6.329   0.955 -0.1188  0.8435 -0.7306
17448SOL    HW253126   5.554   6.270   0.860 -0.5806 -0.6346 -0.3407
17449SOL     OW53127   0.160   3.937   8.108 -0.4114 -0.2729  0.1623
17449SOL    HW153128   0.196   3.942   8.197 -1.3926 -0.7985  0.6069
17449SOL    HW253129   0.077   3.983   8.113 -1.0258 -1.3045 -0.1750
17450SOL     OW53130   8.091   6.058   6.356 -0.3143  0.1673 -0.0511
17450SOL    HW153131   8.065   5.972   6.321  0.9114  0.7600 -2.6770
17450SOL    HW253132   8.023   6.080   6.420 -0.6022 -2.7793  0.8121
17451SOL     OW53133   2.515   1.743   2.418  0.6668 -0.0222  0.0236
17451SOL    HW153134   2.581   1.715   2.482 -0.8387 -0.9074  1.2366
17451SOL    HW253135   2.456   1.801   2.467 -0.5093 -0.7087 -0.5437
17452SOL     OW53136   1.451   2.303   3.052 -0.1073  0.6872 -0.0743
17452SOL    HW153137   1.531   2.252   3.066 -0.7013 -0.9509 -2.1236
17452SOL    HW253138   1.469   2.388   3.093  2.1996 -0.0445  0.5712
17453SOL     OW53139   0.969   5.279   4.401  0.0908 -0.2590  0.3985
17453SOL    HW153140   0.931   5.312   4.482  2.1914  2.0804  0.5476
17453SOL    HW253141   0.972   5.184   4.413 -0.6548 -0.0588  2.5777
17454SOL     OW53142   2.021   0.731   5.603  0.1443 -0.5268 -0.6006
17454SOL    HW153143   2.046   0.817   5.636  0.8617 -0.3162 -1.6430
17454SOL    HW253144   1.961   0.749   5.531 -0.2773 -0.9276 -0.3558
17455SOL     OW53145   2.224   4.655   7.935  0.1156  0.0119  0.6917
17455SOL    HW153146   2.284   4.610   7.876 -1.1290 -1.0616  0.1830
17455SOL    HW253147   2.202   4.736   7.889 -1.2852 -1.0703 -0.6602
17456SOL     OW53148   3.333   5.367   1.410  0.4043 -0.2238  0.3791
17456SOL    HW153149   3.301   5.288   1.455  0.0224  0.9942  2.4102
17456SOL    HW253150   3.427   5.356   1.406  0.3223 -0.9411  0.3489
17457SOL     OW53151   6.891   1.085   7.834 -0.2020 -0.1311 -0.3458
17457SOL    HW153152   6.862   1.076   7.744  2.0890  2.1466 -1.4281
17457SOL    HW253153   6.984   1.062   7.832 -0.0179  0.3326  1.3478
17458SOL     OW53154   6.289   1.405   4.189  0.3405  0.6017  0.1582
17458SOL    HW153155   6.367   1.374   4.144 -0.1365  1.0807 -1.0667
17458SOL    HW253156   6.320   1.435   4.274  1.2110 -0.7607  0.3528
17459SOL     OW53157   0.031   6.257   5.105  0.1026 -0.3742 -0.1742
17459SOL    HW153158   0.121   6.285   5.120 -0.0634  1.2816 -1.8051
17459SOL    HW253159  -0.018   6.295   5.179  0.6519 -0.8390  0.4375
17460SOL     OW53160   7.602   4.696   7.562  0.0720 -0.4258  0.3647
17460SOL    HW153161   7.624   4.605   7.544 -1.7806 -0.9431  0.5639
17460SOL    HW253162   7.683   4.744   7.545  0.8571 -2.0042 -0.5238
17461SOL     OW53163   6.602   1.903   6.837  0.1581 -0.1869 -0.2461
17461SOL    HW153164   6.533   1.838   6.853 -0.4946  0.1624 -1.5464
17461SOL    HW253165   6.676   1.872   6.889  0.0087 -2.2173 -1.1576
17462SOL     OW53166   4.421   5.979   5.723  0.1300 -0.3344  0.0175
17462SOL    HW153167   4.486   5.976   5.653  1.1036  0.2045  0.8864
17462SOL    HW253168   4.439   5.901   5.775  0.1658 -0.1115  0.3392
17463SOL     OW53169   7.570   6.270   0.884  0.4310 -0.5562 -0.3819
17463SOL    HW153170   7.602   6.254   0.795  1.3174 -0.8369 -0.0195
17463SOL    HW253171   7.642   6.242   0.941  0.8872  1.9302  0.3662
17464SOL     OW53172   7.723   1.784   4.793 -0.6560 -0.3671 -0.0749
17464SOL    HW153173   7.818   1.794   4.781 -0.3766 -1.9192  0.5487
17464SOL    HW253174   7.685   1.860   4.748  0.8421 -0.1068 -0.9904
17465SOL     OW53175   6.890   2.219   4.187  0.3972 -0.1632 -0.1519
17465SOL    HW153176   6.864   2.128   4.172  2.2774 -0.8861  0.6634
17465SOL    HW253177   6.833   2.270   4.130 -2.2775 -1.6259  1.0399
17466SOL     OW53178   0.365   1.266   4.038  0.1839 -0.7351 -0.2712
17466SOL    HW153179   0.350   1.329   3.968  2.7697  0.6246  0.2678
17466SOL    HW253180   0.371   1.181   3.994  0.0910 -0.1416 -1.4539
17467SOL     OW53181   7.162   0.441   0.945  0.3471  0.4083 -0.3749
17467SOL    HW153182   7.090   0.382   0.968  0.4540  0.0664 -0.8899
17467SOL    HW253183   7.152   0.516   1.003  0.5923 -0.4129  0.7699
17468SOL     OW53184   0.111   7.548   3.911 -0.1372  0.1998  0.0216
17468SOL    HW153185   0.080   7.538   3.821 -0.4697  0.3594  0.1179
17468SOL    HW253186   0.139   7.460   3.937 -2.0709 -0.3195  0.5095
17469SOL     OW53187   1.911   3.739   7.854 -0.4930  0.0240  0.8863
17469SOL    HW153188   1.861   3.812   7.890 -0.7391  0.5283 -0.4475
17469SOL    HW253189   1.992   3.738   7.906  0.7983  3.0696 -0.8043
17470SOL     OW53190   0.185   1.459   2.231 -0.1584  0.4793 -0.2983
17470SOL    HW153191   0.187   1.412   2.314 -0.0300 -0.8039 -1.0141
17470SOL    HW253192   0.189   1.552   2.257  0.2888  0.1017  1.1015
17471SOL     OW53193   8.154   0.285   1.565  0.2163  0.3436  0.4661
17471SOL    HW153194   8.221   0.220   1.545 -0.5635 -0.3587  0.0893
17471SOL    HW253195   8.184   0.365   1.520  2.2226  0.8841  2.5818
17472SOL     OW53196   7.875   0.289   4.462 -0.1857 -0.6134 -0.0011
17472SOL    HW153197   7.784   0.318   4.459  0.2441  0.8440 -0.0067
17472SOL    HW253198   7.922   0.355   4.410  0.9226 -1.1146  0.3423
17473SOL     OW53199   4.958   6.340   6.829 -0.2314 -0.2837  0.7553
17473SOL    HW153200   4.931   6.248   6.826 -0.2154 -0.2734 -1.6496
17473SOL    HW253201   5.015   6.351   6.753  0.9435  1.3897  1.8100
17474SOL     OW53202   5.622   2.174   4.811 -0.5624  0.2317  0.9546
17474SOL    HW153203   5.716   2.160   4.814 -0.5157  0.3839  0.3856
17474SOL    HW253204   5.603   2.189   4.718 -1.4345 -1.8837  0.7265
17475SOL     OW53205   4.309   2.568   3.405  0.3277 -0.6402 -0.2581
17475SOL    HW153206   4.248   2.526   3.465 -0.1502  0.5630  0.1255
17475SOL    HW253207   4.304   2.661   3.426  1.2648 -0.3589 -1.1624
17476SOL     OW53208   2.393   5.856   6.664  0.3446  0.6537 -0.2599
17476SOL    HW153209   2.400   5.948   6.691 -0.0325  0.2218  1.3632
17476SOL    HW253210   2.471   5.814   6.700 -0.1489  0.0691  0.1518
17477SOL     OW53211   8.084   4.153   3.377 -0.6255  0.3503  0.0402
17477SOL    HW153212   8.122   4.233   3.415  0.5806  1.7216 -3.5890
17477SOL    HW253213   8.157   4.092   3.372 -0.0698  1.0771 -2.0624
17478SOL     OW53214   0.455   3.883   5.887 -0.5465 -0.1596 -0.0859
17478SOL    HW153215   0.490   3.820   5.824 -0.2299 -1.2009  1.0817
17478SOL    HW253216   0.466   3.840   5.972 -1.2885  1.0513  0.6512
17479SOL     OW53217   6.601   2.562   1.110 -1.0503 -0.5494  0.3469
17479SOL    HW153218   6.631   2.636   1.163  1.8344 -1.1452 -0.2714
17479SOL    HW253219   6.541   2.601   1.046 -1.8585  0.7342  1.7997
17480SOL     OW53220   7.150   6.990   8.131 -0.2471  0.2576  0.2252
17480SOL    HW153221   7.072   6.965   8.082  0.2044  0.2601 -0.5229
17480SOL    HW253222   7.120   7.059   8.191 -0.8413  0.1584  0.0457
17481SOL     OW53223   1.762   3.021   0.735 -0.0193  0.4593 -0.0098
17481SOL    HW153224   1.840   3.035   0.682  0.8973  0.8269  1.3838
17481SOL    HW253225   1.719   2.945   0.694 -0.1433  1.5856 -2.1059
17482SOL     OW53226   5.545   4.156   5.545 -0.5595 -0.0210  0.0896
17482SOL    HW153227   5.551   4.110   5.461  0.2103 -0.7430  0.5274
17482SOL    HW253228   5.593   4.238   5.531 -1.2376  0.3025 -0.4422
17483SOL     OW53229   3.850   0.205   6.750 -0.2335  0.5987  0.1326
17483SOL    HW153230   3.807   0.173   6.829 -0.7600 -0.9355 -0.7246
17483SOL    HW253231   3.942   0.216   6.775 -0.7225  2.1116  1.4720
17484SOL     OW53232   4.971   5.637   5.493 -0.1766  0.2136  0.0807
17484SOL    HW153233   4.915   5.562   5.514 -1.1309  1.1264  0.9361
17484SOL    HW253234   5.053   5.619   5.539  0.5722 -1.5058 -1.8084
17485SOL     OW53235   0.621   0.325   1.274 -0.3257  0.2178 -0.0092
17485SOL    HW153236   0.699   0.344   1.327 -1.2337  0.6290  1.2112
17485SOL    HW253237   0.613   0.230   1.278  0.5822  0.0849 -0.8544
17486SOL     OW53238   2.255   7.996   0.295 -0.0464  0.2539 -0.4240
17486SOL    HW153239   2.222   8.077   0.255 -0.3107  0.0600 -0.6015
17486SOL    HW253240   2.320   7.964   0.233 -0.1177  0.2038 -0.4742
17487SOL     OW53241   5.179   5.550   2.794  0.3474 -0.6493 -0.0655
17487SOL    HW153242   5.237   5.598   2.854 -0.4899 -0.7684  0.8598
17487SOL    HW253243   5.195   5.458   2.815 -0.6524 -0.6666  0.6675
17488SOL     OW53244   0.372   5.460   3.712  0.0200  0.3658  0.5895
17488SOL    HW153245   0.372   5.541   3.661  1.9395  0.9635  1.4192
17488SOL    HW253246   0.420   5.397   3.656 -0.8903 -0.0191  0.2264
17489SOL     OW53247   3.392   5.205   3.367 -0.0432 -0.3302  0.1540
17489SOL    HW153248   3.316   5.254   3.337  0.6412  1.1946  0.8077
17489SOL    HW253249   3.364   5.113   3.367 -2.0096  0.2396  0.8372
17490SOL     OW53250   5.232   7.373   5.020  0.5000 -0.5894 -0.4877
17490SOL    HW153251   5.161   7.310   5.033  0.0923 -0.3921 -1.6157
17490SOL    HW253252   5.226   7.432   5.095  1.8928 -2.7584  1.4631
17491SOL     OW53253   7.546   6.331   8.051  0.3394  0.1693  0.1351
17491SOL    HW153254   7.506   6.259   8.002  1.2977 -1.1230  1.1774
17491SOL    HW253255   7.628   6.349   8.004  1.1769 -0.9579  1.0894
17492SOL     OW53256   4.237   4.742   3.073  0.3795  0.4540  0.1468
17492SOL    HW153257   4.233   4.772   2.982 -1.2458  0.1134  0.0865
17492SOL    HW253258   4.167   4.789   3.117  0.8675  0.2764  1.1384
17493SOL     OW53259   0.737   6.547   0.667 -0.3315  0.2703  0.4212
17493SOL    HW153260   0.791   6.530   0.590 -0.9485 -0.1872  0.0809
17493SOL    HW253261   0.794   6.597   0.725  0.0697  0.8101 -0.4158
17494SOL     OW53262   7.851   2.723   3.624  0.7543  0.1626 -0.3775
17494SOL    HW153263   7.773   2.684   3.664  0.6756  0.9744  0.2890
17494SOL    HW253264   7.827   2.814   3.608  0.9802 -0.0151 -1.7894
17495SOL     OW53265   4.782   7.216   2.606  0.5463 -0.0491  0.4557
17495SOL    HW153266   4.730   7.294   2.624  1.3696  0.2747  1.5692
17495SOL    HW253267   4.781   7.166   2.687  0.2649 -1.0685 -0.1586
17496SOL     OW53268   5.761   6.318   6.628 -0.1029 -0.1047 -0.8088
17496SOL    HW153269   5.799   6.406   6.625  2.0745 -0.9125  0.3082
17496SOL    HW253270   5.771   6.284   6.539  2.4680 -0.4631 -0.4664
17497SOL     OW53271   1.368   6.648   3.418  0.7331  1.1259  0.0741
17497SOL    HW153272   1.351   6.677   3.508  0.9050  2.4385 -0.3027
17497SOL    HW253273   1.309   6.701   3.364  1.4700  1.1936 -0.6884
17498SOL     OW53274   0.621   0.968   1.310 -0.7124  0.2316 -0.3081
17498SOL    HW153275   0.559   0.931   1.247 -1.1516  1.1280 -0.4205
17498SOL    HW253276   0.639   0.896   1.370 -1.5192 -0.1826 -0.5339
17499SOL     OW53277   1.030   3.641   4.756  0.4788 -0.1878  0.7301
17499SOL    HW153278   1.091   3.618   4.686  0.2596  0.2750  0.3813
17499SOL    HW253279   1.005   3.557   4.795  0.4447 -0.4649  0.1220
17500SOL     OW53280   5.255   0.528   6.617  0.1266  0.1606 -0.2194
17500SOL    HW153281   5.233   0.582   6.542  1.7833  2.7860  1.0370
17500SOL    HW253282   5.220   0.441   6.596 -0.1364  0.9724 -3.6262
17501SOL     OW53283   6.048   7.585   7.710  0.2688  0.4040 -0.6014
17501SOL    HW153284   6.136   7.607   7.681  0.2210 -0.3875 -1.3722
17501SOL    HW253285   6.007   7.543   7.634 -0.2746 -0.5837  0.2118
17502SOL     OW53286   2.068   0.134   1.142 -0.1793 -0.9906 -0.3029
17502SOL    HW153287   2.131   0.150   1.212  0.4965  0.0549 -1.1133
17502SOL    HW253288   2.122   0.112   1.066 -0.7503  0.2328 -1.0881
17503SOL     OW53289   4.607   7.425   2.655  0.5195  0.0144  0.4938
17503SOL    HW153290   4.581   7.517   2.659 -0.1262 -0.0364 -1.3633
17503SOL    HW253291   4.525   7.377   2.641  1.0416 -0.6404 -0.4806
17504SOL     OW53292   1.419   2.010   5.380  0.0013  0.9486 -0.3881
17504SOL    HW153293   1.342   2.057   5.348 -0.2041  1.2613  0.5279
17504SOL    HW253294   1.428   2.039   5.471 -0.6060 -1.3642  0.4644
17505SOL     OW53295   1.029   0.955   5.002 -0.3754 -0.0686 -0.3693
17505SOL    HW153296   1.033   0.916   4.914 -0.4566 -1.5071  0.2342
17505SOL    HW253297   1.057   0.885   5.061  0.5227  1.1359  0.7014
17506SOL     OW53298   0.276   6.468   7.415  0.2450  0.5804 -0.7502
17506SOL    HW153299   0.252   6.561   7.416 -0.7100  0.3432 -0.0104
17506SOL    HW253300   0.331   6.458   7.338  0.2606  1.7419 -0.9006
17507SOL     OW53301   2.893   7.858   2.852 -0.0920 -0.1191 -0.0117
17507SOL    HW153302   2.805   7.880   2.821 -0.4587 -0.8537  0.4705
17507SOL    HW253303   2.944   7.937   2.836 -1.0207  0.5875  0.3654
17508SOL     OW53304   4.633   4.017   1.679 -0.3377  0.0057 -0.3862
17508SOL    HW153305   4.688   4.013   1.601  1.7558  0.0398  1.0191
17508SOL    HW253306   4.675   4.082   1.735 -0.7873 -1.2294  1.4833
17509SOL     OW53307   1.702   2.182   0.749 -0.6107  0.2134 -0.3416
17509SOL    HW153308   1.743   2.178   0.835  0.5249  1.6019 -0.7846
17509SOL    HW253309   1.704   2.091   0.718 -1.2462 -0.3499  1.1510
17510SOL     OW53310   1.715   7.593   1.043 -0.3180  0.2475 -0.2133
17510SOL    HW153311   1.730   7.670   0.989 -0.8944  0.2965 -0.3121
17510SOL    HW253312   1.795   7.583   1.094  0.4052 -0.0392 -1.3683
17511SOL     OW53313   7.693   6.931   0.323 -0.0141  0.2191 -0.2726
17511SOL    HW153314   7.730   7.012   0.288  0.3529 -0.3702 -1.2636
17511SOL    HW253315   7.602   6.930   0.293  0.5465 -0.7443 -2.0993
17512SOL     OW53316   3.259   7.001   6.145 -0.1720 -0.1412  0.1084
17512SOL    HW153317   3.255   6.911   6.177  0.9582 -0.2987 -0.1528
17512SOL    HW253318   3.291   7.051   6.219 -0.8747  0.0667  0.2775
17513SOL     OW53319   5.476   2.153   6.979  0.5033 -0.2212  0.3153
17513SOL    HW153320   5.525   2.227   6.945  1.6507 -0.4467  1.4213
17513SOL    HW253321   5.388   2.188   6.993  0.3114  0.2085 -1.6096
17514SOL     OW53322   7.673   2.563   8.019  0.0447  0.1944  0.1660
17514SOL    HW153323   7.617   2.505   8.071 -0.5982 -1.9487 -2.6329
17514SOL    HW253324   7.759   2.558   8.060 -0.3985 -1.4668  0.9660
17515SOL     OW53325   4.426   4.256   4.482 -0.5667  0.3415  0.0526
17515SOL    HW153326   4.520   4.237   4.478 -0.9168 -1.4626 -0.1648
17515SOL    HW253327   4.408   4.303   4.400 -0.0052 -0.0160 -0.2816
17516SOL     OW53328   3.376   2.599   1.891  0.0204  0.4068 -0.6424
17516SOL    HW153329   3.352   2.654   1.816  1.6721 -0.0925 -1.5902
17516SOL    HW253330   3.468   2.620   1.908 -0.1614  0.0889  0.9001
17517SOL     OW53331   0.247   4.230   1.616  0.4817  0.3963 -0.0776
17517SOL    HW153332   0.269   4.141   1.588 -1.2536 -0.2193  0.3835
17517SOL    HW253333   0.250   4.227   1.711 -0.0620  0.6844 -0.0433
17518SOL     OW53334   1.051   0.904   3.677  0.6181 -0.9199 -0.3760
17518SOL    HW153335   1.039   0.987   3.632  0.8058 -1.1742 -0.9145
17518SOL    HW253336   0.962   0.871   3.692  0.5548 -0.9646 -0.8288
17519SOL     OW53337   4.963   1.782   4.132  0.0275  0.4364  0.0982
17519SOL    HW153338   5.041   1.838   4.134 -0.4798  1.1741 -0.1353
17519SOL    HW253339   4.907   1.823   4.066  0.5023 -1.5568 -1.6369
17520SOL     OW53340   0.112   3.931   2.026 -0.2114 -0.2228 -0.1438
17520SOL    HW153341   0.072   4.016   2.008 -0.1549 -0.5026 -1.6788
17520SOL    HW253342   0.175   3.948   2.097 -1.0254  0.7660  0.3657
17521SOL     OW53343   5.189   2.575   6.598 -0.1910 -0.5557  0.1656
17521SOL    HW153344   5.221   2.551   6.685  0.5762 -1.6624 -0.4009
17521SOL    HW253345   5.100   2.608   6.614  0.2650  0.1213  1.4577
17522SOL     OW53346   6.828   7.627   0.732 -0.6713 -0.1445  0.0847
17522SOL    HW153347   6.798   7.696   0.792 -0.8659 -0.1185 -0.0428
17522SOL    HW253348   6.924   7.633   0.736 -0.6859  0.5740 -0.4239
17523SOL     OW53349   2.974   0.765   7.583 -0.2537  0.1962  0.1203
17523SOL    HW153350   3.055   0.812   7.564 -0.8899  1.1088 -0.4023
17523SOL    HW253351   2.906   0.831   7.577 -0.9379 -0.3181  1.6628
17524SOL     OW53352   3.356   5.013   1.896  0.2346 -0.2174 -0.6296
17524SOL    HW153353   3.316   4.983   1.815 -2.2185 -0.5247  0.6058
17524SOL    HW253354   3.306   4.969   1.965  3.4137 -1.4615  1.0929
17525SOL     OW53355   6.003   4.727   3.945 -0.6224 -0.2940 -0.0090
17525SOL    HW153356   5.937   4.738   4.014 -0.6632 -2.6274  0.3829
17525SOL    HW253357   6.082   4.769   3.980 -0.8022 -0.9481  1.2195
17526SOL     OW53358   7.052   5.726   5.215  0.4530 -0.6136 -0.0802
17526SOL    HW153359   7.045   5.660   5.283  0.3388 -0.1030  0.4151
17526SOL    HW253360   6.995   5.695   5.145  0.5093 -1.1016  0.0851
17527SOL     OW53361   0.285   0.550   0.734 -0.3514  0.1282 -0.6134
17527SOL    HW153362   0.240   0.539   0.650 -1.2354  1.7091 -0.3990
17527SOL    HW253363   0.339   0.628   0.722 -2.0548  1.6240  0.8575
17528SOL     OW53364   7.397   2.576   1.348 -0.1842 -0.4558  0.0310
17528SOL    HW153365   7.318   2.525   1.365 -1.8813  2.0118  0.0671
17528SOL    HW253366   7.376   2.627   1.270  0.7554  1.3404  0.8900
17529SOL     OW53367   3.062   6.249   1.212 -0.1738 -0.2008  0.6818
17529SOL    HW153368   3.076   6.163   1.252  0.2453 -0.1798  0.5825
17529SOL    HW253369   2.987   6.285   1.259 -0.8639 -0.9473  0.1853
17530SOL     OW53370   5.882   2.133   7.085  1.0844 -0.4414 -0.0868
17530SOL    HW153371   5.947   2.200   7.065 -1.1458  1.1664 -2.7624
17530SOL    HW253372   5.798   2.178   7.075 -0.5034 -2.7172  1.9494
17531SOL     OW53373   4.202   2.641   0.489  0.0422  0.0243  0.0277
17531SOL    HW153374   4.120   2.690   0.483 -1.2556 -1.0784  4.6842
17531SOL    HW253375   4.175   2.549   0.488  1.4899 -0.4205 -0.5098
17532SOL     OW53376   5.909   0.661   1.575  0.0073  0.1784  0.0438
17532SOL    HW153377   5.915   0.699   1.487  1.1866  1.1184  0.5092
17532SOL    HW253378   5.953   0.576   1.567 -0.1346  0.1377 -0.3307
17533SOL     OW53379   7.324   0.474   5.442  0.2429 -0.1962 -0.0246
17533SOL    HW153380   7.365   0.411   5.382  2.2104  0.6417  0.3666
17533SOL    HW253381   7.332   0.434   5.528  0.5745  0.1112  0.0930
17534SOL     OW53382   4.375   4.819   2.091 -0.4131 -0.3692  0.0717
17534SOL    HW153383   4.396   4.810   1.998 -0.3309  0.7240 -0.0193
17534SOL    HW253384   4.433   4.888   2.123 -1.0537 -0.1252  0.7352
17535SOL     OW53385   0.469   5.227   7.249  0.1777 -0.0221 -0.0472
17535SOL    HW153386   0.478   5.312   7.205  0.9193  0.3740  0.8395
17535SOL    HW253387   0.375   5.217   7.263  0.2123  1.5858  1.6130
17536SOL     OW53388   1.383   0.926   3.002 -0.3897 -0.2719 -0.1804
17536SOL    HW153389   1.448   0.908   2.935 -0.6076  0.2673 -0.5444
17536SOL    HW253390   1.433   0.935   3.083 -0.1795 -1.4707 -0.1619
17537SOL     OW53391   1.920   0.047   4.015 -0.2157 -0.2886  0.6209
17537SOL    HW153392   1.974   0.055   4.093  0.5627  1.9971 -0.0905
17537SOL    HW253393   1.883   0.134   4.002 -0.9454 -0.8154 -1.1160
17538SOL     OW53394   5.127   7.926   7.862 -0.3521 -0.5597  0.2474
17538SOL    HW153395   5.118   7.832   7.845  0.5519 -0.4673 -0.8296
17538SOL    HW253396   5.140   7.965   7.776 -1.8346  0.7143  0.5458
17539SOL     OW53397   8.159   6.571   7.457 -0.3773 -0.0232  0.4118
17539SOL    HW153398   8.108   6.494   7.432 -0.2010  0.1125 -0.3739
17539SOL    HW253399   8.096   6.643   7.454 -0.0409  0.2382 -1.1003
17540SOL     OW53400   5.424   2.246   3.374 -0.5048  0.3316 -0.2080
17540SOL    HW153401   5.457   2.173   3.321 -0.8347  0.3912 -0.4949
17540SOL    HW253402   5.363   2.292   3.317 -0.0904  0.9989 -0.1194
17541SOL     OW53403   1.884   7.238   7.649  0.2507 -0.0947  0.4584
17541SOL    HW153404   1.929   7.164   7.689  0.6962  1.2549  2.5872
17541SOL    HW253405   1.920   7.315   7.693 -1.9196  1.2512  0.0240
17542SOL     OW53406   7.724   7.596   0.584  0.3632  0.6195  0.4699
17542SOL    HW153407   7.767   7.519   0.547 -0.7639 -0.4923  1.4144
17542SOL    HW253408   7.795   7.645   0.625  1.0238 -0.1393  0.2669
17543SOL     OW53409   0.773   7.512   2.720 -0.9192 -0.1181 -0.3739
17543SOL    HW153410   0.776   7.584   2.783 -1.8163 -1.2713  1.0694
17543SOL    HW253411   0.683   7.512   2.687 -0.8746 -0.4702 -0.5007
17544SOL     OW53412   7.677   7.041   5.545  0.0528 -0.7208 -0.0688
17544SOL    HW153413   7.614   7.000   5.604 -1.0311 -0.2887 -0.9097
17544SOL    HW253414   7.629   7.112   5.502  0.8011 -1.0077 -1.4584
17545SOL     OW53415   5.453   5.525   3.943  0.4881  0.1334  0.1386
17545SOL    HW153416   5.443   5.613   3.979  0.7299  0.7359 -1.2144
17545SOL    HW253417   5.457   5.468   4.020  1.8000  1.4503  1.0950
17546SOL     OW53418   0.863   0.436   1.051 -0.0610 -0.5162  0.2603
17546SOL    HW153419   0.793   0.499   1.036  0.0841 -0.3052  0.4519
17546SOL    HW253420   0.940   0.490   1.071  0.3357 -0.7210 -0.6646
17547SOL     OW53421   5.953   4.788   6.850 -0.4776  0.4585 -0.1664
17547SOL    HW153422   5.866   4.781   6.889 -0.4700 -0.0383 -0.2319
17547SOL    HW253423   6.014   4.780   6.923 -0.4617 -0.5206 -0.2655
17548SOL     OW53424   1.251   5.715   7.723  0.2937  0.0370  0.1672
17548SOL    HW153425   1.158   5.726   7.703  0.3863  0.7698  0.0922
17548SOL    HW253426   1.272   5.626   7.695 -0.3706 -0.1113  0.1329
17549SOL     OW53427   2.096   7.033   4.119 -0.8301 -0.2283  0.0303
17549SOL    HW153428   2.018   7.053   4.067 -0.4521  1.1835 -0.0303
17549SOL    HW253429   2.063   6.982   4.193 -1.6624 -0.4723 -0.4964
17550SOL     OW53430   1.963   4.299   7.956 -0.1966  0.0021  0.1282
17550SOL    HW153431   1.926   4.322   7.870 -0.0099 -1.5936 -0.4187
17550SOL    HW253432   1.957   4.380   8.007 -0.3996  0.9716 -1.3525
17551SOL     OW53433   5.521   5.995   2.092 -0.3499 -0.7221  0.4625
17551SOL    HW153434   5.522   6.082   2.051 -0.5134 -0.3928  1.1468
17551SOL    HW253435   5.606   5.957   2.069 -0.4995 -0.6024 -0.3059
17552SOL     OW53436   6.753   2.439   4.027  0.6997  0.0313 -0.2561
17552SOL    HW153437   6.742   2.419   3.934  0.7358  0.1270 -0.2807
17552SOL    HW253438   6.840   2.479   4.034  0.7337 -0.0562 -0.1682
17553SOL     OW53439   5.344   1.488   4.545 -0.1595  0.0995 -0.0363
17553SOL    HW153440   5.419   1.502   4.604 -0.7867 -0.4450  0.9121
17553SOL    HW253441   5.329   1.393   4.548 -0.6529  0.1585 -0.5160
17554SOL     OW53442   6.436   2.929   0.517  0.1421  0.6620 -0.1351
17554SOL    HW153443   6.507   2.909   0.577 -0.9916  0.5279  1.2227
17554SOL    HW253444   6.357   2.921   0.571 -0.9767 -0.1726 -1.8158
17555SOL     OW53445   1.172   2.121   1.290 -0.8225 -0.0597  0.3384
17555SOL    HW153446   1.234   2.177   1.337 -0.1227  2.2116 -2.9657
17555SOL    HW253447   1.088   2.139   1.332  0.0287  0.2530  2.0074
17556SOL     OW53448   1.909   3.114   0.163 -0.1263 -0.2524  0.0576
17556SOL    HW153449   1.970   3.041   0.179  1.3000  0.7169 -0.7862
17556SOL    HW253450   1.841   3.103   0.230  1.9489 -0.3200  2.2974
17557SOL     OW53451   1.947   2.522   5.811 -0.1951  0.7962 -0.1449
17557SOL    HW153452   1.971   2.449   5.868  1.0696  0.2040 -1.3819
17557SOL    HW253453   1.904   2.585   5.870  0.5377 -0.0327  1.3411
17558SOL     OW53454   6.055   0.108   6.584 -0.4170 -0.1843  0.9504
17558SOL    HW153455   6.006   0.125   6.665  0.9644 -0.9088  1.9618
17558SOL    HW253456   6.132   0.058   6.612  0.0333 -0.5431 -0.8332
17559SOL     OW53457   4.208   1.671   2.217  0.1479  0.5584 -0.1985
17559SOL    HW153458   4.272   1.674   2.146  0.8125 -2.9232  0.0593
17559SOL    HW253459   4.128   1.639   2.176 -0.3921  1.4585  0.1256
17560SOL     OW53460   1.276   2.281   1.473  0.3753  0.5821  0.0188
17560SOL    HW153461   1.356   2.325   1.500  0.7979 -0.6319  0.8325
17560SOL    HW253462   1.255   2.221   1.545 -0.6766  0.1186 -0.6338
17561SOL     OW53463   5.016   0.427   4.554  0.0983  0.0493 -0.0022
17561SOL    HW153464   4.991   0.496   4.492 -1.5801 -0.0584  0.5041
17561SOL    HW253465   5.101   0.456   4.588  0.0687  1.1746 -0.7996
17562SOL     OW53466   5.354   2.769   3.808  0.2885 -0.8111 -0.0635
17562SOL    HW153467   5.298   2.795   3.881  0.1036  0.6604 -0.6879
17562SOL    HW253468   5.437   2.746   3.849 -0.1482 -1.0588  0.6988
17563SOL     OW53469   5.931   6.727   5.500 -0.3375 -0.4558  0.3225
17563SOL    HW153470   5.977   6.806   5.529 -1.9417  0.0440  1.7019
17563SOL    HW253471   5.997   6.658   5.502  0.9902  0.7441 -0.4709
17564SOL     OW53472   2.809   0.761   6.179  0.4166  0.3008 -0.3107
17564SOL    HW153473   2.875   0.755   6.248 -0.7173  0.9225  0.8729
17564SOL    HW253474   2.761   0.677   6.185  2.7022 -1.3634 -2.9606
17565SOL     OW53475   4.247   4.288   0.594  0.0418  0.2921  0.3413
17565SOL    HW153476   4.326   4.233   0.594  0.7971  1.2719  2.1388
17565SOL    HW253477   4.280   4.377   0.597 -1.0514  0.6945  2.9521
17566SOL     OW53478   1.247   4.538   1.642 -0.4145  0.1144  0.8731
17566SOL    HW153479   1.158   4.506   1.631 -0.1613 -0.4590  0.3912
17566SOL    HW253480   1.278   4.497   1.723 -0.0863 -0.9084  0.2509
17567SOL     OW53481   7.165   1.462   4.504 -0.5242 -0.5095 -0.3726
17567SOL    HW153482   7.209   1.383   4.535  0.8815 -0.1272 -1.2699
17567SOL    HW253483   7.230   1.531   4.514 -1.8650  0.6386  0.7613
17568SOL     OW53484   4.093   4.032   6.964  0.1794  0.1830  0.0316
17568SOL    HW153485   4.085   4.038   7.059  0.8263  0.0617  0.0987
17568SOL    HW253486   4.026   4.091   6.930  1.2402  1.7913  0.5939
17569SOL     OW53487   0.277   4.012   7.004 -0.0127 -0.1701  0.3564
17569SOL    HW153488   0.367   3.980   7.018 -0.1416 -1.7682 -1.9292
17569SOL    HW253489   0.227   3.933   6.984 -1.8908  0.7485  1.1948
17570SOL     OW53490   4.346   5.027   4.635 -0.3916 -0.1131 -0.0649
17570SOL    HW153491   4.335   5.111   4.590  1.3988 -0.9475 -2.2524
17570SOL    HW253492   4.304   4.964   4.577 -0.1801 -0.9554  0.6805
17571SOL     OW53493   2.360   1.996   7.317 -0.0262 -0.3494 -0.2938
17571SOL    HW153494   2.375   2.072   7.374 -0.5411 -0.0017 -0.6205
17571SOL    HW253495   2.294   1.945   7.363  0.1632 -0.4942 -0.1795
17572SOL     OW53496   5.868   0.778   5.248  0.6427 -0.2209 -0.0210
17572SOL    HW153497   5.806   0.708   5.271 -0.1082  0.8500  1.3504
17572SOL    HW253498   5.876   0.772   5.152  0.0731 -1.7259 -0.0088
17573SOL     OW53499   0.959   7.655   0.586 -0.2469 -0.3198  0.4710
17573SOL    HW153500   0.937   7.691   0.500  0.5625  0.7834  0.6999
17573SOL    HW253501   1.016   7.580   0.566 -1.7461 -1.3981  0.0002
17574SOL     OW53502   6.466   4.219   0.727 -0.3544 -0.2916  0.7777
17574SOL    HW153503   6.490   4.297   0.676  0.4337 -0.7913  0.3714
17574SOL    HW253504   6.371   4.224   0.733 -0.2619  1.2099  1.5761
17575SOL     OW53505   7.593   0.099   5.118 -0.1754 -0.1434 -0.6020
17575SOL    HW153506   7.523   0.142   5.070 -0.9331  0.6274  1.1371
17575SOL    HW253507   7.658   0.168   5.132 -1.0132  0.2834  1.4552
17576SOL     OW53508   7.152   2.221   7.122 -0.2228  0.2695 -0.1534
17576SOL    HW153509   7.208   2.298   7.112 -1.3726  1.0510 -0.9303
17576SOL    HW253510   7.192   2.155   7.065  2.4197 -0.7909  2.6477
17577SOL     OW53511   2.783   6.654   4.167  0.0916  0.5038  0.2642
17577SOL    HW153512   2.833   6.668   4.087  1.8959 -2.0260  0.8447
17577SOL    HW253513   2.702   6.612   4.137 -1.3259  3.4972 -0.5479
17578SOL     OW53514   5.119   2.149   4.910  0.1710  0.0126  0.0554
17578SOL    HW153515   5.041   2.204   4.913 -0.8370 -1.3725  0.4191
17578SOL    HW253516   5.141   2.143   4.817  1.0737  2.0322  0.1004
17579SOL     OW53517   2.462   4.601   8.144 -0.2090 -0.0842  0.0359
17579SOL    HW153518   2.403   4.604   8.219  0.6590 -2.5510  0.9324
17579SOL    HW253519   2.406   4.621   8.069 -1.5784  0.3260  1.1184
17580SOL     OW53520   2.756   1.528   5.636 -0.4693 -0.2987  0.0543
17580SOL    HW153521   2.707   1.470   5.695  0.6685 -0.5783  0.7568
17580SOL    HW253522   2.811   1.580   5.694 -2.2044  2.3263 -0.4428
17581SOL     OW53523   2.592   3.129   8.237 -0.3067 -0.0856  0.0106
17581SOL    HW153524   2.517   3.072   8.221 -1.0637  1.0400 -0.5752
17581SOL    HW253525   2.589   3.146   8.331 -1.5837  0.9997 -0.2082
17582SOL     OW53526   6.053   7.888   2.954  0.2564  0.4419 -0.3124
17582SOL    HW153527   5.961   7.914   2.949 -0.1887 -0.6482  1.3632
17582SOL    HW253528   6.050   7.792   2.954  1.4012  0.3964 -0.2728
17583SOL     OW53529   0.873   4.329   4.198 -0.9428  0.0414  0.5346
17583SOL    HW153530   0.779   4.312   4.191 -1.3389  2.0847  0.2185
17583SOL    HW253531   0.883   4.368   4.285 -0.3190 -0.4638  0.6936
17584SOL     OW53532   1.875   2.508   6.920 -0.0698  0.4661  0.1061
17584SOL    HW153533   1.831   2.521   6.835  0.4916  1.6484 -0.0319
17584SOL    HW253534   1.848   2.421   6.948  1.0812 -0.7137 -2.1148
17585SOL     OW53535   6.674   0.882   7.636 -0.0035 -0.0998  0.2067
17585SOL    HW153536   6.713   0.878   7.723 -0.3013 -0.3824  0.3285
17585SOL    HW253537   6.746   0.864   7.576  0.9847  3.3477  0.1726
17586SOL     OW53538   0.226   5.062   8.029 -0.2168  0.0005  0.0482
17586SOL    HW153539   0.187   4.978   8.005  2.1599 -1.0957 -0.2678
17586SOL    HW253540   0.317   5.055   8.000  0.5241  1.9943  1.6736
17587SOL     OW53541   2.245   2.558   0.191  0.0452  0.3996  0.5059
17587SOL    HW153542   2.207   2.508   0.263  1.1889  1.9660  2.3145
17587SOL    HW253543   2.264   2.493   0.124 -1.0126 -1.1468  1.6325
17588SOL     OW53544   5.147   2.813   3.174  0.6718 -0.6927  0.2538
17588SOL    HW153545   5.075   2.874   3.162  0.7868 -0.1316  2.1805
17588SOL    HW253546   5.225   2.862   3.146  0.8167  0.2570  2.1463
17589SOL     OW53547   3.749   6.440   3.713  0.0004 -0.0472 -0.4342
17589SOL    HW153548   3.808   6.365   3.706  0.9014  0.5880  0.0679
17589SOL    HW253549   3.677   6.420   3.653 -0.4749 -1.9338  0.6551
17590SOL     OW53550   7.203   3.727   4.864  0.3456 -0.1281  0.0757
17590SOL    HW153551   7.117   3.763   4.885  0.6662 -0.4765  2.2604
17590SOL    HW253552   7.192   3.686   4.778 -0.8233  2.4805 -1.1347
17591SOL     OW53553   6.215   0.945   3.769  0.4502 -0.0716 -0.9562
17591SOL    HW153554   6.305   0.913   3.760  0.6237  0.6254 -1.9430
17591SOL    HW253555   6.213   1.026   3.717 -0.6059  0.2134 -0.5054
17592SOL     OW53556   0.161   2.414   6.580  0.4979  0.0893  0.4817
17592SOL    HW153557   0.251   2.436   6.555  0.4309  1.7592  1.5516
17592SOL    HW253558   0.115   2.498   6.583 -0.8134 -0.6092  1.0423
17593SOL     OW53559   4.897   3.878   7.424  0.3660  0.2056 -0.4027
17593SOL    HW153560   4.943   3.883   7.508  0.1303  0.4959 -0.2927
17593SOL    HW253561   4.929   3.796   7.385  1.1034  0.4800 -0.3992
17594SOL     OW53562   6.255   7.652   3.974  0.2864  0.2268  0.0732
17594SOL    HW153563   6.203   7.732   3.969  0.2199  0.3199  1.6814
17594SOL    HW253564   6.324   7.671   4.038 -0.3303 -1.3066  1.2697
17595SOL     OW53565   4.791   7.284   7.231  0.1800  0.4685 -0.9721
17595SOL    HW153566   4.708   7.236   7.239 -0.8146  1.9805 -1.6739
17595SOL    HW253567   4.831   7.277   7.317 -1.4802  1.0962 -0.1062
17596SOL     OW53568   3.734   1.004   6.071  0.1786  0.2391  0.1877
17596SOL    HW153569   3.709   1.074   6.132 -0.6689 -0.6782  0.9339
17596SOL    HW253570   3.681   0.929   6.098 -0.9574  0.0606 -2.2959
17597SOL     OW53571   4.429   4.580   5.306 -0.5006  0.2886  0.2986
17597SOL    HW153572   4.462   4.526   5.234 -1.5266  0.5216 -0.3574
17597SOL    HW253573   4.382   4.519   5.363  1.6537 -0.2019  1.6789
17598SOL     OW53574   2.878   6.870   7.624 -0.2273  0.6968  0.2596
17598SOL    HW153575   2.913   6.889   7.711  1.7576  1.2088 -0.5899
17598SOL    HW253576   2.860   6.776   7.625  0.8105  0.4950  0.8873
17599SOL     OW53577   0.870   7.993   2.186 -0.2100  0.4674  0.3673
17599SOL    HW153578   0.944   8.007   2.128  0.1001 -0.6664  0.4638
17599SOL    HW253579   0.846   7.901   2.173 -0.2527  0.2327  1.8847
17600SOL     OW53580   7.445   1.674   3.209  0.2906 -0.2044  0.1793
17600SOL    HW153581   7.388   1.706   3.140 -1.2343 -1.0580  1.0051
17600SOL    HW253582   7.392   1.680   3.289  1.2857 -1.2019  0.9456
17601SOL     OW53583   2.744   2.689   3.943  0.1988 -0.3297 -0.1020
17601SOL    HW153584   2.752   2.782   3.964 -0.4462 -0.4718  0.8489
17601SOL    HW253585   2.832   2.654   3.961  0.3372  0.0223 -0.0701
17602SOL     OW53586   4.116   1.943   6.543 -0.0213  0.7290  0.8585
17602SOL    HW153587   4.144   1.878   6.478 -1.6897  0.4269  0.3875
17602SOL    HW253588   4.057   2.001   6.494 -1.5416  0.3245  2.1683
17603SOL     OW53589   4.334   4.932   6.231  0.0455 -0.3862  0.8925
17603SOL    HW153590   4.423   4.899   6.215  0.4797  0.5576  1.2589
17603SOL    HW253591   4.332   5.017   6.186 -0.4055 -0.0525  1.5280
17604SOL     OW53592   1.453   7.861   2.178 -0.1645 -0.2031  0.2791
17604SOL    HW153593   1.475   7.770   2.198  0.1171 -0.7238 -2.0831
17604SOL    HW253594   1.358   7.867   2.191 -0.0955 -0.6268  1.0541
17605SOL     OW53595   7.218   5.393   3.241 -0.2048  0.0324  0.1762
17605SOL    HW153596   7.250   5.356   3.323 -0.5582  1.7100  1.1106
17605SOL    HW253597   7.210   5.318   3.182  2.0242 -0.9255  1.0075
17606SOL     OW53598   3.937   8.247   6.279 -0.0693 -0.2606  0.5878
17606SOL    HW153599   3.866   8.186   6.296 -0.1682 -0.2123  0.3485
17606SOL    HW253600   4.013   8.191   6.261 -0.2664 -0.3219 -0.0970
17607SOL     OW53601   5.636   1.548   7.029 -0.5092 -0.3405  0.8365
17607SOL    HW153602   5.685   1.544   6.947 -2.5003 -0.5427 -0.3914
17607SOL    HW253603   5.639   1.459   7.063 -0.3022 -0.4177  0.6204
17608SOL     OW53604   5.517   1.912   6.022 -0.0728 -0.9009  0.6457
17608SOL    HW153605   5.607   1.914   5.990  0.6283 -0.4967  2.4910
17608SOL    HW253606   5.495   1.819   6.024  0.2425 -0.9934  0.0075
17609SOL     OW53607   6.472   6.193   5.161  0.1164 -0.1581  0.0477
17609SOL    HW153608   6.509   6.245   5.090 -1.5682 -0.0199 -0.7773
17609SOL    HW253609   6.444   6.112   5.119  1.0971 -1.0077  0.9896
17610SOL     OW53610   5.946   4.288   0.118 -0.3284  0.5715  0.1190
17610SOL    HW153611   5.898   4.364   0.086 -1.8936 -0.7663 -0.8667
17610SOL    HW253612   6.009   4.268   0.048  3.0403  3.2846  2.0663
17611SOL     OW53613   2.181   5.303   7.891 -0.2604 -0.1952 -0.1590
17611SOL    HW153614   2.086   5.316   7.895 -0.1716  0.5944 -0.4608
17611SOL    HW253615   2.216   5.390   7.871  0.5551 -0.4070  0.3200
17612SOL     OW53616   0.467   2.704   7.983 -0.0715  0.1501 -0.2749
17612SOL    HW153617   0.544   2.658   7.951  0.6929  0.8167  0.5597
17612SOL    HW253618   0.450   2.771   7.916 -2.1558 -2.2370 -2.3284
17613SOL     OW53619   2.719   4.144   6.427 -0.8106 -0.0229 -0.0729
17613SOL    HW153620   2.629   4.167   6.446 -0.5204  0.4914  0.6766
17613SOL    HW253621   2.714   4.097   6.343 -1.9275 -1.1582  0.6009
17614SOL     OW53622   5.546   1.118   6.034  0.1508  0.7424  0.2635
17614SOL    HW153623   5.638   1.092   6.036  0.3260  1.3485  0.1247
17614SOL    HW253624   5.546   1.211   6.055 -0.5406  0.4754  1.5516
17615SOL     OW53625   2.869   4.024   5.166  0.2975 -0.0164 -0.6491
17615SOL    HW153626   2.825   3.940   5.173  0.6090 -0.1476 -0.1834
17615SOL    HW253627   2.919   4.018   5.085  1.3027 -0.7700  0.0001
17616SOL     OW53628   5.948   1.451   3.214  0.4210  0.3344 -0.2107
17616SOL    HW153629   5.857   1.453   3.183  0.5222  0.4841 -0.5062
17616SOL    HW253630   5.998   1.423   3.137  0.3871 -2.0355  0.5349
17617SOL     OW53631   0.808   0.737   6.105 -0.1181  0.1893  0.0728
17617SOL    HW153632   0.894   0.776   6.093  0.4100 -0.4681  1.5777
17617SOL    HW253633   0.824   0.642   6.103 -0.8868  0.0587 -0.1662
17618SOL     OW53634   1.216   3.113   1.993  0.4901 -0.6108  0.4539
17618SOL    HW153635   1.306   3.080   2.005  0.7429  0.7097  2.8545
17618SOL    HW253636   1.225   3.208   1.997 -0.9882 -0.4455  0.3373
17619SOL     OW53637   7.151   1.589   5.892 -0.4870  0.3741 -0.0887
17619SOL    HW153638   7.238   1.590   5.931 -0.2917  0.4893 -0.5161
17619SOL    HW253639   7.160   1.533   5.814 -0.4980  1.3224 -0.7894
17620SOL     OW53640   0.900   3.556   7.187  0.1746  0.5911  0.1410
17620SOL    HW153641   0.880   3.649   7.190 -3.3482  0.0386 -0.9106
17620SOL    HW253642   0.890   3.526   7.278 -2.0702  0.7875  0.0274
17621SOL     OW53643   4.379   3.275   2.539 -0.0740  0.1247 -0.0239
17621SOL    HW153644   4.459   3.322   2.513  0.6349 -0.7968  0.4227
17621SOL    HW253645   4.310   3.315   2.487  1.2275 -1.5311 -3.3761
17622SOL     OW53646   7.530   0.697   4.825 -0.5130  0.3360 -0.0070
17622SOL    HW153647   7.470   0.770   4.839  1.1410  1.6470  0.6474
17622SOL    HW253648   7.512   0.636   4.896 -3.8677 -1.4086 -2.1046
17623SOL     OW53649   8.185   3.137   5.805  0.3086  0.7703 -0.1724
17623SOL    HW153650   8.264   3.092   5.837  1.3355  1.0882 -2.0939
17623SOL    HW253651   8.113   3.093   5.849  1.4417 -1.0003  0.0367
17624SOL     OW53652   4.146   6.578   0.812 -0.1035  0.3010 -0.0374
17624SOL    HW153653   4.188   6.547   0.892  0.9944 -0.7360 -0.9882
17624SOL    HW253654   4.219   6.608   0.757 -0.9203  2.0516 -0.2439
17625SOL     OW53655   7.080   3.013   0.626 -0.0874  0.1550 -0.2646
17625SOL    HW153656   6.990   3.019   0.656 -0.2523 -1.2064 -0.3938
17625SOL    HW253657   7.074   3.022   0.530 -0.4036 -2.0151 -0.5218
17626SOL     OW53658   3.078   6.865   1.227 -0.0389  1.3019 -0.3073
17626SOL    HW153659   3.069   6.770   1.234  0.3862  1.2974  0.3019
17626SOL    HW253660   3.145   6.887   1.292 -0.9437  2.1611  0.3636
17627SOL     OW53661   7.818   0.189   5.804  0.1609  0.0708 -0.7711
17627SOL    HW153662   7.890   0.174   5.865  0.2928 -0.9991 -1.1764
17627SOL    HW253663   7.746   0.135   5.837  0.1588 -0.3373 -1.4195
17628SOL     OW53664   0.534   1.518   0.292  0.1092 -0.3841 -0.2313
17628SOL    HW153665   0.529   1.533   0.386  0.0990 -0.1211 -0.2740
17628SOL    HW253666   0.628   1.508   0.275  0.1777  0.4103 -0.3240
17629SOL     OW53667   5.825   3.656   6.509  0.7301  0.5777 -0.0398
17629SOL    HW153668   5.898   3.641   6.448 -0.2330  0.3600 -1.1852
17629SOL    HW253669   5.818   3.751   6.514 -0.3045  0.6405 -1.7337
17630SOL     OW53670   3.427   6.500   8.093  0.9944 -0.1281  0.3794
17630SOL    HW153671   3.413   6.412   8.060 -1.6146  0.1409  0.5399
17630SOL    HW253672   3.510   6.496   8.141  0.7826 -2.5365  0.6229
17631SOL     OW53673   2.605   0.886   4.199 -0.2777  0.2860 -0.1549
17631SOL    HW153674   2.547   0.959   4.175  0.7520  0.5593 -2.0240
17631SOL    HW253675   2.687   0.929   4.224  0.1577 -0.1954 -0.7394
17632SOL     OW53676   5.464   7.739   1.104 -0.2891  0.2957 -0.0860
17632SOL    HW153677   5.541   7.726   1.160 -0.8610 -1.0762  0.4319
17632SOL    HW253678   5.467   7.831   1.079  0.1741  0.8768  1.9502
17633SOL     OW53679   0.270   6.807   5.859  0.2483  0.3991 -0.2456
17633SOL    HW153680   0.240   6.729   5.812 -2.7458  1.5591 -0.4629
17633SOL    HW253681   0.302   6.774   5.943 -0.0842 -1.1507 -0.7034
17634SOL     OW53682   1.575   3.276   7.510  0.3228 -0.1203  0.2297
17634SOL    HW153683   1.611   3.196   7.549  1.6816  0.3110 -0.0686
17634SOL    HW253684   1.624   3.287   7.428 -1.3374 -0.1151 -0.7922
17635SOL     OW53685   6.200   5.996   2.058 -0.3442 -0.1246  0.2825
17635SOL    HW153686   6.283   6.043   2.048 -0.2819 -0.3879 -0.5060
17635SOL    HW253687   6.182   5.998   2.152 -0.3431  1.4866  0.2737
17636SOL     OW53688   3.003   1.983   4.537  0.3004 -0.2106  0.3731
17636SOL    HW153689   2.930   1.941   4.492  0.6911  0.9800 -1.4693
17636SOL    HW253690   3.074   1.984   4.472  0.9666  1.3521  1.0711
17637SOL     OW53691   5.938   3.093   7.218  0.0386 -0.0869 -0.1781
17637SOL    HW153692   5.928   3.019   7.157  1.7210 -0.5100  0.0212
17637SOL    HW253693   5.872   3.077   7.285 -1.3750  0.0014 -1.4810
17638SOL     OW53694   3.087   3.003   1.077 -1.0757 -0.1244  0.6702
17638SOL    HW153695   3.164   2.966   1.120 -1.0915 -0.4892  0.3830
17638SOL    HW253696   3.100   3.098   1.085  0.3172 -0.1371 -0.9620
17639SOL     OW53697   7.914   0.331   0.549 -0.4095  0.3334  0.3593
17639SOL    HW153698   7.945   0.259   0.495 -0.4754  0.4042  0.2251
17639SOL    HW253699   7.824   0.345   0.521 -0.6735 -0.0840  0.9759
17640SOL     OW53700   5.487   2.901   3.241 -0.6239  0.0162 -0.0627
17640SOL    HW153701   5.479   2.977   3.183  1.9264  0.8206  0.4861
17640SOL    HW253702   5.449   2.930   3.324  1.4584  1.2647  0.5371
17641SOL     OW53703   0.899   6.934   4.155 -0.3448 -0.2548  0.0911
17641SOL    HW153704   0.863   6.891   4.233  0.4412 -1.7707 -0.3334
17641SOL    HW253705   0.944   7.012   4.188  0.0852 -0.9448  1.1749
17642SOL     OW53706   5.501   0.605   1.194 -0.3335  0.0461  0.9394
17642SOL    HW153707   5.553   0.669   1.145 -0.4459  0.9995  1.9985
17642SOL    HW253708   5.504   0.526   1.141  0.9282  0.5294  0.2307
17643SOL     OW53709   1.514   4.862   0.216 -0.2438 -0.6486  0.2550
17643SOL    HW153710   1.445   4.860   0.149  0.9436  1.5440 -1.1570
17643SOL    HW253711   1.490   4.936   0.272  0.1465 -0.8654  0.7145
17644SOL     OW53712   3.859   5.573   1.123  0.3653 -0.2179 -0.3844
17644SOL    HW153713   3.781   5.615   1.160  0.8473  2.3610 -2.0135
17644SOL    HW253714   3.841   5.480   1.128 -1.6524  0.2038  1.7223
17645SOL     OW53715   6.864   6.571   8.198  0.0590  0.0623 -0.2731
17645SOL    HW153716   6.824   6.516   8.130 -1.0637  0.3101  0.1568
17645SOL    HW253717   6.874   6.512   8.273 -1.0843  0.3850  0.1667
17646SOL     OW53718   0.372   2.101   0.335 -0.4825  0.1085 -0.0471
17646SOL    HW153719   0.403   2.154   0.262  0.2977 -0.1669  0.0733
17646SOL    HW253720   0.348   2.165   0.403 -0.3218  0.3308 -0.1995
17647SOL     OW53721   1.457   5.709   8.051  0.5247  0.1413  0.2411
17647SOL    HW153722   1.393   5.769   8.012 -0.4921 -0.0923  1.4962
17647SOL    HW253723   1.425   5.622   8.027  0.3276  0.0216  0.9327
17648SOL     OW53724   7.878   0.764   7.000 -0.1449 -0.5529  0.0300
17648SOL    HW153725   7.875   0.744   6.907 -0.2143 -1.0627  0.1375
17648SOL    HW253726   7.890   0.679   7.042 -0.8415 -0.4142  0.5266
17649SOL     OW53727   1.657   2.296   8.318  0.0775 -0.8986  1.0371
17649SOL    HW153728   1.728   2.335   8.369  0.8784 -0.0909 -0.5881
17649SOL    HW253729   1.703   2.248   8.248 -0.9623 -1.3036  0.6204
17650SOL     OW53730   7.188   2.663   7.272  0.0058 -0.3085 -0.1251
17650SOL    HW153731   7.267   2.613   7.295  0.9015  1.5287  1.0339
17650SOL    HW253732   7.205   2.696   7.184 -0.4646 -1.7214 -0.7784
17651SOL     OW53733   7.006   1.795   7.291 -0.3514  0.0191  0.7434
17651SOL    HW153734   6.981   1.886   7.279 -0.5993  0.0534  1.4756
17651SOL    HW253735   6.947   1.762   7.359  0.5970 -0.3204  1.4208
17652SOL     OW53736   6.547   7.660   2.703 -0.2351 -0.0262 -0.1809
17652SOL    HW153737   6.597   7.690   2.779 -1.7332 -0.8529  1.1769
17652SOL    HW253738   6.586   7.708   2.629  1.7894  0.2079  0.9506
17653SOL     OW53739   1.408   6.312   5.032 -0.3279  0.0609 -0.2839
17653SOL    HW153740   1.384   6.265   4.953 -0.8618  0.1644 -0.1836
17653SOL    HW253741   1.501   6.292   5.044 -0.7678 -1.7771  0.3224
17654SOL     OW53742   3.636   8.316   1.506  0.1697 -0.5330 -0.0917
17654SOL    HW153743   3.706   8.369   1.468 -0.8691  0.8808 -0.1354
17654SOL    HW253744   3.580   8.294   1.431  0.9423 -2.3480 -0.1934
17655SOL     OW53745   0.600   1.180   7.552 -0.0654 -0.4726  0.2237
17655SOL    HW153746   0.629   1.111   7.493 -2.7512 -1.6667  0.1359
17655SOL    HW253747   0.579   1.253   7.494  0.7820 -0.3205  0.1012
17656SOL     OW53748   4.766   5.569   0.485  0.1436 -0.3276 -0.1103
17656SOL    HW153749   4.745   5.662   0.488 -2.4205 -0.7735 -1.5485
17656SOL    HW253750   4.804   5.550   0.571  0.2469  1.8998  0.4006
17657SOL     OW53751   5.864   4.208   3.925  0.2609 -0.5212  0.0460
17657SOL    HW153752   5.783   4.157   3.924  0.3356 -0.6426 -1.3826
17657SOL    HW253753   5.836   4.299   3.917  0.2708 -0.6089 -1.1852
17658SOL     OW53754   0.187   5.021   8.313  0.1662 -0.9738  0.0579
17658SOL    HW153755   0.247   5.057   8.248 -0.1692  0.5972  0.5872
17658SOL    HW253756   0.241   4.962   8.366  0.9779 -0.4593 -0.1822
17659SOL     OW53757   2.543   7.393   3.089  0.1685 -0.5615 -0.2382
17659SOL    HW153758   2.462   7.404   3.140  0.3080 -1.7496  0.2709
17659SOL    HW253759   2.516   7.344   3.011  0.4682 -1.3855  0.1666
17660SOL     OW53760   4.556   6.513   3.772 -0.4668  0.3077  0.0832
17660SOL    HW153761   4.537   6.528   3.679 -2.5587 -0.5863  0.3034
17660SOL    HW253762   4.488   6.562   3.818 -1.3247 -1.6750  1.0208
17661SOL     OW53763   2.723   1.101   8.166 -0.3725  0.4469 -0.0910
17661SOL    HW153764   2.700   1.039   8.096 -0.8346  0.3183  0.1690
17661SOL    HW253765   2.796   1.151   8.130 -0.1399 -0.0958 -0.3958
17662SOL     OW53766   6.140   8.173   4.949  0.0638  0.0075 -0.6345
17662SOL    HW153767   6.101   8.224   5.020  0.5725 -0.7031  0.1739
17662SOL    HW253768   6.066   8.127   4.909 -0.0140 -1.0894  0.6859
17663SOL     OW53769   0.712   1.187   2.868  0.1323  0.0485  0.1796
17663SOL    HW153770   0.682   1.215   2.955  2.1063 -1.7116  1.5069
17663SOL    HW253771   0.738   1.096   2.879  0.6157 -0.1810 -2.2527
17664SOL     OW53772   3.018   4.074   7.951  0.1413 -0.2139 -0.5597
17664SOL    HW153773   2.956   4.144   7.972  0.6278  0.1021 -0.1680
17664SOL    HW253774   3.033   4.029   8.034  0.3033 -0.3984 -0.6877
17665SOL     OW53775   2.432   3.104   7.624  0.2756 -0.3421  0.2159
17665SOL    HW153776   2.487   3.178   7.597 -0.7320  0.4836  0.3499
17665SOL    HW253777   2.353   3.145   7.659 -1.0483 -1.4921 -1.2702
17666SOL     OW53778   5.017   5.870   7.900 -0.1815  0.0412 -0.5495
17666SOL    HW153779   5.018   5.831   7.813  0.6686  0.2045 -0.6167
17666SOL    HW253780   5.104   5.854   7.936 -0.7163 -0.5765  0.5282
17667SOL     OW53781   3.668   8.219   1.008  0.5850 -0.4889 -0.0049
17667SOL    HW153782   3.626   8.221   1.094 -3.0551  0.1080 -1.6012
17667SOL    HW253783   3.625   8.148   0.962  1.9771 -0.3755 -1.5764
17668SOL     OW53784   0.840   2.243   5.042  0.3107 -0.2256 -0.0170
17668SOL    HW153785   0.860   2.250   4.948  0.8676  1.4042  0.1876
17668SOL    HW253786   0.751   2.276   5.050  0.8868  1.3616  0.2193
17669SOL     OW53787   4.637   0.198   4.213  0.1373 -0.8191  0.2391
17669SOL    HW153788   4.637   0.234   4.124  2.6782 -1.7402 -0.2060
17669SOL    HW253789   4.655   0.273   4.269 -2.2829 -0.0789  0.1201
17670SOL     OW53790   0.240   0.520   6.089 -0.0916  0.6113 -0.4280
17670SOL    HW153791   0.162   0.480   6.052  0.6031  0.5695 -1.9477
17670SOL    HW253792   0.296   0.446   6.112 -2.1118  0.3329  4.8985
17671SOL     OW53793   4.989   0.488   6.873  0.1130 -0.3039  0.3411
17671SOL    HW153794   4.979   0.443   6.788  2.3950  0.7120 -0.5515
17671SOL    HW253795   4.899   0.502   6.903 -0.8298  0.0271 -2.3180
17672SOL     OW53796   8.073   7.460   6.658  0.4393 -0.5765  0.4038
17672SOL    HW153797   8.030   7.392   6.606 -2.6954  1.1937  0.4243
17672SOL    HW253798   8.036   7.450   6.746  2.1058 -0.5533  1.1503
17673SOL     OW53799   5.842   2.922   0.937  0.4231  0.4998  0.0108
17673SOL    HW153800   5.758   2.955   0.904  0.8558  0.8167 -0.8251
17673SOL    HW253801   5.839   2.828   0.919 -0.2633  0.2854  1.1610
17674SOL     OW53802   6.016   6.539   1.746  0.1752 -0.0675  0.0663
17674SOL    HW153803   6.044   6.494   1.666 -1.4291 -0.1404 -0.4825
17674SOL    HW253804   6.053   6.486   1.817  0.3148 -0.9012 -0.6083
17675SOL     OW53805   4.593   7.088   2.439  0.2403 -0.1228  0.1189
17675SOL    HW153806   4.596   7.009   2.493 -0.4176 -0.2065  0.0525
17675SOL    HW253807   4.670   7.138   2.463 -0.2565  0.0396  1.4407
17676SOL     OW53808   3.736   6.176   3.245  0.0086  0.2725  0.5245
17676SOL    HW153809   3.653   6.216   3.270 -0.4900 -0.2835 -0.2026
17676SOL    HW253810   3.749   6.204   3.154 -1.2026 -2.4972 -0.6170
17677SOL     OW53811   1.485   2.558   1.595  0.7305 -0.1317 -0.2085
17677SOL    HW153812   1.514   2.467   1.597  0.2890 -0.2667  0.3268
17677SOL    HW253813   1.532   2.600   1.667 -1.5913 -0.7502  1.8235
17678SOL     OW53814   1.125   2.430   7.926 -0.3633 -0.3443 -0.5258
17678SOL    HW153815   1.154   2.370   7.994  0.2714 -1.9819 -2.1511
17678SOL    HW253816   1.110   2.513   7.971  0.3125 -1.2850  1.5231
17679SOL     OW53817   5.457   1.546   3.041  0.1513 -0.3622  0.0695
17679SOL    HW153818   5.421   1.546   2.953 -0.0050 -0.0396  0.1317
17679SOL    HW253819   5.391   1.592   3.094  0.5256 -0.0189  0.2396
17680SOL     OW53820   7.527   0.766   3.237  0.2406 -0.0488 -0.8859
17680SOL    HW153821   7.490   0.706   3.302 -0.5311 -0.4251 -1.6695
17680SOL    HW253822   7.452   0.814   3.203  0.2760 -1.4503 -3.1380
17681SOL     OW53823   6.366   3.947   7.161  0.4538 -0.4766  0.1358
17681SOL    HW153824   6.349   3.887   7.233  1.9421  0.3851  1.2684
17681SOL    HW253825   6.293   4.009   7.163  1.1426  0.3283  1.8038
17682SOL     OW53826   7.514   4.624   4.197 -0.4261 -0.2664 -0.1230
17682SOL    HW153827   7.492   4.587   4.283 -1.9389  0.5117 -0.1511
17682SOL    HW253828   7.602   4.661   4.209 -0.1564 -1.1351  0.7614
17683SOL     OW53829   5.663   0.114   5.820 -0.0699 -0.2262 -0.2915
17683SOL    HW153830   5.724   0.100   5.893 -1.2110  1.7026  1.1119
17683SOL    HW253831   5.643   0.026   5.789 -0.8158 -1.2848  2.8327
17684SOL     OW53832   4.704   5.726   0.963 -0.0879  0.1224 -0.5404
17684SOL    HW153833   4.610   5.719   0.984 -0.3063 -2.9023 -2.0070
17684SOL    HW253834   4.747   5.673   1.030  0.6007  1.2693 -0.0464
17685SOL     OW53835   5.083   6.469   3.758  0.1154  0.2881 -0.5274
17685SOL    HW153836   5.024   6.395   3.747 -0.3349  0.7166 -1.1355
17685SOL    HW253837   5.026   6.546   3.746  0.1802  0.8079  1.9168
17686SOL     OW53838   5.681   7.455   1.811  0.5842  0.5198 -0.8990
17686SOL    HW153839   5.618   7.447   1.883  1.4491 -0.0789 -0.1882
17686SOL    HW253840   5.766   7.467   1.854  1.2628 -0.8342 -1.7729
17687SOL     OW53841   4.636   0.097   3.196  0.4560  0.5344 -0.1903
17687SOL    HW153842   4.550   0.072   3.231  0.1309  0.0270 -1.3017
17687SOL    HW253843   4.695   0.093   3.271 -0.3453  0.1297  0.4310
17688SOL     OW53844   7.946   7.646   1.551 -0.2905 -0.2269 -0.3129
17688SOL    HW153845   7.884   7.690   1.608  0.2637  1.1870 -0.7674
17688SOL    HW253846   7.973   7.712   1.488  0.7212 -1.1603 -0.9119
17689SOL     OW53847   4.561   6.283   6.002  0.2734  0.0141  0.6274
17689SOL    HW153848   4.580   6.345   6.072 -1.1373 -0.9585  1.9233
17689SOL    HW253849   4.522   6.337   5.933 -0.1244  0.7067  1.3755
17690SOL     OW53850   2.160   7.133   1.762  0.1077 -0.2470 -0.5656
17690SOL    HW153851   2.253   7.141   1.743  0.8637 -2.1214  1.7842
17690SOL    HW253852   2.145   7.194   1.834  0.1449 -1.5971  0.6441
17691SOL     OW53853   0.991   8.251   4.459 -0.0573  0.3837  0.0523
17691SOL    HW153854   1.050   8.191   4.505 -0.2231  0.4860  0.3977
17691SOL    HW253855   1.016   8.243   4.367  0.0481 -0.0748  0.1189
17692SOL     OW53856   0.439   6.151   2.159  0.5503 -0.2365  0.4929
17692SOL    HW153857   0.491   6.197   2.094  3.7455 -2.2824  1.4178
17692SOL    HW253858   0.501   6.096   2.207 -2.4361 -2.8446  1.7917
17693SOL     OW53859   7.181   4.520   4.461  0.3662 -0.6723 -0.0712
17693SOL    HW153860   7.269   4.492   4.435  0.3701 -1.4022  0.6757
17693SOL    HW253861   7.196   4.588   4.526  0.3606  0.2170 -0.9808
17694SOL     OW53862   3.085   1.781   1.807  0.4415 -0.1894  0.4311
17694SOL    HW153863   3.150   1.798   1.875  0.3272  1.7261  0.1298
17694SOL    HW253864   3.092   1.688   1.789  2.4886 -0.1948  1.0250
17695SOL     OW53865   7.350   0.800   3.586 -0.5739 -0.1118  0.2624
17695SOL    HW153866   7.265   0.834   3.557 -0.4418 -0.2537 -0.2877
17695SOL    HW253867   7.365   0.722   3.533  0.4740  0.5944 -0.5191
17696SOL     OW53868   4.200   1.267   0.138  0.0244  0.0325 -0.2053
17696SOL    HW153869   4.194   1.203   0.067 -0.4892  2.2120 -2.2515
17696SOL    HW253870   4.294   1.287   0.143 -0.1291  1.2449 -1.6303
17697SOL     OW53871   7.049   5.066   7.621 -0.2382 -0.0239 -0.0145
17697SOL    HW153872   7.053   5.123   7.545 -1.0263  0.9623  0.6572
17697SOL    HW253873   7.139   5.060   7.652 -0.0679  0.4096 -0.4266
17698SOL     OW53874   8.006   3.631   6.406 -0.0574 -0.0036 -0.0661
17698SOL    HW153875   7.960   3.709   6.437  0.7352  0.2890  0.3889
17698SOL    HW253876   8.076   3.666   6.351 -0.0910 -0.4263 -0.3756
17699SOL     OW53877   7.665   3.895   1.184 -0.5556  0.0431 -0.7188
17699SOL    HW153878   7.690   3.913   1.274 -1.9467 -0.3405 -0.2453
17699SOL    HW253879   7.711   3.814   1.162  0.7265  0.7569 -0.7730
17700SOL     OW53880   6.182   4.104   4.156 -0.1319 -0.0322 -0.3317
17700SOL    HW153881   6.150   4.014   4.153  1.5016 -0.6382 -0.2530
17700SOL    HW253882   6.260   4.104   4.101  0.8556  0.9222  0.9940
17701SOL     OW53883   2.801   7.114   3.821 -0.1951  0.5125  0.1836
17701SOL    HW153884   2.818   7.028   3.783 -0.4418 -0.1848  1.5951
17701SOL    HW253885   2.779   7.170   3.746 -2.1041 -1.1463 -0.5674
17702SOL     OW53886   4.047   1.351   4.716 -0.4536 -0.1794  0.0771
17702SOL    HW153887   3.961   1.326   4.752 -0.8863  0.1964 -0.6608
17702SOL    HW253888   4.026   1.412   4.645  0.4948  0.9160  0.7116
17703SOL     OW53889   3.979   5.540   3.493 -0.5606 -0.2696 -0.0444
17703SOL    HW153890   3.929   5.468   3.455 -2.3702  1.3259 -0.8352
17703SOL    HW253891   3.984   5.519   3.587  0.3337 -2.1544 -0.4473
17704SOL     OW53892   7.295   0.248   6.235 -0.0105  0.5165 -0.2073
17704SOL    HW153893   7.211   0.218   6.201  1.1818 -2.8255 -0.5510
17704SOL    HW253894   7.273   0.325   6.288 -3.3953 -0.8378  0.6031
17705SOL     OW53895   5.285   7.046   1.155  0.1028  0.6311 -0.3581
17705SOL    HW153896   5.319   7.135   1.145  0.3810  0.8275  1.8290
17705SOL    HW253897   5.198   7.049   1.114  0.3656  1.7035 -0.8913
17706SOL     OW53898   6.370   4.066   3.944  0.1828 -0.0519  0.3021
17706SOL    HW153899   6.309   4.033   3.878 -0.0043 -0.8987  0.8751
17706SOL    HW253900   6.448   4.011   3.934  0.5786  0.5454  0.0575
17707SOL     OW53901   7.066   5.523   2.477  0.0075 -0.0614 -0.2789
17707SOL    HW153902   7.119   5.460   2.525  1.7990  2.1198  0.7910
17707SOL    HW253903   7.000   5.552   2.539  0.7194  0.8786  0.0546
17708SOL     OW53904   5.772   7.287   2.616 -0.3937 -0.1659 -0.4053
17708SOL    HW153905   5.792   7.227   2.688 -0.8958 -0.3448 -0.4103
17708SOL    HW253906   5.716   7.236   2.558 -1.6527  0.6264  0.0859
17709SOL     OW53907   2.807   0.975   4.618  0.0132 -0.1048  0.2284
17709SOL    HW153908   2.783   1.065   4.640  0.3887 -0.0844  0.5732
17709SOL    HW253909   2.850   0.981   4.533  1.4053  0.2598  0.9321
17710SOL     OW53910   2.517   6.339   7.257 -0.6983  0.7404  0.6949
17710SOL    HW153911   2.568   6.359   7.178  0.9988 -0.5632  1.3853
17710SOL    HW253912   2.481   6.423   7.284 -3.3872  0.9092 -2.7559
17711SOL     OW53913   0.683   1.574   7.858  0.1654 -0.1410  0.1087
17711SOL    HW153914   0.740   1.640   7.897 -1.2085  0.6563  0.8449
17711SOL    HW253915   0.654   1.520   7.931  0.3840 -0.8779 -0.3312
17712SOL     OW53916   4.403   3.761   4.967  0.6882 -0.2229 -0.1988
17712SOL    HW153917   4.459   3.692   4.931  1.9164  0.1426  0.9277
17712SOL    HW253918   4.393   3.739   5.059  1.2858  1.1912  0.2365
17713SOL     OW53919   0.348   0.758   5.220 -0.1590  0.0934 -0.2315
17713SOL    HW153920   0.303   0.681   5.185 -1.8842  1.2103 -0.6329
17713SOL    HW253921   0.340   0.748   5.315  1.8002 -1.3965 -0.1698
17714SOL     OW53922   7.672   2.477   2.163 -0.8484  0.4934  0.2787
17714SOL    HW153923   7.612   2.530   2.215  1.3572  2.2923  1.2143
17714SOL    HW253924   7.710   2.538   2.100 -1.0204 -0.9110 -1.2682
17715SOL     OW53925   5.462   6.383   6.565  0.0453 -0.0060 -0.0510
17715SOL    HW153926   5.529   6.393   6.633 -1.9579  0.8161  1.9209
17715SOL    HW253927   5.466   6.465   6.516  1.9445 -0.8623 -1.4509
17716SOL     OW53928   8.006   1.539   5.059 -0.0980 -1.0722  0.3770
17716SOL    HW153929   8.101   1.551   5.065 -0.3860  1.3988  1.3302
17716SOL    HW253930   7.977   1.531   5.150 -0.9163 -0.5476  0.1753
17717SOL     OW53931   3.536   7.690   6.036  0.4721  0.0250 -0.2453
17717SOL    HW153932   3.569   7.641   6.112 -2.0063 -0.5281  0.5476
17717SOL    HW253933   3.495   7.767   6.073  2.2078  1.5699 -1.3422
17718SOL     OW53934   3.569   5.553   2.723 -0.3125  0.0618  0.0417
17718SOL    HW153935   3.512   5.629   2.738  0.7656  0.6344  1.5652
17718SOL    HW253936   3.648   5.591   2.684  0.3183 -0.2181  1.0122
17719SOL     OW53937   2.724   8.152   2.144  0.0486  0.0809 -0.6964
17719SOL    HW153938   2.722   8.237   2.100 -1.1480  1.0857  1.1634
17719SOL    HW253939   2.643   8.109   2.115 -1.0736  1.0080  0.8892
17720SOL     OW53940   2.144   7.500   1.730  0.2296  1.1805  0.1049
17720SOL    HW153941   2.059   7.509   1.774  0.7424 -0.0832  1.4466
17720SOL    HW253942   2.127   7.524   1.639 -0.5500  5.5912  1.1922
17721SOL     OW53943   1.038   1.303   8.103  0.5648  0.0728  0.3259
17721SOL    HW153944   1.065   1.387   8.140  3.1496 -1.0376  1.1782
17721SOL    HW253945   0.988   1.261   8.173  0.9054  0.1389  0.6135
17722SOL     OW53946   6.224   1.141   6.105 -0.0638 -0.3968 -0.1218
17722SOL    HW153947   6.305   1.103   6.070  1.1044  1.1192  0.8046
17722SOL    HW253948   6.225   1.118   6.198  0.0758  0.8768  0.2046
17723SOL     OW53949   0.959   1.902   6.778  0.3427  0.2108 -0.2860
17723SOL    HW153950   0.914   1.838   6.723 -0.0407 -1.0083  1.3734
17723SOL    HW253951   0.901   1.915   6.853  0.5537  2.3135 -0.4372
17724SOL     OW53952   5.472   5.823   8.085 -0.3748 -1.0141 -0.4360
17724SOL    HW153953   5.563   5.790   8.087 -0.1001 -0.2375  0.7049
17724SOL    HW253954   5.419   5.746   8.104  0.1217 -1.2587 -0.0040
17725SOL     OW53955   5.750   0.852   6.605  0.1724 -0.7630 -0.3674
17725SOL    HW153956   5.683   0.877   6.669  0.5038 -0.0013 -0.3091
17725SOL    HW253957   5.832   0.853   6.653  0.2815 -1.3670 -0.5248
17726SOL     OW53958   1.027   0.014   3.506 -0.2206  0.6997 -0.1220
17726SOL    HW153959   0.998  -0.063   3.556  0.2932  2.0180  2.3633
17726SOL    HW253960   0.947   0.055   3.476 -0.5585  0.1067 -0.0481
17727SOL     OW53961   3.861   5.810   3.699  0.0293 -0.0460 -0.4426
17727SOL    HW153962   3.871   5.903   3.718  0.6221 -0.2594  0.3732
17727SOL    HW253963   3.767   5.793   3.709 -0.1010  0.4896 -0.7390
17728SOL     OW53964   3.896   7.307   4.928  0.4257  0.0376 -0.8170
17728SOL    HW153965   3.814   7.357   4.936  0.0246 -0.3498 -2.1654
17728SOL    HW253966   3.903   7.260   5.011 -0.3903  0.5578 -0.4322
17729SOL     OW53967   6.330   0.688   0.172  0.3175 -0.0228  0.3164
17729SOL    HW153968   6.342   0.728   0.085  2.4987  0.1674  0.6394
17729SOL    HW253969   6.258   0.737   0.211  1.4326  2.1468 -0.1848
17730SOL     OW53970   4.402   8.119   7.799 -0.7764 -0.3691  0.4690
17730SOL    HW153971   4.478   8.062   7.785 -0.5620  0.1884 -0.8267
17730SOL    HW253972   4.372   8.098   7.887  0.7802 -0.7272  0.9537
17731SOL     OW53973   6.404   1.139   4.690  0.2628  0.0142 -0.0612
17731SOL    HW153974   6.405   1.137   4.785  1.9582 -0.2106 -0.0538
17731SOL    HW253975   6.389   1.048   4.664 -1.0626  0.2042 -0.0405
17732SOL     OW53976   1.798   5.073   0.680  0.3065 -0.0567  0.0172
17732SOL    HW153977   1.833   5.082   0.592 -0.4873  1.7234 -0.1548
17732SOL    HW253978   1.855   5.130   0.734  0.2673 -0.4660  0.4962
17733SOL     OW53979   0.145   5.215   1.603  0.2604 -1.2004  0.1784
17733SOL    HW153980   0.166   5.263   1.523 -0.0066 -1.9561 -0.3612
17733SOL    HW253981   0.057   5.244   1.626  0.4979 -0.6737  0.4359
17734SOL     OW53982   5.536   1.308   6.754 -0.1080  0.5440 -0.4351
17734SOL    HW153983   5.488   1.371   6.808 -2.0523 -1.2991  0.0930
17734SOL    HW253984   5.602   1.271   6.813 -0.8499  0.0456  0.0977
17735SOL     OW53985   0.110   4.417   5.448 -0.2056  0.2366  0.0700
17735SOL    HW153986   0.099   4.342   5.388  0.9250  0.6834 -0.7343
17735SOL    HW253987   0.053   4.485   5.412 -0.3605  0.1416  0.1354
17736SOL     OW53988   1.176   2.874   0.118 -0.3364 -0.4621  0.3373
17736SOL    HW153989   1.245   2.915   0.066 -0.3523 -0.8648 -0.0094
17736SOL    HW253990   1.096   2.893   0.069 -0.1118 -2.9092 -1.1638
17737SOL     OW53991   7.594   0.270   1.081 -0.4982 -0.0050  0.3949
17737SOL    HW153992   7.554   0.188   1.053  0.0284 -0.6367  1.4279
17737SOL    HW253993   7.630   0.251   1.168  2.3015  0.4395 -0.5843
17738SOL     OW53994   1.075   7.944   3.696 -0.5213  0.2626  0.5060
17738SOL    HW153995   1.112   7.866   3.737  1.0400  0.5926 -0.1942
17738SOL    HW253996   1.040   7.912   3.613 -4.0812 -0.4893  2.1069
17739SOL     OW53997   5.847   7.926   0.319 -0.3186  0.1575 -0.2394
17739SOL    HW153998   5.884   7.994   0.374 -1.4290  0.9802 -0.4761
17739SOL    HW253999   5.753   7.927   0.338 -0.2805 -1.8963  0.3871
17740SOL     OW54000   1.855   2.223   0.189  0.7763 -0.3726  0.3492
17740SOL    HW154001   1.911   2.189   0.119 -0.6941  0.6884 -1.4194
17740SOL    HW254002   1.778   2.166   0.189  0.2777  0.2915  0.3726
17741SOL     OW54003   6.778   7.750   7.349  0.2051 -0.1960 -0.0049
17741SOL    HW154004   6.870   7.779   7.344  0.9301 -2.1977  0.7499
17741SOL    HW254005   6.728   7.823   7.313  2.0877  0.9957 -0.3421
17742SOL     OW54006   4.366   6.174   1.773 -0.5683 -0.1614  0.3606
17742SOL    HW154007   4.423   6.125   1.714 -0.9415 -0.7979  0.5130
17742SOL    HW254008   4.390   6.144   1.860  1.0058  1.8598  0.6763
17743SOL     OW54009   2.995   3.108   5.868 -0.5297  0.2826 -0.3151
17743SOL    HW154010   3.008   3.092   5.961 -1.5996 -0.2298 -0.2428
17743SOL    HW254011   2.975   3.022   5.831 -0.1456  0.4880 -1.0139
17744SOL     OW54012   8.150   2.085   4.590 -0.5235 -0.3428  0.5598
17744SOL    HW154013   8.124   2.012   4.533  0.1825  0.7044 -1.1473
17744SOL    HW254014   8.072   2.141   4.594  0.1524  0.8236 -1.4222
17745SOL     OW54015   4.454   4.190   7.411  0.3459  0.1383 -0.3385
17745SOL    HW154016   4.393   4.119   7.387 -0.8501  1.4106 -1.2211
17745SOL    HW254017   4.397   4.259   7.445  1.5527  0.4532  1.1387
17746SOL     OW54018   5.999   1.067   5.872 -0.3487  0.0897 -0.2980
17746SOL    HW154019   6.011   0.976   5.898 -0.0501  0.3232  0.4122
17746SOL    HW254020   6.072   1.114   5.912  0.4259  0.4035 -1.9967
17747SOL     OW54021   1.396   2.349   7.669  0.1288  0.2671  0.8672
17747SOL    HW154022   1.379   2.257   7.691 -1.4014  0.7901  2.1438
17747SOL    HW254023   1.478   2.348   7.620 -1.3917 -2.1095 -1.9052
17748SOL     OW54024   6.388   1.862   5.131  0.1575  0.0180  0.3418
17748SOL    HW154025   6.334   1.787   5.108  1.7320 -0.8140 -0.7570
17748SOL    HW254026   6.399   1.855   5.226 -0.9214 -0.2819  0.4584
17749SOL     OW54027   1.300   6.570   2.912  0.5385 -0.3992  0.5599
17749SOL    HW154028   1.342   6.656   2.915 -2.1747  1.0965 -0.6666
17749SOL    HW254029   1.265   6.557   3.000 -0.3470  0.5190  0.3642
17750SOL     OW54030   1.121   4.754   7.569 -0.7035 -0.0899  0.2881
17750SOL    HW154031   1.171   4.712   7.638  2.0802 -1.4361 -2.3225
17750SOL    HW254032   1.103   4.684   7.506 -1.4942  1.4196 -1.2548
17751SOL     OW54033   0.184   3.808   6.044 -0.0486 -0.7930  0.3613
17751SOL    HW154034   0.172   3.792   5.950  0.5727 -2.1613  0.4819
17751SOL    HW254035   0.279   3.806   6.056 -0.1316 -0.6781  1.0189
17752SOL     OW54036   5.575   1.661   7.650 -0.0880  0.1451 -0.7026
17752SOL    HW154037   5.544   1.587   7.703 -0.9437  1.2017  0.3422
17752SOL    HW254038   5.643   1.702   7.703  0.9300 -0.3225 -1.6159
17753SOL     OW54039   7.137   6.153   3.635  0.0436  0.3367  0.0741
17753SOL    HW154040   7.231   6.158   3.655 -0.0938 -1.8086  1.5638
17753SOL    HW254041   7.128   6.073   3.583 -0.7240  1.7184 -2.0877
17754SOL     OW54042   1.663   1.571   2.239  0.3928 -0.4525  0.0572
17754SOL    HW154043   1.746   1.527   2.224  1.7721  2.4391 -1.7359
17754SOL    HW254044   1.680   1.663   2.219 -2.9284  0.5141  0.9145
17755SOL     OW54045   8.241   3.364   1.621 -0.1292 -0.1753 -0.3156
17755SOL    HW154046   8.188   3.290   1.652 -0.8667  0.1784 -0.7127
17755SOL    HW254047   8.311   3.324   1.570 -1.5562 -0.5483 -2.0909
17756SOL     OW54048   1.992   0.661   4.995  0.1766  0.2945 -0.4940
17756SOL    HW154049   1.913   0.708   4.967  0.6707 -0.0505 -2.6497
17756SOL    HW254050   2.008   0.598   4.925  1.1800 -1.1258  0.9518
17757SOL     OW54051   1.293   2.073   0.798  0.4209 -0.5117  0.1183
17757SOL    HW154052   1.341   1.992   0.815  0.6503 -0.5103 -0.4741
17757SOL    HW254053   1.353   2.143   0.823  1.1316 -0.4869 -1.4955
17758SOL     OW54054   4.622   3.480   4.566 -0.4910  0.2792  0.5163
17758SOL    HW154055   4.577   3.511   4.488  0.9459 -0.9353 -0.8604
17758SOL    HW254056   4.603   3.386   4.570  0.6985  0.0310  0.7415
17759SOL     OW54057   7.265   7.745   4.878 -0.2084  0.2115  0.1526
17759SOL    HW154058   7.327   7.700   4.934 -0.2675 -0.3679 -0.2305
17759SOL    HW254059   7.299   7.732   4.789 -0.4041  0.6442  0.0125
17760SOL     OW54060   2.776   5.197   4.367  0.3318  0.1886 -0.1369
17760SOL    HW154061   2.800   5.267   4.428  0.6852 -0.0941  0.0517
17760SOL    HW254062   2.685   5.178   4.388  0.4473  0.0998  0.3009
17761SOL     OW54063   6.308   0.348   2.459 -0.0888  0.1740 -0.0589
17761SOL    HW154064   6.232   0.387   2.416 -0.8579 -0.0448  1.0766
17761SOL    HW254065   6.281   0.259   2.481  0.5459  0.0444  0.2273
17762SOL     OW54066   1.822   2.820   4.600  0.1921  0.3113 -0.7807
17762SOL    HW154067   1.755   2.886   4.618  1.2004  1.4606 -1.1757
17762SOL    HW254068   1.903   2.869   4.589  0.6957 -0.8247 -2.6366
17763SOL     OW54069   7.254   2.497   3.951 -0.3181 -0.4663 -0.0114
17763SOL    HW154070   7.320   2.457   3.895  1.7445 -0.9771  2.6008
17763SOL    HW254071   7.202   2.551   3.892  1.5384 -1.1522 -2.4260
17764SOL     OW54072   2.273   7.491   2.878 -0.2524 -0.8263  0.2906
17764SOL    HW154073   2.202   7.515   2.817  0.2778  0.5389  0.1781
17764SOL    HW254074   2.312   7.413   2.839 -0.5127 -0.5093 -0.6413
17765SOL     OW54075   8.040   6.540   4.601 -0.3722 -0.2225 -0.4484
17765SOL    HW154076   8.022   6.487   4.678  2.4715  1.0590  1.2293
17765SOL    HW254077   8.022   6.481   4.527 -1.0559 -2.2059  1.1932
17766SOL     OW54078   5.300   4.239   4.576 -0.3223 -0.1690  0.0243
17766SOL    HW154079   5.349   4.267   4.499 -0.0644  0.8974  0.5488
17766SOL    HW254080   5.225   4.191   4.541 -0.5148  0.7828 -0.9193
17767SOL     OW54081   3.347   7.421   3.251  0.1920 -0.1627  0.2230
17767SOL    HW154082   3.367   7.383   3.165  0.5223 -0.1536  0.2946
17767SOL    HW254083   3.392   7.363   3.313 -0.0268 -0.1548  0.3870
17768SOL     OW54084   5.604   2.052   2.948 -0.3560 -0.0765  0.2528
17768SOL    HW154085   5.586   2.030   3.039  1.5165  1.6494  1.1113
17768SOL    HW254086   5.698   2.063   2.944 -0.2578 -1.1348 -2.1897
17769SOL     OW54087   3.300   8.225   6.346 -0.6129 -0.6102 -0.1490
17769SOL    HW154088   3.267   8.243   6.258  2.2899  1.2809 -0.9921
17769SOL    HW254089   3.313   8.312   6.385 -1.3782 -1.3950  2.0295
17770SOL     OW54090   3.497   2.358   4.489 -0.3125 -0.1017  0.0275
17770SOL    HW154091   3.408   2.393   4.502  0.0981  1.3949 -0.9251
17770SOL    HW254092   3.483   2.269   4.458 -1.5019  0.2019 -0.3690
17771SOL     OW54093   1.458   2.018   1.864 -0.0608 -0.2120  0.5063
17771SOL    HW154094   1.517   2.088   1.836  0.0493 -0.4866  0.0317
17771SOL    HW254095   1.514   1.941   1.876  0.2485  0.3539  3.5223
17772SOL     OW54096   0.352   1.363   2.970  0.0960  0.4057 -0.4741
17772SOL    HW154097   0.350   1.279   2.924  0.8236 -0.0124  0.2428
17772SOL    HW254098   0.275   1.361   3.027 -0.0735  0.3719 -0.7032
17773SOL     OW54099   2.922   2.518   3.221  0.1322  0.6160 -0.0131
17773SOL    HW154100   2.881   2.588   3.271  0.9070  1.1259 -0.0604
17773SOL    HW254101   2.884   2.437   3.255 -0.6974  1.0515  0.1185
17774SOL     OW54102   8.259   3.510   1.841  0.6830  0.2906  0.0762
17774SOL    HW154103   8.274   3.604   1.826 -1.5456  0.8396  0.7555
17774SOL    HW254104   8.263   3.471   1.754  1.3536  1.0552 -0.2547
17775SOL     OW54105   5.418   1.152   4.408  0.3858 -0.2637 -0.1624
17775SOL    HW154106   5.431   1.102   4.489  0.3151  1.2132  0.8012
17775SOL    HW254107   5.359   1.099   4.356 -0.3555 -0.8003  1.1844
17776SOL     OW54108   2.639   3.659   1.275  0.1225 -0.2879  0.4655
17776SOL    HW154109   2.614   3.640   1.184  0.7736  0.4981  0.1065
17776SOL    HW254110   2.560   3.698   1.313  0.4263  1.2468 -0.3734
17777SOL     OW54111   0.225   7.562   1.297  1.0438  0.3657  0.4728
17777SOL    HW154112   0.233   7.501   1.224 -2.0263 -0.2960  0.5800
17777SOL    HW254113   0.186   7.641   1.259 -0.1310  0.1944  1.2582
17778SOL     OW54114   3.254   4.567   2.999  0.1919 -0.2845  0.5562
17778SOL    HW154115   3.324   4.577   3.064  0.2977 -0.0736  0.4108
17778SOL    HW254116   3.300   4.564   2.915  0.0483 -0.4527  0.4828
17779SOL     OW54117   0.840   6.335   8.249 -0.1284 -0.0438  0.7548
17779SOL    HW154118   0.851   6.244   8.276  0.0334 -0.1827  0.2365
17779SOL    HW254119   0.904   6.347   8.178  1.1099  0.9847  1.9805
17780SOL     OW54120   0.680   8.293   7.054  0.0678 -0.0572  0.3074
17780SOL    HW154121   0.642   8.295   7.142 -1.1139 -1.0518 -0.1392
17780SOL    HW254122   0.651   8.209   7.019  0.3710  0.4147 -1.1017
17781SOL     OW54123   7.068   4.701   6.396  0.0687  0.2059 -0.6768
17781SOL    HW154124   6.975   4.723   6.392  0.3589  1.5071 -0.9659
17781SOL    HW254125   7.102   4.723   6.309  0.7987  0.5628 -0.3160
17782SOL     OW54126   2.321   3.360   0.159 -0.0251  0.6382 -0.0424
17782SOL    HW154127   2.271   3.342   0.080  0.1184 -1.2551  0.2674
17782SOL    HW254128   2.384   3.428   0.133  0.2116 -0.1663 -1.6298
17783SOL     OW54129   2.178   3.562   0.332 -0.3217 -0.4786  0.2748
17783SOL    HW154130   2.273   3.573   0.338 -0.2277 -1.7487  1.6119
17783SOL    HW254131   2.163   3.471   0.358 -1.9185 -0.2354  0.2745
17784SOL     OW54132   5.092   6.637   3.262 -0.3424  0.1974  0.4319
17784SOL    HW154133   5.083   6.697   3.188  1.9676 -0.6619 -0.6439
17784SOL    HW254134   5.103   6.694   3.338  2.4455  1.2630 -0.6453
17785SOL     OW54135   2.599   4.722   4.946  0.3574 -0.5258 -0.0941
17785SOL    HW154136   2.645   4.800   4.978  0.1825  1.1853 -3.5328
17785SOL    HW254137   2.508   4.750   4.937 -0.2037 -1.9427  0.7889
17786SOL     OW54138   4.110   0.861   1.535  0.1574 -0.1317 -0.2462
17786SOL    HW154139   4.167   0.852   1.458  0.1349 -0.1381 -0.2625
17786SOL    HW254140   4.156   0.922   1.592  0.0005  0.1594 -0.4293
17787SOL     OW54141   7.788   7.873   2.033 -0.4355  0.6539  0.0192
17787SOL    HW154142   7.874   7.870   2.074 -1.0691 -1.8418  1.3216
17787SOL    HW254143   7.757   7.962   2.050  1.4660  1.3141  0.3295
17788SOL     OW54144   2.746   5.744   0.737  0.1137 -0.1295 -0.3714
17788SOL    HW154145   2.722   5.732   0.645  0.6481  3.7259 -1.1975
17788SOL    HW254146   2.789   5.829   0.739  0.2728 -0.1406  3.4752
17789SOL     OW54147   1.770   0.538   7.254 -0.4249 -0.1703  0.4664
17789SOL    HW154148   1.741   0.630   7.257 -2.9878 -0.9230  1.3965
17789SOL    HW254149   1.754   0.511   7.164 -0.1165  0.1631  0.3086
17790SOL     OW54150   8.263   6.692   7.942 -0.0390  0.1489  0.0260
17790SOL    HW154151   8.284   6.702   7.849  0.0465 -1.8296 -0.2151
17790SOL    HW254152   8.192   6.629   7.943 -0.6740  0.8597  1.2783
17791SOL     OW54153   3.362   3.764   7.200  0.3499 -0.0417  0.8118
17791SOL    HW154154   3.298   3.835   7.188  1.7472  1.0400 -0.5815
17791SOL    HW254155   3.309   3.689   7.228 -1.5571  0.8032 -0.3184
17792SOL     OW54156   2.256   7.332   3.119 -0.1124 -0.4796  0.0795
17792SOL    HW154157   2.318   7.271   3.078  0.8339 -0.0150  0.7700
17792SOL    HW254158   2.229   7.390   3.049  0.2927 -0.6467 -0.2172
17793SOL     OW54159   1.688   6.389   3.678  0.3269 -0.1332  0.8885
17793SOL    HW154160   1.643   6.400   3.595  0.2153  2.5132  1.1895
17793SOL    HW254161   1.772   6.433   3.666  0.1604  0.6369  2.2533
17794SOL     OW54162   5.892   3.255   1.331 -0.2227  0.2132 -0.7071
17794SOL    HW154163   5.874   3.298   1.415  0.6143 -0.9838  0.1196
17794SOL    HW254164   5.837   3.177   1.331  0.4131 -0.2407 -0.8910
17795SOL     OW54165   2.813   0.192   8.283 -0.5486  0.4504 -0.5973
17795SOL    HW154166   2.767   0.158   8.360 -0.1925  0.6308 -0.3017
17795SOL    HW254167   2.852   0.114   8.242 -0.0915  0.4424 -0.1595
17796SOL     OW54168   6.892   1.204   6.507 -0.5393 -0.6202 -0.5122
17796SOL    HW154169   6.919   1.218   6.598 -0.2986 -1.4374 -0.4454
17796SOL    HW254170   6.908   1.287   6.464  1.8695 -0.9675 -0.4159
17797SOL     OW54171   5.453   1.509   2.436  0.3145 -0.6923 -0.0647
17797SOL    HW154172   5.428   1.508   2.529 -1.7173  0.1563 -0.5385
17797SOL    HW254173   5.530   1.566   2.432 -0.7514  0.8994  0.8825
17798SOL     OW54174   6.896   0.221   3.158  0.4474  0.1720 -0.5874
17798SOL    HW154175   6.948   0.290   3.198 -1.1051  1.0702 -0.0353
17798SOL    HW254176   6.886   0.249   3.067  0.7652  0.0775 -0.6546
17799SOL     OW54177   4.988   7.598   5.389  0.3576  0.0385 -0.1260
17799SOL    HW154178   4.965   7.665   5.452  1.4473  0.2147  0.1075
17799SOL    HW254179   4.913   7.538   5.389  0.6208 -0.3609  1.8758
17800SOL     OW54180   6.031   3.780   5.218 -0.5323 -0.7628 -0.3363
17800SOL    HW154181   6.087   3.858   5.221 -0.4156 -0.8594  0.2017
17800SOL    HW254182   5.954   3.804   5.270 -0.7250 -0.8357 -0.5853
17801SOL     OW54183   1.157   3.941   4.068  0.3240 -0.4688 -0.0147
17801SOL    HW154184   1.076   3.903   4.101  0.9565 -0.6748  1.3450
17801SOL    HW254185   1.223   3.874   4.083  1.2525  0.7073  1.4120
17802SOL     OW54186   2.198   4.250   5.843 -0.0612  0.3938 -0.4429
17802SOL    HW154187   2.193   4.263   5.748 -0.2219 -0.3576 -0.5439
17802SOL    HW254188   2.232   4.161   5.853  0.3206  0.6113  0.2115
17803SOL     OW54189   8.052   1.943   1.632  0.6000  0.0006  0.4070
17803SOL    HW154190   7.977   1.901   1.590 -1.1557  2.0806  1.2677
17803SOL    HW254191   8.065   1.895   1.713 -0.1859 -0.0259  0.5199
17804SOL     OW54192   6.848   8.205   4.195  0.6325  0.4121 -0.0816
17804SOL    HW154193   6.887   8.134   4.144 -1.7656 -0.4120 -0.9131
17804SOL    HW254194   6.864   8.284   4.142  0.4554 -0.0463 -0.8410
17805SOL     OW54195   2.529   0.749   2.436  0.2779 -0.1510  0.2664
17805SOL    HW154196   2.465   0.679   2.423  0.0502  0.3111 -1.2302
17805SOL    HW254197   2.611   0.712   2.403  0.5640 -0.3393  1.1515
17806SOL     OW54198   4.895   3.456   4.665 -0.1079 -0.1882  0.0748
17806SOL    HW154199   4.916   3.373   4.622  0.6452  0.0745 -0.0865
17806SOL    HW254200   4.803   3.472   4.643 -0.7719 -1.7756  1.4357
17807SOL     OW54201   8.008   6.910   0.130  0.0539 -0.6742  0.1885
17807SOL    HW154202   8.045   6.892   0.043 -0.8147  0.7218 -0.5192
17807SOL    HW254203   7.922   6.867   0.128 -1.1316  1.5687 -0.7239
17808SOL     OW54204   0.460   4.651   2.110 -0.5971  0.1811  0.1595
17808SOL    HW154205   0.552   4.678   2.104 -0.6637  1.1388  2.4328
17808SOL    HW254206   0.432   4.643   2.019  2.3084 -2.4072 -0.7035
17809SOL     OW54207   1.215   6.666   5.370  0.2120 -0.4997 -0.4293
17809SOL    HW154208   1.252   6.753   5.383 -0.7126 -0.2581  0.6607
17809SOL    HW254209   1.258   6.634   5.290  0.7872  0.8191 -0.6720
17810SOL     OW54210   0.474   5.733   5.938  0.0894 -0.0161  0.0272
17810SOL    HW154211   0.543   5.684   5.893  0.3675 -0.9053  1.3438
17810SOL    HW254212   0.472   5.818   5.894  1.5253 -0.2246 -0.5090
17811SOL     OW54213   1.585   6.790   2.669 -0.6930 -0.2437 -0.0657
17811SOL    HW154214   1.564   6.859   2.731 -1.1165  0.3824 -0.8874
17811SOL    HW254215   1.611   6.836   2.589  1.1041 -1.0138  0.0180
17812SOL     OW54216   6.557   4.670   0.066  0.0246  0.0187 -0.0426
17812SOL    HW154217   6.505   4.749   0.076  0.5019  0.4309 -0.6926
17812SOL    HW254218   6.495   4.598   0.078 -0.9201  0.4930 -1.8026
17813SOL     OW54219   6.881   0.359   1.562 -0.4870  0.6375  0.5460
17813SOL    HW154220   6.937   0.285   1.586  1.5614  1.8832 -0.1027
17813SOL    HW254221   6.824   0.324   1.493  0.1649 -0.4420  0.5252
17814SOL     OW54222   4.981   1.317   7.334 -0.4498 -0.1034  0.1732
17814SOL    HW154223   4.895   1.341   7.369  0.0768  1.9412  0.1983
17814SOL    HW254224   4.966   1.306   7.240 -0.7003  0.5571  0.1268
17815SOL     OW54225   6.542   6.291   3.766 -0.3675  0.3321  0.4125
17815SOL    HW154226   6.630   6.265   3.738 -1.2134 -0.7315 -1.4530
17815SOL    HW254227   6.535   6.259   3.856  0.7143 -0.7049  0.1520
17816SOL     OW54228   7.839   7.555   4.457 -0.3332 -0.0158  0.1292
17816SOL    HW154229   7.927   7.580   4.485  0.3839 -0.8273 -1.3284
17816SOL    HW254230   7.839   7.459   4.460 -0.8950 -0.0518 -0.6746
17817SOL     OW54231   3.887   7.710   4.808 -0.7505  0.7433  0.2705
17817SOL    HW154232   3.944   7.711   4.885 -1.0463 -1.0750  0.5595
17817SOL    HW254233   3.802   7.681   4.842 -0.5771 -1.3005 -0.8719
17818SOL     OW54234   4.669   7.489   8.155  0.2964 -0.2459  0.0321
17818SOL    HW154235   4.725   7.413   8.172 -0.5330 -1.5339 -2.4694
17818SOL    HW254236   4.582   7.453   8.143 -0.5045  1.3698  0.7037
17819SOL     OW54237   5.617   3.678   0.117  0.0483 -0.5144  0.4508
17819SOL    HW154238   5.568   3.601   0.090  1.3059 -1.3579  0.4839
17819SOL    HW254239   5.690   3.643   0.168 -0.2437  0.8078  1.8265
17820SOL     OW54240   8.081   5.766   2.208  0.1530 -0.3742 -0.1210
17820SOL    HW154241   8.021   5.762   2.283  0.6287 -0.8578  0.2400
17820SOL    HW254242   8.151   5.705   2.230 -0.6089 -1.9169 -1.7844
17821SOL     OW54243   8.162   1.872   3.113  0.1617 -0.0856 -0.5612
17821SOL    HW154244   8.086   1.841   3.162  0.1598  1.1723  0.2952
17821SOL    HW254245   8.234   1.866   3.175  0.0709  1.9929 -0.1803
17822SOL     OW54246   4.304   7.939   0.704 -0.1862  0.6921  0.4715
17822SOL    HW154247   4.251   7.861   0.685  0.4234  0.2666  0.5101
17822SOL    HW254248   4.327   7.973   0.618 -3.4262  2.9353  0.3043
17823SOL     OW54249   2.732   6.374   0.495 -0.0155  0.2238 -0.0714
17823SOL    HW154250   2.684   6.296   0.524  0.1808  0.2829  0.4165
17823SOL    HW254251   2.669   6.446   0.505 -0.0927  0.1760 -0.2157
17824SOL     OW54252   0.240   5.586   1.996 -0.3703 -0.1196 -0.4600
17824SOL    HW154253   0.324   5.619   1.965  0.1227 -1.1203 -0.2290
17824SOL    HW254254   0.180   5.660   1.987  0.4664  0.5173 -0.8989
17825SOL     OW54255   8.306   1.238   6.259 -0.3705  0.0819  0.3197
17825SOL    HW154256   8.284   1.162   6.204  2.3757  0.0586 -0.9412
17825SOL    HW254257   8.265   1.220   6.343 -1.2942 -1.9170 -0.4956
17826SOL     OW54258   6.077   7.121   6.201 -0.3229  0.1015  0.1989
17826SOL    HW154259   6.097   7.177   6.126 -0.0956 -0.7528 -0.3956
17826SOL    HW254260   5.996   7.158   6.237 -1.1740 -0.2187 -1.2582
17827SOL     OW54261   2.604   5.995   5.401 -0.0971 -0.2852  0.0938
17827SOL    HW154262   2.586   5.932   5.471 -1.1021  0.3467  0.4231
17827SOL    HW254263   2.662   5.948   5.341 -1.1993 -1.6973  0.0736
17828SOL     OW54264   6.799   5.816   3.802 -0.3404 -0.3020 -0.7124
17828SOL    HW154265   6.748   5.897   3.800 -0.3871 -0.3196 -0.3414
17828SOL    HW254266   6.791   5.781   3.713 -1.4234 -0.5866 -0.5175
17829SOL     OW54267   1.501   5.011   2.712  0.1648 -0.2846 -0.4879
17829SOL    HW154268   1.473   5.082   2.654 -3.4704 -1.1995 -0.0533
17829SOL    HW254269   1.489   5.047   2.800  0.0722 -0.8217 -0.2793
17830SOL     OW54270   5.888   4.318   3.440 -0.3645  0.9540  0.6295
17830SOL    HW154271   5.934   4.259   3.499 -2.4102  0.8838  2.2867
17830SOL    HW254272   5.797   4.317   3.471 -1.7082  0.5906 -2.8011
17831SOL     OW54273   3.806   3.291   2.342  0.5906 -0.0507 -0.3600
17831SOL    HW154274   3.849   3.354   2.400  0.0178 -0.9844  1.1502
17831SOL    HW254275   3.852   3.300   2.258  0.3994  2.4594 -0.2504
17832SOL     OW54276   0.573   5.997   1.563 -0.8088  0.1362  0.4435
17832SOL    HW154277   0.559   5.952   1.480 -0.3187  0.1102  0.3728
17832SOL    HW254278   0.592   5.927   1.625  3.1583  0.3374 -0.2933
17833SOL     OW54279   4.212   6.288   6.168  0.1166  0.8211 -0.1887
17833SOL    HW154280   4.122   6.267   6.146  0.4221  1.1426 -1.9132
17833SOL    HW254281   4.259   6.205   6.158  0.1905  0.8821 -0.3535
17834SOL     OW54282   1.493   4.416   0.124  0.1617 -0.1387  0.0822
17834SOL    HW154283   1.508   4.378   0.210 -0.8917  1.7252  1.1651
17834SOL    HW254284   1.401   4.396   0.104 -0.0664  0.7688  0.1498
17835SOL     OW54285   5.487   8.083   0.114  0.5502 -0.4902 -0.4440
17835SOL    HW154286   5.442   8.167   0.124 -0.6080 -1.1098 -0.2522
17835SOL    HW254287   5.423   8.026   0.072  1.5656 -1.0929 -1.2295
17836SOL     OW54288   5.052   7.090   8.195  0.1344  0.1382 -0.5891
17836SOL    HW154289   5.138   7.097   8.236 -0.0783 -0.8191  0.0727
17836SOL    HW254290   5.070   7.060   8.106  0.4217 -2.2785  0.2141
17837SOL     OW54291   1.489   7.969   7.702 -0.5693 -0.2237 -0.1690
17837SOL    HW154292   1.552   7.897   7.710  0.8805  0.8980 -0.9997
17837SOL    HW254293   1.524   8.037   7.760 -2.0330 -0.2298  0.7650
17838SOL     OW54294   7.975   2.871   8.214 -0.3319  0.1486  0.0209
17838SOL    HW154295   8.065   2.864   8.245 -0.1492 -0.5237 -0.6593
17838SOL    HW254296   7.982   2.915   8.129 -0.6809  0.3754  0.1040
17839SOL     OW54297   3.927   0.481   5.798  0.0241  0.4452  0.1224
17839SOL    HW154298   3.901   0.571   5.817  1.0619  0.5183  1.2988
17839SOL    HW254299   3.955   0.446   5.883  0.7257 -0.6169 -0.5300
17840SOL     OW54300   1.000   4.434   1.617  0.0698  0.4162  0.3973
17840SOL    HW154301   0.954   4.352   1.636 -0.2863  0.4001 -0.4740
17840SOL    HW254302   0.947   4.502   1.659  0.7997  0.1485  1.8188
17841SOL     OW54303   3.278   6.967   2.982  0.8712  0.0936 -0.0259
17841SOL    HW154304   3.262   7.058   3.005 -0.4453 -0.2922  0.7119
17841SOL    HW254305   3.254   6.917   3.060  3.1543 -0.8100  0.1701
17842SOL     OW54306   3.695   2.138   3.757  0.8069 -0.1006  0.0255
17842SOL    HW154307   3.684   2.224   3.799 -0.7873  0.3186 -1.1532
17842SOL    HW254308   3.771   2.149   3.701 -0.5520  1.2610 -1.6742
17843SOL     OW54309   2.111   1.980   2.113 -0.1647  0.6051  0.3932
17843SOL    HW154310   2.204   1.958   2.107 -0.5481 -0.9006 -0.9177
17843SOL    HW254311   2.109   2.071   2.141  1.6901  0.5207  0.9105
17844SOL     OW54312   2.291   7.677   3.080  0.2749  0.9368 -0.2220
17844SOL    HW154313   2.295   7.620   3.003 -1.6441  1.8012 -1.0581
17844SOL    HW254314   2.200   7.709   3.080  0.4908  1.6742  1.8956
17845SOL     OW54315   1.694   3.044   7.610 -0.2153  0.0347  0.5892
17845SOL    HW154316   1.774   3.044   7.557 -1.3291 -1.0820 -1.1725
17845SOL    HW254317   1.695   2.960   7.656 -1.1434 -0.6908 -0.6859
17846SOL     OW54318   8.076   4.311   7.604  0.0875 -0.3839  0.7345
17846SOL    HW154319   8.007   4.299   7.539  0.8758 -2.0449  0.1395
17846SOL    HW254320   8.156   4.324   7.552  0.2966  1.0982  1.4028
17847SOL     OW54321   6.948   0.262   5.120  0.3551 -0.0782 -0.1448
17847SOL    HW154322   6.887   0.198   5.155  0.6299  1.0835  2.7526
17847SOL    HW254323   7.020   0.210   5.086 -0.0859 -1.3632  0.7832
17848SOL     OW54324   3.897   1.003   7.743 -0.7926 -0.1920 -0.2060
17848SOL    HW154325   3.898   1.089   7.701 -0.7763  0.0704  0.3322
17848SOL    HW254326   3.822   1.006   7.802  0.8564  0.5142  1.9840
17849SOL     OW54327   4.429   8.157   2.782  0.6985 -0.2017  0.1263
17849SOL    HW154328   4.522   8.177   2.792  1.1831 -1.3676 -1.5654
17849SOL    HW254329   4.425   8.098   2.706 -1.5549  0.8582 -0.6678
17850SOL     OW54330   6.315   4.909   0.365  0.2856 -0.3946  0.6024
17850SOL    HW154331   6.364   4.959   0.430 -1.3420  1.9691  0.1175
17850SOL    HW254332   6.342   4.946   0.281  0.0329 -1.2933  0.1032
17851SOL     OW54333   8.132   3.145   5.222 -0.2939 -0.0757  0.0384
17851SOL    HW154334   8.125   3.215   5.286 -0.5825 -1.6285  1.7938
17851SOL    HW254335   8.215   3.162   5.177 -1.9512  3.3253 -2.1427
17852SOL     OW54336   7.728   1.950   7.497 -0.0097 -0.2199  0.4802
17852SOL    HW154337   7.702   1.861   7.477 -2.4078  0.3058  1.0233
17852SOL    HW254338   7.675   2.005   7.439  1.2245  0.9003  0.3389
17853SOL     OW54339   0.524   4.461   7.679  0.1086  0.2664 -0.2093
17853SOL    HW154340   0.542   4.471   7.585  1.0156  0.7194 -0.0022
17853SOL    HW254341   0.455   4.525   7.697  1.8242  2.1710 -0.0614
17854SOL     OW54342   5.633   2.763   7.130 -0.4427  0.1483  0.8256
17854SOL    HW154343   5.557   2.720   7.171 -0.8500  0.9902  0.9762
17854SOL    HW254344   5.696   2.693   7.118 -1.6044 -0.7857 -0.1845
17855SOL     OW54345   0.133   4.838   6.292 -0.3197  0.1641  0.1043
17855SOL    HW154346   0.112   4.887   6.213  0.9169  0.6955  0.0937
17855SOL    HW254347   0.202   4.777   6.266  1.7081  1.8353  1.2030
17856SOL     OW54348   7.353   3.072   7.315  0.5556  0.5323 -0.0507
17856SOL    HW154349   7.387   2.995   7.362 -2.7622 -1.0249  0.0313
17856SOL    HW254350   7.365   3.051   7.223 -1.7785 -0.9395 -0.0938
17857SOL     OW54351   2.526   8.002   4.142  0.1506  0.1429 -0.0451
17857SOL    HW154352   2.589   7.933   4.164  1.8949  2.3826  2.7630
17857SOL    HW254353   2.550   8.028   4.053  2.8957  0.4827  0.7021
17858SOL     OW54354   4.112   3.984   7.864 -0.0803  0.0681 -0.5898
17858SOL    HW154355   4.171   3.951   7.796 -1.3681 -2.3734 -0.6242
17858SOL    HW254356   4.027   3.991   7.820 -0.9134 -1.4356  0.6734
17859SOL     OW54357   7.942   7.581   6.037  0.1822  0.2780  0.3958
17859SOL    HW154358   7.909   7.508   5.985 -2.2370  0.8269  1.0175
17859SOL    HW254359   8.010   7.621   5.982  2.1110 -2.7664  0.3466
17860SOL     OW54360   3.237   1.433   7.785  0.1521 -0.1185 -0.1755
17860SOL    HW154361   3.163   1.410   7.729 -0.3979  0.2251  0.4076
17860SOL    HW254362   3.306   1.372   7.759  0.2467  0.6458 -1.9421
17861SOL     OW54363   6.119   4.471   4.315  0.2939  0.2862 -0.2347
17861SOL    HW154364   6.044   4.425   4.277 -0.1880  0.1068  0.8618
17861SOL    HW254365   6.177   4.401   4.347  0.7958  0.4270 -0.8337
17862SOL     OW54366   3.067   7.955   2.002  0.1873 -0.0182  0.3883
17862SOL    HW154367   3.036   7.885   2.059  0.4630  2.3262  3.7146
17862SOL    HW254368   3.162   7.946   2.001  0.3364  0.9660  1.9292
17863SOL     OW54369   7.684   7.798   7.668  0.8539 -0.3299  0.0826
17863SOL    HW154370   7.645   7.799   7.756  1.3411  0.1364  0.2997
17863SOL    HW254371   7.642   7.870   7.622  2.3675  1.0264  0.7377
17864SOL     OW54372   6.545   0.810   7.127 -0.0901  0.4899 -0.1865
17864SOL    HW154373   6.512   0.819   7.038 -0.1706  1.1533 -0.0951
17864SOL    HW254374   6.474   0.839   7.183 -0.4506 -0.9839  0.1653
17865SOL     OW54375   2.434   6.112   0.867 -0.0015  0.1905 -0.3740
17865SOL    HW154376   2.488   6.153   0.936 -0.1169 -1.0885  0.5077
17865SOL    HW254377   2.389   6.186   0.826  0.9464  1.0996  0.1523
17866SOL     OW54378   7.813   7.148   1.421 -0.2130 -0.5959  0.0430
17866SOL    HW154379   7.830   7.108   1.336  1.0743  0.1228 -0.0641
17866SOL    HW254380   7.804   7.242   1.401 -1.9955 -0.6508  0.4392
17867SOL     OW54381   1.796   5.924   0.629  0.3920 -0.2461 -0.3949
17867SOL    HW154382   1.883   5.919   0.669  0.5129  0.0363 -0.6251
17867SOL    HW254383   1.809   5.974   0.549 -0.1071  0.3591 -0.1025
17868SOL     OW54384   2.819   0.949   0.645  0.0385  0.1272  0.7802
17868SOL    HW154385   2.865   1.000   0.578 -0.1819 -1.6704 -0.8333
17868SOL    HW254386   2.735   0.993   0.656  0.3343  0.8091  0.3507
17869SOL     OW54387   2.588   3.988   5.322 -0.1047 -0.0000  0.3777
17869SOL    HW154388   2.666   3.936   5.302 -0.2124  0.5653 -1.7316
17869SOL    HW254389   2.542   3.996   5.239 -1.9058  0.5478  1.3686
17870SOL     OW54390   6.045   5.667   0.396 -0.0515  0.0364 -0.4701
17870SOL    HW154391   6.020   5.579   0.424  0.7357 -0.2719 -0.6956
17870SOL    HW254392   5.966   5.704   0.358 -0.4972 -0.4277  0.0022
17871SOL     OW54393   1.646   4.664   3.384 -0.3273 -0.2554  0.3018
17871SOL    HW154394   1.644   4.579   3.339  2.0445 -0.1839 -0.0685
17871SOL    HW254395   1.735   4.697   3.369 -1.7323  3.3257 -1.4643
17872SOL     OW54396   6.391   1.576   8.297 -0.5118  0.9195  0.4723
17872SOL    HW154397   6.392   1.518   8.220  0.2311  1.5488 -0.0031
17872SOL    HW254398   6.305   1.618   8.293  0.1189  2.1307 -0.9326
17873SOL     OW54399   1.680   6.468   7.072  0.0224 -0.1035 -0.3848
17873SOL    HW154400   1.591   6.492   7.101 -0.2070  0.0783 -1.2195
17873SOL    HW254401   1.689   6.510   6.987  0.3969 -1.2948 -0.9448
17874SOL     OW54402   3.752   3.221   1.550  0.3382 -0.5479  0.1622
17874SOL    HW154403   3.796   3.181   1.626 -1.2861  0.3728  1.6687
17874SOL    HW254404   3.816   3.283   1.516  1.0907 -0.9355  0.8280
17875SOL     OW54405   2.861   7.638   6.237 -0.6094  0.2778  0.2979
17875SOL    HW154406   2.872   7.553   6.279 -0.9933 -0.6546 -1.4271
17875SOL    HW254407   2.901   7.629   6.151  1.9999  2.7795  1.0767
17876SOL     OW54408   1.198   5.937   4.175 -0.7685  0.3021  0.2423
17876SOL    HW154409   1.211   5.935   4.080  1.7473  0.4494  0.5077
17876SOL    HW254410   1.153   5.855   4.195 -0.7015 -0.0613 -1.0004
17877SOL     OW54411   2.403   7.887   0.110 -0.0115  0.3887 -0.4076
17877SOL    HW154412   2.395   7.807   0.059 -0.9353  0.6681 -0.7165
17877SOL    HW254413   2.487   7.925   0.082  1.8346 -1.8105  1.7351
17878SOL     OW54414   4.971   5.167   7.756 -0.4268  0.0893 -0.2984
17878SOL    HW154415   4.927   5.246   7.723  0.0552 -0.0334 -1.2784
17878SOL    HW254416   4.910   5.096   7.737 -0.7691  0.1938  0.3911
17879SOL     OW54417   3.628   1.986   1.800  0.2855  0.8108  0.1932
17879SOL    HW154418   3.688   2.027   1.737  0.7468 -1.0001 -0.6308
17879SOL    HW254419   3.551   1.964   1.747  0.2952  0.1115  0.4608
17880SOL     OW54420   2.824   4.717   1.968  0.0167 -0.6137 -0.1750
17880SOL    HW154421   2.904   4.667   1.985  0.5583  0.5100  0.6653
17880SOL    HW254422   2.825   4.732   1.874  1.1012 -0.1165 -0.0984
17881SOL     OW54423   2.083   6.933   2.802  0.0933 -0.0916 -0.0964
17881SOL    HW154424   2.000   6.890   2.786  0.0028  0.1937 -0.3842
17881SOL    HW254425   2.149   6.866   2.785 -0.0943 -0.5257  0.7967
17882SOL     OW54426   3.890   3.862   2.662  0.2573 -0.3627  0.0238
17882SOL    HW154427   3.977   3.886   2.631  0.7363 -1.5132  0.4427
17882SOL    HW254428   3.879   3.910   2.744 -0.2323  1.1566 -0.8896
17883SOL     OW54429   1.284   2.808   0.585  0.6428  0.8132  0.2563
17883SOL    HW154430   1.346   2.850   0.645 -0.4330  0.8833  1.3668
17883SOL    HW254431   1.232   2.750   0.641  0.3365  0.0339 -0.8078
17884SOL     OW54432   1.686   4.154   2.970  0.6778  0.0751 -0.3928
17884SOL    HW154433   1.666   4.248   2.967 -0.3404 -0.0908 -3.8629
17884SOL    HW254434   1.777   4.148   2.943  0.5275  0.0485 -0.9036
17885SOL     OW54435   0.905   2.274   4.760  0.0215 -0.4482 -0.4926
17885SOL    HW154436   0.956   2.333   4.706  1.5744 -1.0348  0.2517
17885SOL    HW254437   0.906   2.191   4.713  1.9806 -1.1586  0.6650
17886SOL     OW54438   4.248   2.335   5.033 -0.3410 -0.1489 -0.0360
17886SOL    HW154439   4.199   2.417   5.042 -1.1898 -0.5584 -0.8248
17886SOL    HW254440   4.257   2.303   5.122  1.0375  1.3720  0.4374
17887SOL     OW54441   6.165   6.329   4.053  0.0005 -0.1427 -0.0310
17887SOL    HW154442   6.165   6.331   3.957 -1.2119  0.3097 -0.0396
17887SOL    HW254443   6.073   6.334   4.077  0.3683  1.4276  1.1914
17888SOL     OW54444   7.222   6.828   7.766 -0.2432 -0.5151  0.8671
17888SOL    HW154445   7.290   6.791   7.823 -0.5088 -1.5625  0.5260
17888SOL    HW254446   7.141   6.786   7.794 -0.3555 -1.1736 -0.3606
17889SOL     OW54447   2.191   4.882   1.545  0.2179 -0.1242 -0.2088
17889SOL    HW154448   2.271   4.849   1.505  0.8120 -0.1641  0.9966
17889SOL    HW254449   2.203   4.977   1.547 -0.4470  0.0063 -1.4404
17890SOL     OW54450   7.224   6.336   4.021 -0.2651  0.0024 -0.2309
17890SOL    HW154451   7.150   6.304   3.969 -0.2775  0.5588 -0.5671
17890SOL    HW254452   7.218   6.287   4.103 -0.7718 -0.2455 -0.4095
17891SOL     OW54453   5.433   0.225   5.957  0.1570 -0.0492 -0.4105
17891SOL    HW154454   5.521   0.217   5.921  0.9041  2.8960  0.4618
17891SOL    HW254455   5.379   0.254   5.884  0.9103  2.4028 -0.0788
17892SOL     OW54456   1.790   3.083   1.006 -0.1113  0.1364 -0.4061
17892SOL    HW154457   1.778   3.073   0.911 -2.2224  2.8964 -0.5649
17892SOL    HW254458   1.751   3.004   1.044 -1.1681 -0.0328 -1.7839
17893SOL     OW54459   0.332   0.478   0.238  0.6177 -0.0468 -0.3334
17893SOL    HW154460   0.354   0.547   0.176  0.9055 -0.4809 -0.7209
17893SOL    HW254461   0.310   0.402   0.184  0.3378 -0.2689  0.0845
17894SOL     OW54462   0.008   0.912   4.774  0.3524  0.5252  0.7170
17894SOL    HW154463   0.059   0.923   4.694 -1.8909  0.8503 -0.7668
17894SOL    HW254464   0.073   0.902   4.843  2.3891 -0.5230 -1.2272
17895SOL     OW54465   1.671   7.494   8.095 -0.2290  0.6651  0.2854
17895SOL    HW154466   1.631   7.462   8.014 -0.3407 -2.0264  1.3267
17895SOL    HW254467   1.764   7.505   8.073 -0.4649  1.1190 -0.5188
17896SOL     OW54468   4.395   6.459   5.273 -0.4617 -0.0944  0.2582
17896SOL    HW154469   4.365   6.372   5.300 -1.4754  0.0550 -0.3278
17896SOL    HW254470   4.344   6.478   5.194 -1.0347  1.4642  0.9554
17897SOL     OW54471   5.701   6.776   3.859  0.1592  0.4588 -0.1700
17897SOL    HW154472   5.700   6.732   3.774  2.6435  0.9348 -0.5373
17897SOL    HW254473   5.743   6.861   3.841 -0.4917  1.1290  1.3142
17898SOL     OW54474   2.580   5.319   7.261  0.1660 -0.7828  0.1543
17898SOL    HW154475   2.517   5.248   7.247  0.4462 -0.8745 -0.6629
17898SOL    HW254476   2.526   5.395   7.282 -0.2869 -0.6075 -1.5605
17899SOL     OW54477   3.225   7.386   2.584  0.3762  0.2445 -0.4355
17899SOL    HW154478   3.286   7.422   2.649 -1.0811 -0.0924  1.1949
17899SOL    HW254479   3.147   7.441   2.591  0.3886  0.5588 -2.3532
17900SOL     OW54480   6.175   3.002   7.881 -0.4677  0.7441 -0.0552
17900SOL    HW154481   6.232   2.985   7.806  2.0603  1.1451  1.6353
17900SOL    HW254482   6.137   3.088   7.863  0.5097  1.0620 -0.6876
17901SOL     OW54483   7.197   4.107   4.178  0.2553  0.0114  0.4087
17901SOL    HW154484   7.284   4.140   4.201  0.1036 -0.6045  1.9659
17901SOL    HW254485   7.137   4.152   4.238 -0.7061  1.3774 -1.4642
17902SOL     OW54486   0.571   2.082   3.940 -0.0536  0.3834 -0.5274
17902SOL    HW154487   0.606   2.164   3.904 -1.0521  0.5116 -1.2534
17902SOL    HW254488   0.578   2.019   3.868  0.8268 -0.2215  0.0676
17903SOL     OW54489   0.010   1.776   6.364 -0.3881  0.0090 -0.2709
17903SOL    HW154490   0.099   1.765   6.332 -0.6309 -1.1743 -0.6192
17903SOL    HW254491  -0.018   1.687   6.386 -0.4047  0.7014  2.8833
17904SOL     OW54492   4.955   2.217   1.266  0.1579 -0.2306 -0.3457
17904SOL    HW154493   4.883   2.206   1.204 -0.0243  3.0982 -0.8964
17904SOL    HW254494   4.914   2.258   1.342  1.4221  2.0610 -0.8080
17905SOL     OW54495   4.930   3.396   0.584  0.2293  0.3110  0.2076
17905SOL    HW154496   5.005   3.348   0.618 -0.4226 -1.3925 -0.6418
17905SOL    HW254497   4.886   3.334   0.526 -1.0227  1.7483 -0.4448
17906SOL     OW54498   2.168   7.257   6.539  0.6339  0.4361  1.0236
17906SOL    HW154499   2.222   7.331   6.566  2.5065  0.1156 -1.4486
17906SOL    HW254500   2.126   7.287   6.458  3.3818 -1.8294 -1.4688
17907SOL     OW54501   0.355   3.431   6.894  0.0824  0.7697 -0.2879
17907SOL    HW154502   0.345   3.418   6.799  1.0402  0.7317 -0.3905
17907SOL    HW254503   0.435   3.482   6.903  0.1791  0.4868  0.5280
17908SOL     OW54504   7.288   5.141   4.942 -0.0900  0.2714 -0.5488
17908SOL    HW154505   7.242   5.207   4.890 -0.2250 -0.2762 -1.1358
17908SOL    HW254506   7.350   5.101   4.882 -0.3937 -0.5144 -0.3523
17909SOL     OW54507   6.429   7.251   3.934  0.8945  0.2280 -0.3018
17909SOL    HW154508   6.518   7.259   3.899  1.1091 -1.9137 -0.3656
17909SOL    HW254509   6.440   7.202   4.016  0.0637  2.5311  1.2695
17910SOL     OW54510   2.937   0.583   2.657 -0.1637  0.6704  0.1417
17910SOL    HW154511   2.887   0.576   2.738 -0.2184 -1.1746 -0.0110
17910SOL    HW254512   2.942   0.493   2.624  0.3949  1.2925 -1.5793
17911SOL     OW54513   3.241   6.570   8.291  0.3447 -0.0948  0.0482
17911SOL    HW154514   3.303   6.559   8.219  1.1221  0.5509  0.6051
17911SOL    HW254515   3.157   6.542   8.255  0.7580  0.0620 -1.0598
17912SOL     OW54516   6.163   7.970   0.775 -0.2919  0.0599  0.4461
17912SOL    HW154517   6.170   7.948   0.868  0.0771  1.8502  0.8757
17912SOL    HW254518   6.204   7.897   0.730  2.0837  0.4341  1.8488
17913SOL     OW54519   3.864   1.329   6.647  0.3150 -0.2146 -0.3216
17913SOL    HW154520   3.785   1.381   6.663  1.1826  0.9200  0.4230
17913SOL    HW254521   3.859   1.258   6.711  0.0823  0.0670 -0.0223
17914SOL     OW54522   2.398   5.931   0.438 -0.3739 -0.0127 -0.2487
17914SOL    HW154523   2.459   5.862   0.415  0.3707  0.6643 -0.3502
17914SOL    HW254524   2.410   5.945   0.532  0.1804  0.6364 -0.4098
17915SOL     OW54525   5.353   6.259   5.195  0.5028  0.2442  0.5825
17915SOL    HW154526   5.309   6.334   5.156 -0.2280 -1.2389 -1.6972
17915SOL    HW254527   5.316   6.252   5.283  1.4517  3.1508  1.3132
17916SOL     OW54528   7.171   5.103   8.214 -0.0181 -0.5196 -0.0480
17916SOL    HW154529   7.159   5.029   8.156  0.6971 -0.9219  0.2990
17916SOL    HW254530   7.224   5.165   8.164  0.1651 -0.6431 -0.0064
17917SOL     OW54531   1.537   0.969   6.099  0.6089  0.0197  0.4662
17917SOL    HW154532   1.468   0.954   6.164 -0.4318  1.4625 -0.2555
17917SOL    HW254533   1.525   0.899   6.035 -0.0193  0.1114  0.4819
17918SOL     OW54534   3.410   1.219   7.202 -0.6448 -0.0433 -0.1186
17918SOL    HW154535   3.332   1.243   7.253 -1.5419 -3.9924  0.7526
17918SOL    HW254536   3.483   1.260   7.248 -1.9378  1.4434  0.7121
17919SOL     OW54537   4.921   4.946   4.585 -0.1448  0.4614  0.1065
17919SOL    HW154538   4.958   4.857   4.588 -0.2694  0.2929 -2.0893
17919SOL    HW254539   4.922   4.975   4.677  1.7680 -1.0330  0.6342
17920SOL     OW54540   2.751   4.914   5.073 -0.4584  0.5195 -0.2368
17920SOL    HW154541   2.719   4.996   5.110 -0.0242  0.1138  1.0862
17920SOL    HW254542   2.826   4.890   5.128 -1.0649 -1.1689 -0.0951
17921SOL     OW54543   0.108   7.898   3.149 -0.4194  0.6332  0.1800
17921SOL    HW154544   0.015   7.879   3.158 -0.4673 -0.2778 -1.6910
17921SOL    HW254545   0.151   7.845   3.216 -1.1589  0.2396  0.3439
17922SOL     OW54546   2.411   3.316   5.982  0.6974 -0.5664 -0.4009
17922SOL    HW154547   2.360   3.236   5.968 -0.3712  0.1482 -0.7251
17922SOL    HW254548   2.373   3.355   6.060  1.6059 -0.6596  0.0987
17923SOL     OW54549   2.955   3.156   5.421 -0.2461  0.1222 -0.0618
17923SOL    HW154550   2.946   3.215   5.496 -1.9018  0.3512 -0.3989
17923SOL    HW254551   2.899   3.194   5.354 -0.5731 -1.3144 -0.6312
17924SOL     OW54552   7.112   7.198   2.111 -0.1735 -0.2416 -0.2424
17924SOL    HW154553   7.121   7.103   2.100 -1.0573 -0.1163 -2.4189
17924SOL    HW254554   7.186   7.222   2.167  0.4634 -2.1126 -0.2096
17925SOL     OW54555   7.131   1.529   4.826  0.3303 -0.3694  0.1055
17925SOL    HW154556   7.135   1.559   4.917 -0.0796 -0.4006  0.1371
17925SOL    HW254557   7.197   1.461   4.820 -0.8846 -1.6873  0.8919
17926SOL     OW54558   0.490   7.882   3.941 -0.2215 -0.3305  0.6652
17926SOL    HW154559   0.395   7.868   3.938 -0.0905 -1.0457 -0.4422
17926SOL    HW254560   0.500   7.957   4.000 -1.8099  2.4749 -2.2774
17927SOL     OW54561   2.190   3.630   2.933  0.1829 -0.1156  0.5478
17927SOL    HW154562   2.156   3.563   2.992  0.9262 -0.3238  0.7513
17927SOL    HW254563   2.165   3.713   2.974 -0.8631 -0.2510  0.2228
17928SOL     OW54564   3.365   2.310   2.864 -0.1668  0.4035 -0.4963
17928SOL    HW154565   3.397   2.345   2.781 -0.6661  2.0196 -0.0398
17928SOL    HW254566   3.417   2.231   2.879  1.1905  1.0908 -1.4534
17929SOL     OW54567   4.422   0.454   7.038 -0.1936 -0.0983  0.0554
17929SOL    HW154568   4.492   0.502   6.995  1.2772 -1.3780  0.9420
17929SOL    HW254569   4.365   0.426   6.966  1.0590 -0.3883 -0.8504
17930SOL     OW54570   3.462   6.140   4.497 -0.2874  0.2428 -0.2311
17930SOL    HW154571   3.540   6.181   4.460  0.2844 -1.0720 -0.5498
17930SOL    HW254572   3.389   6.180   4.449  0.2055  1.1567 -0.2458
17931SOL     OW54573   2.128   2.625   7.956  0.0087 -0.1572 -0.2333
17931SOL    HW154574   2.201   2.681   7.980 -1.6726  2.4404 -0.6861
17931SOL    HW254575   2.055   2.656   8.010 -0.6119 -3.3370  0.9909
17932SOL     OW54576   0.944   7.957   6.468  0.0911 -0.6445  0.0619
17932SOL    HW154577   0.898   7.877   6.444 -0.2063 -0.1173 -1.2088
17932SOL    HW254578   1.017   7.927   6.522 -1.1664 -1.5774  1.3012
17933SOL     OW54579   0.464   7.152   3.047  0.4154  0.6984 -0.1160
17933SOL    HW154580   0.530   7.104   3.097 -0.7478 -0.5389  0.2887
17933SOL    HW254581   0.499   7.155   2.958  0.2624 -1.4674 -0.2941
17934SOL     OW54582   0.035   7.469   4.809 -0.3725  0.2182  0.1587
17934SOL    HW154583   0.107   7.432   4.860 -0.0787 -2.3277 -1.8746
17934SOL    HW254584  -0.044   7.431   4.849 -0.2871 -0.1246  0.0084
17935SOL     OW54585   0.407   0.704   6.951  0.0150 -0.3045 -0.2846
17935SOL    HW154586   0.461   0.781   6.967  0.5425 -0.9102  0.9781
17935SOL    HW254587   0.318   0.738   6.947  0.3177  0.4821 -0.6845
17936SOL     OW54588   7.903   6.509   3.374  0.5159  0.0375 -0.0088
17936SOL    HW154589   7.958   6.581   3.343  0.6423 -0.3295 -0.6380
17936SOL    HW254590   7.863   6.474   3.295 -0.3242  0.0503  0.4008
17937SOL     OW54591   5.602   8.015   7.799  0.1661  0.1366 -0.1334
17937SOL    HW154592   5.625   7.968   7.879 -0.2296  1.0567  0.5469
17937SOL    HW254593   5.659   8.092   7.799 -0.2407  0.4442 -0.4251
17938SOL     OW54594   6.606   0.419   3.589 -0.8801  0.3207 -0.8114
17938SOL    HW154595   6.665   0.390   3.520 -1.6920 -3.2659 -0.2146
17938SOL    HW254596   6.527   0.446   3.543 -0.2508  1.2415 -1.3925
17939SOL     OW54597   6.742   6.937   1.490 -0.4158  0.0965 -0.0483
17939SOL    HW154598   6.701   6.914   1.406 -2.0403  0.7200  0.5277
17939SOL    HW254599   6.831   6.962   1.467 -0.9698  0.7365 -1.6626
17940SOL     OW54600   4.463   7.697   2.186  0.5767 -0.3281 -0.1341
17940SOL    HW154601   4.534   7.643   2.221 -0.7300 -1.3667  1.0215
17940SOL    HW254602   4.492   7.721   2.098  2.8199  0.1902  0.6821
17941SOL     OW54603   0.985   0.794   1.438 -0.2159  0.1284  0.6391
17941SOL    HW154604   0.916   0.855   1.415  0.0974  0.1650 -0.2505
17941SOL    HW254605   1.037   0.840   1.504  0.2070  0.9658 -0.2525
17942SOL     OW54606   4.434   5.879   5.103  0.5049 -0.2434  0.2535
17942SOL    HW154607   4.361   5.940   5.109  2.7026  2.8909 -1.7940
17942SOL    HW254608   4.410   5.821   5.031 -0.3208  0.2060  0.1495
17943SOL     OW54609   0.425   3.728   2.827 -0.3899 -0.5072  0.2632
17943SOL    HW154610   0.341   3.686   2.845 -0.7762  0.4289  0.7459
17943SOL    HW254611   0.488   3.657   2.823 -1.2526 -1.2507 -0.3888
17944SOL     OW54612   2.482   1.267   2.955  0.6920  0.1392 -0.2142
17944SOL    HW154613   2.536   1.245   2.879  0.8166 -0.6591  0.0956
17944SOL    HW254614   2.401   1.219   2.942  0.3836  0.6601 -0.2495
17945SOL     OW54615   2.548   7.758   3.120 -0.0462 -0.3732  0.6225
17945SOL    HW154616   2.453   7.768   3.110 -0.0033  0.2755  0.8186
17945SOL    HW254617   2.569   7.807   3.199  0.4247 -0.7060  0.7088
17946SOL     OW54618   7.693   1.005   3.262  1.2235  0.2272 -0.3918
17946SOL    HW154619   7.706   1.011   3.167  0.9879 -0.3374 -0.4678
17946SOL    HW254620   7.669   0.913   3.277  0.6529  0.4495  0.1399
17947SOL     OW54621   5.905   3.329   1.774 -0.3155  0.0885 -0.1144
17947SOL    HW154622   5.831   3.343   1.833 -0.8030  0.5329 -0.8135
17947SOL    HW254623   5.889   3.242   1.736  0.8068 -0.8955  1.5150
17948SOL     OW54624   7.979   1.563   7.584 -0.2260  0.4059 -0.5436
17948SOL    HW154625   8.070   1.541   7.602 -0.3074 -0.9595 -1.6160
17948SOL    HW254626   7.979   1.658   7.572  1.1629  0.3629 -1.1074
17949SOL     OW54627   4.870   0.579   2.057  0.2716 -0.2317 -0.2652
17949SOL    HW154628   4.795   0.585   1.998 -0.4017  0.5371  0.6356
17949SOL    HW254629   4.844   0.629   2.135  1.4945 -0.4336  0.3058
17950SOL     OW54630   0.817   5.170   5.654 -0.0771 -0.0426  0.0109
17950SOL    HW154631   0.743   5.110   5.656 -1.1478  1.1782 -1.0969
17950SOL    HW254632   0.836   5.181   5.561  0.4146  0.9447  0.2140
17951SOL     OW54633   3.503   7.391   6.639 -0.3309  0.6165 -0.4723
17951SOL    HW154634   3.426   7.425   6.593 -1.4037 -0.0231  0.7726
17951SOL    HW254635   3.490   7.296   6.641 -0.2407  0.6114  0.9793
17952SOL     OW54636   0.198   5.257   7.232  0.1276  0.3621 -0.2311
17952SOL    HW154637   0.231   5.324   7.171 -1.2243  0.4502 -0.9116
17952SOL    HW254638   0.130   5.211   7.182  1.5918 -2.1387 -0.0818
17953SOL     OW54639   7.440   6.672   1.188 -0.5307  0.3180 -0.2977
17953SOL    HW154640   7.453   6.604   1.121 -0.3750  0.9269 -0.8909
17953SOL    HW254641   7.449   6.625   1.271  1.0634 -0.1374 -0.6843
17954SOL     OW54642   5.973   7.324   3.636 -1.0477  0.1041  0.1190
17954SOL    HW154643   5.953   7.259   3.703 -1.9390 -0.5810 -0.7910
17954SOL    HW254644   6.032   7.280   3.575 -0.1126  0.7753  0.4989
17955SOL     OW54645   0.703   8.138   5.710  0.1502  0.5081 -0.1930
17955SOL    HW154646   0.648   8.060   5.719 -1.0618  1.4617  1.1449
17955SOL    HW254647   0.792   8.106   5.728 -0.2790 -0.6317 -0.0051
17956SOL     OW54648   1.041   1.243   5.889  0.0863  0.1101  0.2195
17956SOL    HW154649   0.983   1.304   5.935 -1.9736 -1.4512 -0.1670
17956SOL    HW254650   1.078   1.188   5.959  0.6867  0.7512  0.4156
17957SOL     OW54651   2.463   1.697   7.828 -0.4379  0.2993 -0.2081
17957SOL    HW154652   2.425   1.628   7.773  1.5532 -0.9368 -0.1472
17957SOL    HW254653   2.456   1.776   7.775 -1.6880 -0.1530 -0.7833
17958SOL     OW54654   8.080   2.911   7.561  0.1739  0.0854 -0.1824
17958SOL    HW154655   8.128   2.873   7.488 -0.9521  0.2564 -1.0324
17958SOL    HW254656   8.003   2.856   7.571  1.4431 -1.4258  2.4859
17959SOL     OW54657   3.552   6.460   4.644  0.0226  0.2587 -0.5618
17959SOL    HW154658   3.470   6.449   4.596  0.6860  0.3222 -1.7281
17959SOL    HW254659   3.545   6.547   4.683 -0.5717  0.1603 -0.4470
17960SOL     OW54660   1.794   6.511   2.087  0.3930  0.1438  0.2209
17960SOL    HW154661   1.713   6.472   2.052  1.4766 -2.0424  0.0039
17960SOL    HW254662   1.770   6.540   2.175 -1.4018  2.3588 -0.8929
17961SOL     OW54663   5.321   6.442   1.726  0.9055 -0.1584 -0.4742
17961SOL    HW154664   5.406   6.484   1.725  1.4246 -1.1676  0.1234
17961SOL    HW254665   5.263   6.504   1.771  1.2412  0.6477 -1.1318
17962SOL     OW54666   7.907   0.575   2.398  0.4492  0.5367 -0.3939
17962SOL    HW154667   7.848   0.598   2.327  0.0730 -0.7552 -0.5175
17962SOL    HW254668   7.994   0.590   2.363  0.2530  0.3004 -0.9835
17963SOL     OW54669   4.947   6.633   2.976 -0.6315 -0.5969  0.0153
17963SOL    HW154670   5.021   6.653   2.919 -1.9387  0.9497 -1.2582
17963SOL    HW254671   4.952   6.539   2.991 -0.2098 -1.0740 -2.6954
17964SOL     OW54672   0.750   4.432   2.545  0.2996 -0.5020  0.0512
17964SOL    HW154673   0.845   4.420   2.545  0.3373 -1.0047  3.1148
17964SOL    HW254674   0.732   4.476   2.628 -2.0154  1.4331 -1.3501
17965SOL     OW54675   8.128   3.330   7.603  0.0824  0.4853 -0.2931
17965SOL    HW154676   8.036   3.303   7.603  0.6173 -1.7089 -2.3276
17965SOL    HW254677   8.172   3.266   7.659  0.3424  1.7813  1.0265
17966SOL     OW54678   0.413   5.263   2.535  0.3252  0.1085 -0.0117
17966SOL    HW154679   0.412   5.344   2.587 -0.9696  0.4118 -0.4768
17966SOL    HW254680   0.384   5.195   2.596 -0.4983  0.3427 -0.1279
17967SOL     OW54681   3.702   3.126   7.182 -0.3019  0.0666 -0.1287
17967SOL    HW154682   3.643   3.129   7.107  0.1887  1.7209 -0.4724
17967SOL    HW254683   3.653   3.169   7.252  0.1132  0.5317 -0.1281
17968SOL     OW54684   6.942   8.033   7.729 -0.0885  0.1593  0.4680
17968SOL    HW154685   6.959   8.054   7.637  0.3516 -0.2997  0.4397
17968SOL    HW254686   6.848   8.015   7.732 -0.3361  1.3574  0.3496
17969SOL     OW54687   5.879   3.294   4.538 -0.0721 -0.1801 -0.5259
17969SOL    HW154688   5.913   3.207   4.560 -0.2268 -0.0660  0.2073
17969SOL    HW254689   5.817   3.279   4.468 -1.9376 -1.0077  1.1957
17970SOL     OW54690   4.586   0.388   0.932 -0.5507  0.3731 -0.7343
17970SOL    HW154691   4.544   0.320   0.880 -1.1497  0.5754 -0.5186
17970SOL    HW254692   4.571   0.362   1.023  1.5323 -0.6258 -0.6273
17971SOL     OW54693   2.252   1.281   3.748 -0.1059 -0.2084  0.2001
17971SOL    HW154694   2.264   1.375   3.765  0.4741 -0.1882 -0.2863
17971SOL    HW254695   2.215   1.247   3.830 -1.3344  0.6196  0.0181
17972SOL     OW54696   1.142   1.160   2.183  0.6914  0.4655 -0.1737
17972SOL    HW154697   1.085   1.086   2.205 -1.3583  2.2449  0.9053
17972SOL    HW254698   1.184   1.183   2.266  2.0944 -0.0711 -0.7128
17973SOL     OW54699   4.647   4.443   6.110 -0.2298  0.3720  0.4934
17973SOL    HW154700   4.621   4.523   6.064  1.3808  0.5356 -0.2302
17973SOL    HW254701   4.707   4.399   6.049  1.0327 -0.0069  1.9358
17974SOL     OW54702   1.682   0.208   3.599  0.0979 -0.2512 -0.4431
17974SOL    HW154703   1.724   0.124   3.579  0.7236 -0.1660  0.4365
17974SOL    HW254704   1.644   0.196   3.686  2.4886  1.1536  0.9127
17975SOL     OW54705   1.738   5.390   0.586 -0.3035 -0.0352 -0.1268
17975SOL    HW154706   1.720   5.466   0.642 -0.0608 -0.0596 -0.0153
17975SOL    HW254707   1.804   5.339   0.634 -1.1422 -0.8054  0.2433
17976SOL     OW54708   1.795   3.849   5.686  0.3745  0.3027 -0.3591
17976SOL    HW154709   1.708   3.832   5.649  0.6029 -2.6745  0.2531
17976SOL    HW254710   1.852   3.860   5.610 -0.1810  0.1422 -0.8076
17977SOL     OW54711   4.312   6.866   1.431 -0.1552  0.1382 -0.6284
17977SOL    HW154712   4.225   6.894   1.461  0.2037  0.5837  0.0228
17977SOL    HW254713   4.296   6.786   1.381 -1.0537  0.7366 -1.3291
17978SOL     OW54714   5.098   7.775   0.149 -0.2777 -0.6169 -0.0775
17978SOL    HW154715   5.125   7.837   0.216  0.8976 -0.1815 -0.9157
17978SOL    HW254716   5.094   7.691   0.194  2.4926 -0.7135  0.1642
17979SOL     OW54717   5.584   2.061   1.283 -0.1275  0.1255 -0.2119
17979SOL    HW154718   5.667   2.101   1.262  0.0542 -0.4864 -0.6980
17979SOL    HW254719   5.566   2.088   1.373  0.6295  0.1964 -0.0778
17980SOL     OW54720   0.841   3.991   1.560 -0.4589 -0.3671 -0.3065
17980SOL    HW154721   0.839   3.933   1.636 -0.3358 -0.8608 -0.6776
17980SOL    HW254722   0.753   4.029   1.558 -0.6552 -0.8094 -0.2688
17981SOL     OW54723   1.526   6.062   6.155  0.1378 -0.0111 -0.7869
17981SOL    HW154724   1.523   6.083   6.248 -0.0274  0.1281 -0.8257
17981SOL    HW254725   1.580   5.982   6.151 -0.4638 -0.4414 -0.4979
17982SOL     OW54726   3.385   0.440   4.047  0.4831 -0.0713  0.2283
17982SOL    HW154727   3.412   0.511   3.989  0.4896  1.6014  2.1518
17982SOL    HW254728   3.467   0.396   4.070  0.5952 -0.0990 -0.2166
17983SOL     OW54729   7.318   4.104   0.810  0.2522  0.1315 -0.5965
17983SOL    HW154730   7.224   4.111   0.795 -0.0233  0.4973  1.1077
17983SOL    HW254731   7.328   4.114   0.905  2.0996  1.0546 -0.8513
17984SOL     OW54732   3.309   1.893   7.181  0.1405  0.2087 -0.0081
17984SOL    HW154733   3.224   1.851   7.199  0.2442 -0.0888 -0.2085
17984SOL    HW254734   3.352   1.899   7.266  0.2608 -0.3865 -0.0271
17985SOL     OW54735   3.210   0.022   1.225 -0.5537  0.1225  0.2064
17985SOL    HW154736   3.155  -0.052   1.199  0.7082 -0.6273 -0.4727
17985SOL    HW254737   3.187   0.039   1.316 -1.4439 -0.5783  0.1228
17986SOL     OW54738   0.684   7.584   0.983  0.2784 -0.1851 -0.0068
17986SOL    HW154739   0.692   7.600   1.077 -0.5945  0.4250 -0.0205
17986SOL    HW254740   0.772   7.599   0.948  0.3040  0.9819  0.5185
17987SOL     OW54741   7.811   0.770   2.027  0.5008 -0.4919 -0.0165
17987SOL    HW154742   7.842   0.825   2.099 -0.1037  1.2478 -1.0306
17987SOL    HW254743   7.779   0.691   2.070 -0.5485  0.8026  1.7219
17988SOL     OW54744   7.742   2.950   0.547  0.1656 -0.2737  0.1103
17988SOL    HW154745   7.754   2.866   0.502 -0.9824 -1.5316  2.0137
17988SOL    HW254746   7.830   2.987   0.552  0.5571 -0.8866 -1.6137
17989SOL     OW54747   3.807   3.996   6.306  0.1072  0.0405 -0.4177
17989SOL    HW154748   3.769   3.940   6.238 -2.0650  1.8198 -0.7729
17989SOL    HW254749   3.740   4.063   6.322  2.1302  1.8900  0.7661
17990SOL     OW54750   5.705   6.995   4.461 -0.2125 -0.0150  0.6896
17990SOL    HW154751   5.671   6.951   4.383 -1.8320  2.1211  0.0929
17990SOL    HW254752   5.694   6.931   4.531  0.2690 -1.5865 -0.6091
17991SOL     OW54753   8.222   6.238   1.654 -0.1989  0.1258 -0.5585
17991SOL    HW154754   8.151   6.189   1.611 -0.2585 -0.6004  0.3248
17991SOL    HW254755   8.240   6.311   1.595 -2.0148  0.6161 -0.5939
17992SOL     OW54756   0.917   2.949   6.515 -0.1723  0.4901 -0.0645
17992SOL    HW154757   0.955   2.965   6.601 -0.9147 -0.3075  0.4336
17992SOL    HW254758   0.972   2.881   6.476 -1.2296 -0.8858  0.7811
17993SOL     OW54759   7.966   7.952   4.120 -0.3107 -0.5474 -0.0783
17993SOL    HW154760   7.900   7.933   4.186  0.6935 -1.6056  0.6608
17993SOL    HW254761   7.996   7.867   4.090  2.8721 -0.2813  1.8542
17994SOL     OW54762   2.361   6.990   5.193  0.4249  0.1850 -0.0387
17994SOL    HW154763   2.338   7.073   5.234  2.2123 -0.5082  2.6742
17994SOL    HW254764   2.446   7.007   5.151  0.2031  0.0091 -0.5778
17995SOL     OW54765   3.295   4.008   2.531  0.2430  0.1768 -0.4628
17995SOL    HW154766   3.211   4.045   2.559  0.2433  0.1614 -0.4426
17995SOL    HW254767   3.304   4.039   2.441 -0.7083 -1.3975 -1.1547
17996SOL     OW54768   2.483   2.860   2.669  0.2236  0.1703 -0.2144
17996SOL    HW154769   2.527   2.815   2.741 -1.7087 -1.5310  0.0056
17996SOL    HW254770   2.465   2.790   2.606 -0.4390  1.1698 -1.1603
17997SOL     OW54771   1.882   6.705   3.431 -0.5878 -0.0656  0.2106
17997SOL    HW154772   1.815   6.744   3.375 -0.1796  2.0400  1.0894
17997SOL    HW254773   1.964   6.720   3.383 -0.3057  1.1952  1.0484
17998SOL     OW54774   2.917   1.298   2.071 -0.4655  0.3106  0.3328
17998SOL    HW154775   2.859   1.242   2.020  0.9060 -0.2735 -0.6571
17998SOL    HW254776   2.867   1.378   2.086 -1.4169 -0.0610 -0.7238
17999SOL     OW54777   4.543   4.869   2.791 -0.3797  0.0729  0.0955
17999SOL    HW154778   4.519   4.786   2.749 -0.3537 -0.2978  0.7982
17999SOL    HW254779   4.599   4.843   2.864  0.2340  0.7644 -0.1189
18000SOL     OW54780   2.901   2.132   1.824  0.3830 -0.1496 -0.5744
18000SOL    HW154781   2.950   2.166   1.749 -1.8477 -1.5373 -2.8155
18000SOL    HW254782   2.834   2.199   1.840 -0.8834 -1.0969 -1.7175
18001SOL     OW54783   2.423   4.929   2.898  0.2834  0.1318 -0.2640
18001SOL    HW154784   2.427   4.977   2.815 -2.1950  0.0690 -0.4911
18001SOL    HW254785   2.424   4.997   2.965 -0.9281  0.4045 -0.4988
18002SOL     OW54786   1.739   0.797   0.840  0.0403  0.1348  0.0604
18002SOL    HW154787   1.684   0.868   0.873  2.2867  0.8877  2.4623
18002SOL    HW254788   1.809   0.842   0.793  0.1054 -0.6704 -0.6352
18003SOL     OW54789   1.390   5.496   2.384  0.1831  0.4172 -0.0257
18003SOL    HW154790   1.363   5.582   2.350  2.8403  1.2732 -0.1594
18003SOL    HW254791   1.445   5.516   2.459 -1.6234 -1.3411  1.8781
18004SOL     OW54792   6.923   3.570   3.913 -0.2321 -0.4665  0.1948
18004SOL    HW154793   6.996   3.509   3.922 -0.1773 -0.1972  1.9723
18004SOL    HW254794   6.845   3.514   3.909  0.0310 -0.7510 -1.6559
18005SOL     OW54795   5.880   1.633   0.263 -0.0154  0.0488  0.1230
18005SOL    HW154796   5.835   1.662   0.184  0.9509  0.0109 -0.4665
18005SOL    HW254797   5.973   1.634   0.239  0.4011  1.2264  1.6403
18006SOL     OW54798   0.236   1.814   0.188 -0.6693 -0.2065  0.2557
18006SOL    HW154799   0.201   1.859   0.110 -0.6132 -0.3528  0.1453
18006SOL    HW254800   0.284   1.739   0.152 -1.4581 -0.8291  0.4814
18007SOL     OW54801   2.601   4.039   4.017 -0.6002 -0.0391  0.2283
18007SOL    HW154802   2.510   4.007   4.008 -0.0058 -1.6113 -0.6823
18007SOL    HW254803   2.654   3.960   4.012  0.9105  0.9877 -0.6095
18008SOL     OW54804   3.809   5.699   7.678 -0.2055 -0.9692  0.2013
18008SOL    HW154805   3.882   5.690   7.739 -0.8307  1.3097  1.4103
18008SOL    HW254806   3.734   5.720   7.733 -1.2142 -0.7195 -1.2115
18009SOL     OW54807   2.673   4.248   2.771 -0.2400 -0.5786 -0.3499
18009SOL    HW154808   2.591   4.217   2.732  0.6545 -1.2249 -1.7871
18009SOL    HW254809   2.720   4.289   2.699  0.6913 -0.1630  0.4730
18010SOL     OW54810   0.460   4.472   4.816 -0.5329 -0.6304  0.1465
18010SOL    HW154811   0.440   4.452   4.907  0.6114 -0.5565  0.4282
18010SOL    HW254812   0.496   4.391   4.781 -0.5423 -0.5261 -0.1073
18011SOL     OW54813   2.508   4.667   6.968 -0.9564 -0.4293  0.2114
18011SOL    HW154814   2.435   4.607   6.954 -0.4801 -0.7846 -0.8895
18011SOL    HW254815   2.585   4.618   6.937 -0.3025  0.0690  1.0068
18012SOL     OW54816   4.245   1.245   5.669  0.2010 -0.2943  0.1731
18012SOL    HW154817   4.319   1.298   5.697  0.6591 -1.2220  0.7516
18012SOL    HW254818   4.178   1.309   5.644  0.4667  0.5650  1.5557
18013SOL     OW54819   6.552   2.060   7.847 -0.6906  0.3913  1.2468
18013SOL    HW154820   6.626   2.097   7.894  0.7396 -0.6130 -0.1186
18013SOL    HW254821   6.566   2.086   7.756  0.1362 -2.9420  0.2923
18014SOL     OW54822   3.399   3.378   3.559 -0.2702  0.3553 -0.5719
18014SOL    HW154823   3.379   3.285   3.550  0.1246  0.4130 -2.5408
18014SOL    HW254824   3.469   3.381   3.625 -1.7513 -0.4976  1.1179
18015SOL     OW54825   5.658   1.342   7.502  0.4727  0.5467  0.2992
18015SOL    HW154826   5.649   1.436   7.517 -1.7879  0.7411 -1.7467
18015SOL    HW254827   5.574   1.305   7.526  0.4955 -0.5789 -1.1750
18016SOL     OW54828   3.438   3.190   5.360  0.8189  0.2268  0.0060
18016SOL    HW154829   3.397   3.249   5.297 -0.3112  0.6953  1.1398
18016SOL    HW254830   3.529   3.217   5.362  1.1914 -0.6067 -2.3133
18017SOL     OW54831   4.099   5.055   0.453 -0.1498  0.0041  0.4707
18017SOL    HW154832   4.128   4.994   0.384 -1.4056  0.0875 -0.1606
18017SOL    HW254833   4.170   5.119   0.459  0.2868 -0.3904 -0.2724
18018SOL     OW54834   3.174   2.336   0.203 -0.1817 -0.1566  0.7130
18018SOL    HW154835   3.129   2.380   0.131 -0.8494 -1.6185  0.1909
18018SOL    HW254836   3.262   2.318   0.169 -0.9344 -2.1315 -0.3426
18019SOL     OW54837   0.313   0.986   6.019  0.4233 -0.7350  0.0312
18019SOL    HW154838   0.358   0.904   6.000  2.6152  0.1238  1.0979
18019SOL    HW254839   0.279   0.976   6.108 -0.9470 -1.1164 -0.5093
18020SOL     OW54840   7.617   0.802   0.090  0.4054  0.1026 -0.0010
18020SOL    HW154841   7.679   0.869   0.059  0.3337  0.1854  0.0332
18020SOL    HW254842   7.534   0.825   0.048  0.6391 -0.6295 -0.8948
18021SOL     OW54843   4.781   0.078   3.416 -0.3225  0.0752  0.1267
18021SOL    HW154844   4.818   0.156   3.456  0.2703 -0.5948  0.9217
18021SOL    HW254845   4.789   0.010   3.483  0.1583 -0.9360 -0.9093
18022SOL     OW54846   6.907   7.219   3.803  0.1727  0.2094 -0.3654
18022SOL    HW154847   6.955   7.162   3.862 -1.1833 -1.0939 -0.4634
18022SOL    HW254848   6.966   7.232   3.729  0.4070 -1.3578 -0.4871
18023SOL     OW54849   6.633   4.303   7.837  0.3658 -0.2545 -0.2603
18023SOL    HW154850   6.637   4.284   7.930  0.0399 -3.5599 -0.8197
18023SOL    HW254851   6.548   4.345   7.824  0.1300 -0.3860  0.8232
18024SOL     OW54852   4.686   5.223   3.668 -0.1061 -0.0496 -0.2993
18024SOL    HW154853   4.742   5.235   3.745 -0.5452 -0.4475  0.0830
18024SOL    HW254854   4.603   5.263   3.692 -0.4230 -0.6654 -0.3566
18025SOL     OW54855   3.638   2.641   1.337  0.6628 -0.3634 -0.1898
18025SOL    HW154856   3.705   2.694   1.380 -1.8746  3.3065 -0.2718
18025SOL    HW254857   3.581   2.612   1.409 -1.1079  2.0145 -0.5288
18026SOL     OW54858   5.513   7.988   3.723  0.1386 -0.2031 -0.4009
18026SOL    HW154859   5.496   8.039   3.644  0.4704  0.8178  0.1634
18026SOL    HW254860   5.526   7.899   3.692 -0.4493  0.0494 -1.4195
18027SOL     OW54861   7.289   5.449   2.631  0.0708  0.0265 -0.1635
18027SOL    HW154862   7.383   5.434   2.624  0.0369 -0.7286  0.8234
18027SOL    HW254863   7.268   5.430   2.722 -0.9533  0.7054 -0.2330
18028SOL     OW54864   1.512   6.761   7.249 -0.5882  0.2263  0.0930
18028SOL    HW154865   1.525   6.780   7.156  2.4493  0.5456  0.4610
18028SOL    HW254866   1.495   6.846   7.289 -0.7827  0.2466 -0.0352
18029SOL     OW54867   6.879   1.824   0.686 -0.2821 -0.2933 -0.3860
18029SOL    HW154868   6.849   1.901   0.637  1.7464  0.3750 -0.6856
18029SOL    HW254869   6.851   1.749   0.634 -0.9479  0.2935 -0.8839
18030SOL     OW54870   6.398   7.094   6.589  0.8425  0.1073  0.5346
18030SOL    HW154871   6.392   7.099   6.494  2.7405 -1.1513  0.3049
18030SOL    HW254872   6.481   7.138   6.610  1.3823 -1.2616  1.4069
18031SOL     OW54873   1.798   7.361   6.498 -0.0327  0.4974  0.0306
18031SOL    HW154874   1.802   7.288   6.559  1.1587  1.6519  1.4030
18031SOL    HW254875   1.854   7.336   6.426  0.5181  0.1276  0.5831
18032SOL     OW54876   5.251   6.316   8.253 -0.1575  0.3109 -0.1193
18032SOL    HW154877   5.284   6.380   8.190 -0.5290  1.1209  0.4827
18032SOL    HW254878   5.314   6.244   8.250  0.2703  0.7056 -0.8147
18033SOL     OW54879   3.776   4.387   3.310  0.6966 -0.0255 -0.0216
18033SOL    HW154880   3.792   4.393   3.216  1.0295  0.7096  0.0805
18033SOL    HW254881   3.736   4.471   3.334 -1.6705 -1.0898  0.0709
18034SOL     OW54882   7.713   1.128   6.227  0.4443  0.0038  0.1220
18034SOL    HW154883   7.802   1.147   6.196  0.8707  0.7966  1.7084
18034SOL    HW254884   7.710   1.033   6.235  0.2127 -0.2833 -2.5019
18035SOL     OW54885   0.796   2.386   1.552  0.0797  0.2081 -0.4920
18035SOL    HW154886   0.736   2.442   1.502  0.9713  1.5744 -0.0958
18035SOL    HW254887   0.830   2.444   1.620  1.7552 -0.5626 -0.6357
18036SOL     OW54888   6.662   6.556   3.074  0.2835  0.0245  0.5955
18036SOL    HW154889   6.594   6.588   3.134 -0.3518 -0.6822  0.2595
18036SOL    HW254890   6.633   6.469   3.049  0.3932  0.4115 -0.9683
18037SOL     OW54891   6.459   3.653   8.300  0.4186  0.2377 -0.0996
18037SOL    HW154892   6.364   3.644   8.307  0.4292  0.7120  0.8835
18037SOL    HW254893   6.493   3.566   8.318  0.1431 -0.1524 -1.3929
18038SOL     OW54894   5.368   0.689   5.784 -0.3623 -0.3213  0.0447
18038SOL    HW154895   5.357   0.633   5.861 -0.8029  0.4532  0.5539
18038SOL    HW254896   5.395   0.774   5.820  0.8659 -0.3452 -0.7559
18039SOL     OW54897   4.317   2.112   1.947 -0.2242  0.1987  0.2516
18039SOL    HW154898   4.358   2.043   1.895  1.8700  0.2993  1.6652
18039SOL    HW254899   4.228   2.117   1.913  0.4107 -1.2037 -1.8351
18040SOL     OW54900   0.701   6.928   0.558  0.2898 -0.3695 -0.4935
18040SOL    HW154901   0.621   6.979   0.550  0.7888  0.3912 -0.7172
18040SOL    HW254902   0.681   6.844   0.516  0.2645  0.5665 -2.4502
18041SOL     OW54903   5.614   8.040   3.256  0.3697 -0.0864  0.1861
18041SOL    HW154904   5.642   8.115   3.203  1.3927 -0.4975  0.1363
18041SOL    HW254905   5.600   8.077   3.344 -2.1471  0.7664 -0.5025
18042SOL     OW54906   7.887   4.147   1.969 -0.2985  0.1091 -0.3545
18042SOL    HW154907   7.830   4.180   1.900  0.2741  0.9655 -0.4510
18042SOL    HW254908   7.945   4.085   1.925  1.4783  2.2153 -1.1719
18043SOL     OW54909   7.974   7.188   7.396  0.5488  0.1652 -0.1401
18043SOL    HW154910   7.882   7.198   7.373  0.4768  0.2336  0.1620
18043SOL    HW254911   8.016   7.152   7.318 -0.0806 -1.6796  0.3210
18044SOL     OW54912   4.064   7.917   6.181  0.5105  0.4922 -0.0711
18044SOL    HW154913   3.989   7.897   6.125  0.3001  0.9982  0.0296
18044SOL    HW254914   4.129   7.850   6.158  0.1716  0.2811 -0.4292
18045SOL     OW54915   2.532   3.295   0.864  0.1521 -0.6202  0.2577
18045SOL    HW154916   2.545   3.348   0.785 -0.7288  0.3073  0.7209
18045SOL    HW254917   2.621   3.273   0.892  0.5146  0.0599 -0.3090
18046SOL     OW54918   2.269   1.294   1.011  0.6838 -0.0271  0.0246
18046SOL    HW154919   2.276   1.200   0.996  2.1017  0.1442 -0.5194
18046SOL    HW254920   2.270   1.303   1.107  1.3133 -0.5120  0.0665
18047SOL     OW54921   7.077   7.612   0.101 -0.4910 -0.4633  0.1129
18047SOL    HW154922   7.073   7.541   0.165 -0.5205  0.2404  0.9190
18047SOL    HW254923   7.111   7.686   0.151 -0.5609  0.1180 -0.6875
18048SOL     OW54924   6.775   6.162   6.481 -0.3807 -0.4522 -0.0853
18048SOL    HW154925   6.706   6.116   6.527 -1.1895  0.9479  0.1631
18048SOL    HW254926   6.762   6.140   6.389 -0.5777 -0.9355  0.0578
18049SOL     OW54927   1.198   6.331   0.110 -0.5022 -0.1253  0.1911
18049SOL    HW154928   1.290   6.318   0.135  0.0630  1.4833 -0.8667
18049SOL    HW254929   1.200   6.334   0.014 -1.4733  1.0938  0.1909
18050SOL     OW54930   5.066   1.937   3.498 -0.6165  0.2641  0.1076
18050SOL    HW154931   5.159   1.917   3.506 -0.1542  1.1365 -2.2845
18050SOL    HW254932   5.058   2.028   3.524 -0.3903  0.8194 -1.6277
18051SOL     OW54933   7.557   5.818   4.231  0.1140 -0.1623  0.0898
18051SOL    HW154934   7.469   5.834   4.199 -0.2685  1.2778  1.7120
18051SOL    HW254935   7.613   5.829   4.154 -0.9126  1.2399 -0.4949
18052SOL     OW54936   6.116   0.791   0.580  0.1067  0.2264  0.5517
18052SOL    HW154937   6.067   0.845   0.642 -0.1798 -0.3494  0.8305
18052SOL    HW254938   6.206   0.824   0.587  0.2095 -0.2502  1.7603
18053SOL     OW54939   1.273   4.240   8.114 -0.5073  0.2780 -0.6752
18053SOL    HW154940   1.363   4.225   8.087 -0.5584 -0.0687 -0.6581
18053SOL    HW254941   1.264   4.193   8.197 -0.3423  1.3659 -0.0250
18054SOL     OW54942   4.379   7.977   6.720 -0.2575  0.7953  0.1967
18054SOL    HW154943   4.413   7.974   6.809 -2.9574 -0.3075  1.2832
18054SOL    HW254944   4.310   8.044   6.722 -2.9717 -1.7798  0.0709
18055SOL     OW54945   1.357   7.644   3.401  0.1139 -0.2533  0.2475
18055SOL    HW154946   1.392   7.565   3.359 -2.1697 -0.9072 -0.5727
18055SOL    HW254947   1.307   7.612   3.475  0.6302  0.5978  0.9903
18056SOL     OW54948   7.569   7.631   6.097 -0.0347  0.0667  0.2926
18056SOL    HW154949   7.532   7.545   6.078 -0.0089 -0.2779  1.6616
18056SOL    HW254950   7.630   7.616   6.170 -2.8834  1.7413  3.3317
18057SOL     OW54951   5.750   8.230   7.795 -0.1799  0.4400 -0.1254
18057SOL    HW154952   5.693   8.307   7.782 -0.0715  0.4874 -0.3349
18057SOL    HW254953   5.820   8.261   7.852 -0.6230  0.2513  0.5266
18058SOL     OW54954   3.726   5.776   2.883 -0.0887 -0.5716  0.6979
18058SOL    HW154955   3.787   5.784   2.956 -0.0941  2.6060  0.5287
18058SOL    HW254956   3.771   5.720   2.820  1.2166 -0.9669  1.9190
18059SOL     OW54957   2.904   2.834   2.208  0.0985  0.9264 -0.1139
18059SOL    HW154958   2.909   2.850   2.303 -0.1699 -0.8547  0.2201
18059SOL    HW254959   2.824   2.881   2.181  1.0814  2.9022  0.1806
18060SOL     OW54960   2.142   2.515   6.882  0.3814  0.5075 -0.0118
18060SOL    HW154961   2.121   2.446   6.818  1.5503  1.6676 -1.7473
18060SOL    HW254962   2.058   2.545   6.914 -0.1605 -2.2051  1.3851
18061SOL     OW54963   0.851   0.900   2.475 -0.7225  0.1029  0.2112
18061SOL    HW154964   0.932   0.920   2.522 -0.6004 -0.8405  0.4334
18061SOL    HW254965   0.789   0.967   2.505 -0.0544  0.7915  0.0898
18062SOL     OW54966   6.653   6.660   1.818 -0.4258  0.0661  0.0024
18062SOL    HW154967   6.592   6.702   1.879 -1.6596  0.9015 -1.7173
18062SOL    HW254968   6.722   6.725   1.804  1.1414 -0.9983  2.1936
18063SOL     OW54969   4.283   5.510   6.444  0.4031  0.3739 -0.1181
18063SOL    HW154970   4.232   5.589   6.455  0.9698  0.7761 -0.3335
18063SOL    HW254971   4.287   5.496   6.350  2.3195  1.4541 -0.2485
18064SOL     OW54972   0.307   2.743   1.915  0.3473 -0.5607 -0.6403
18064SOL    HW154973   0.345   2.710   1.833  3.3791  1.0884 -0.0544
18064SOL    HW254974   0.318   2.671   1.977  2.3175 -0.2859 -0.6026
18065SOL     OW54975   8.153   6.343   3.349  0.1254  0.4471 -0.1342
18065SOL    HW154976   8.085   6.395   3.393  0.2008  0.1614  0.3287
18065SOL    HW254977   8.208   6.408   3.305  0.4973  0.8014  0.8240
18066SOL     OW54978   6.717   1.616   6.104 -0.3617  0.0983 -0.0518
18066SOL    HW154979   6.811   1.615   6.121  0.0547 -1.1802 -2.0691
18066SOL    HW254980   6.703   1.691   6.047 -0.2940 -0.5169 -0.9023
18067SOL     OW54981   6.338   0.347   7.319  0.0366  0.1506 -0.0144
18067SOL    HW154982   6.306   0.414   7.381  1.0451 -0.5387  1.3072
18067SOL    HW254983   6.345   0.393   7.236  1.0803  1.8396  0.9353
18068SOL     OW54984   0.767   1.299   4.739 -0.1667 -0.3547 -0.1170
18068SOL    HW154985   0.716   1.342   4.808 -1.4994  0.0717 -1.3240
18068SOL    HW254986   0.725   1.325   4.657  0.5961 -1.8652 -1.0468
18069SOL     OW54987   2.173   7.237   7.835 -0.3205  0.3192 -0.2454
18069SOL    HW154988   2.197   7.309   7.776  0.4689 -0.1137 -0.4665
18069SOL    HW254989   2.196   7.268   7.922  0.9519 -0.0237 -0.4359
18070SOL     OW54990   5.789   6.950   8.279 -0.2265 -0.0440  0.3853
18070SOL    HW154991   5.770   6.921   8.368 -1.7544  0.3159  0.2110
18070SOL    HW254992   5.800   7.045   8.287 -0.1132 -0.0436  0.2291
18071SOL     OW54993   6.456   2.150   2.120  0.5065 -0.5271 -0.0855
18071SOL    HW154994   6.477   2.085   2.187  1.0987 -0.3070 -0.0518
18071SOL    HW254995   6.537   2.159   2.070  0.4119  0.1531 -0.1175
18072SOL     OW54996   0.606   1.863   6.350 -0.1472  0.0161  0.0200
18072SOL    HW154997   0.588   1.775   6.383 -2.4348  0.4642  0.1244
18072SOL    HW254998   0.589   1.858   6.256  1.6655 -0.0996 -0.3298
18073SOL     OW54999   7.551   2.099   2.555  0.3364 -0.6775  0.2711
18073SOL    HW155000   7.592   2.070   2.474  1.3351  0.4097  0.3612
18073SOL    HW255001   7.457   2.086   2.540  0.6145 -2.1037 -0.3817
18074SOL     OW55002   5.547   4.497   3.144 -0.0452 -0.1360  0.3357
18074SOL    HW155003   5.491   4.556   3.093  1.0762 -0.6346 -1.5805
18074SOL    HW255004   5.611   4.555   3.186  0.0231  0.1687 -0.1782
18075SOL     OW55005   7.851   7.262   1.977  0.1056  0.5949 -0.6545
18075SOL    HW155006   7.831   7.271   1.883 -1.9659  0.7633 -0.2509
18075SOL    HW255007   7.797   7.330   2.019  2.6953  2.0539  0.5327
18076SOL     OW55008   1.903   6.466   0.840  0.1636  0.2579 -0.0563
18076SOL    HW155009   1.849   6.387   0.841 -1.0395  1.0397  1.2918
18076SOL    HW255010   1.993   6.434   0.834 -0.3440 -1.1657 -0.4662
18077SOL     OW55011   1.433   3.210   5.218 -0.1360  0.6523  0.1368
18077SOL    HW155012   1.455   3.186   5.308  0.6783 -0.1207 -0.2524
18077SOL    HW255013   1.340   3.192   5.210  0.4631 -2.9820 -0.2637
18078SOL     OW55014   6.141   4.249   3.875 -0.4689 -0.3709  0.4475
18078SOL    HW155015   6.057   4.250   3.921  0.9512  2.2720  3.4224
18078SOL    HW255016   6.188   4.175   3.914 -0.1773  0.3470  1.5068
18079SOL     OW55017   3.515   4.562   4.832 -0.0137 -0.4218  0.0765
18079SOL    HW155018   3.555   4.632   4.779  0.6523 -1.9794 -1.5761
18079SOL    HW255019   3.453   4.608   4.888  1.5828  1.7032  0.2632
18080SOL     OW55020   4.731   6.054   3.083 -0.2377  0.2547 -0.3131
18080SOL    HW155021   4.824   6.071   3.067 -0.1239 -1.3526 -1.5609
18080SOL    HW255022   4.724   6.043   3.178  1.1400 -1.0877 -0.3377
18081SOL     OW55023   6.409   3.022   3.301  0.0213 -0.5189 -0.3365
18081SOL    HW155024   6.332   2.976   3.336 -0.3002  0.1971 -0.0790
18081SOL    HW255025   6.470   3.024   3.374  0.3200 -1.1483 -0.5619
18082SOL     OW55026   2.072   7.279   1.994 -0.0099  0.1214  0.0618
18082SOL    HW155027   1.979   7.289   2.012 -0.3286 -0.7639 -0.9514
18082SOL    HW255028   2.114   7.353   2.038 -1.2559  0.8629  0.0401
18083SOL     OW55029   2.200   4.313   2.794  0.0980 -0.2194 -0.2173
18083SOL    HW155030   2.218   4.406   2.808 -0.6793  0.2475 -1.9497
18083SOL    HW255031   2.263   4.286   2.727 -0.2835 -0.6818 -0.3974
18084SOL     OW55032   8.021   0.946   5.249 -0.0883  0.2665  0.4766
18084SOL    HW155033   8.069   0.980   5.174  0.0143  0.9649  0.8567
18084SOL    HW255034   7.930   0.940   5.218  0.2915 -1.6422 -0.4464
18085SOL     OW55035   3.714   5.238   5.839 -0.4305  0.4545  0.3741
18085SOL    HW155036   3.629   5.202   5.816 -0.4694 -0.2673  1.5315
18085SOL    HW255037   3.746   5.181   5.909  1.3587  0.2267 -0.5589
18086SOL     OW55038   7.012   1.791   3.715  0.3479  0.4540 -0.3270
18086SOL    HW155039   7.005   1.810   3.808 -1.8637 -1.3435 -0.0408
18086SOL    HW255040   6.929   1.820   3.677 -0.1053 -1.6609 -1.1188
18087SOL     OW55041   2.585   0.843   2.674  0.1595  0.4087 -0.7179
18087SOL    HW155042   2.556   0.829   2.585 -0.8751 -3.4695  0.0648
18087SOL    HW255043   2.508   0.827   2.728  1.2472  0.5918  0.9774
18088SOL     OW55044   0.097   7.717   1.963  0.3795  0.1215  0.5045
18088SOL    HW155045   0.059   7.647   2.016  1.7414  0.5851  2.2207
18088SOL    HW255046   0.092   7.795   2.019  0.0034  1.1231 -0.8773
18089SOL     OW55047   1.364   0.713   7.836 -0.6038  0.2533 -0.4376
18089SOL    HW155048   1.342   0.760   7.916  0.5416  0.4085 -0.1906
18089SOL    HW255049   1.283   0.670   7.809 -0.8760 -0.2044  1.0690
18090SOL     OW55050   7.568   5.075   4.517 -0.4617 -0.1249  0.4324
18090SOL    HW155051   7.656   5.043   4.538 -0.7244 -2.4325 -1.5830
18090SOL    HW255052   7.583   5.149   4.457  0.1251 -0.3828  0.2546
18091SOL     OW55053   6.257   4.997   4.372  0.2128 -0.0997 -0.1259
18091SOL    HW155054   6.176   4.967   4.411 -1.5581  2.7474 -1.2472
18091SOL    HW255055   6.276   4.933   4.304 -0.3835 -1.4562  0.9362
18092SOL     OW55056   5.164   7.990   2.487  0.3321 -0.7855  0.6459
18092SOL    HW155057   5.164   7.920   2.552 -0.6165  0.1255  1.6491
18092SOL    HW255058   5.104   8.056   2.521 -0.3854 -0.3712 -1.2696
18093SOL     OW55059   0.715   8.036   2.398 -0.6861  0.1767  0.1886
18093SOL    HW155060   0.741   7.948   2.424  0.6599  0.5796  0.2637
18093SOL    HW255061   0.772   8.057   2.324 -2.0245  0.4246 -0.8177
18094SOL     OW55062   5.689   8.282   1.088  0.1987  0.8066  0.2949
18094SOL    HW155063   5.699   8.190   1.113 -3.3869  0.3805  0.6793
18094SOL    HW255064   5.704   8.283   0.993  1.0199  0.0129  0.4037
18095SOL     OW55065   3.707   4.450   3.036  0.0970 -0.0570 -0.0644
18095SOL    HW155066   3.741   4.521   2.981  1.5595 -1.6336 -1.2953
18095SOL    HW255067   3.644   4.404   2.980  0.3194 -0.6633  0.1789
18096SOL     OW55068   4.245   3.998   2.878 -0.0366 -0.0791  0.0926
18096SOL    HW155069   4.224   3.905   2.879  2.6964 -0.8281  2.8699
18096SOL    HW255070   4.227   4.028   2.968 -0.4874  2.0117 -0.6280
18097SOL     OW55071   5.400   4.721   4.223 -0.0367  0.3199  0.1298
18097SOL    HW155072   5.479   4.753   4.179  0.4695 -0.4379  0.4561
18097SOL    HW255073   5.329   4.773   4.186  0.5308  0.5522 -0.6681
18098SOL     OW55074   6.633   6.042   4.796  0.2602  0.4169  0.3109
18098SOL    HW155075   6.652   6.109   4.861  0.5303  1.3637 -0.7159
18098SOL    HW255076   6.713   5.988   4.793  0.0131 -0.0120  1.1895
18099SOL     OW55077   3.820   2.175   4.914  0.6224  0.5898 -0.5834
18099SOL    HW155078   3.873   2.098   4.895  0.8963  0.1999  1.4714
18099SOL    HW255079   3.742   2.165   4.860  0.6064 -1.1863 -0.2814
18100SOL     OW55080   4.831   2.126   3.243 -0.0381  0.6438 -0.1972
18100SOL    HW155081   4.737   2.143   3.253  0.1219  0.5911  1.9100
18100SOL    HW255082   4.843   2.111   3.150 -2.6548 -2.3290 -0.2483
18101SOL     OW55083   6.445   0.522   3.411  0.2283  0.3720  0.3635
18101SOL    HW155084   6.376   0.589   3.404 -0.9794 -0.8291  0.3640
18101SOL    HW255085   6.479   0.514   3.322 -0.9736 -0.3773 -0.0431
18102SOL     OW55086   5.717   4.690   3.225 -0.0391 -0.3398  0.3509
18102SOL    HW155087   5.674   4.775   3.227  1.4359  0.4500  0.2284
18102SOL    HW255088   5.811   4.711   3.227  0.3948 -1.8951 -1.0613
18103SOL     OW55089   5.097   4.409   0.816  0.5704  0.9416  0.0189
18103SOL    HW155090   5.005   4.423   0.797 -0.4747 -2.0270  2.1536
18103SOL    HW255091   5.104   4.419   0.911  2.7223  2.1676 -0.2013
18104SOL     OW55092   4.117   5.487   7.310  0.2292  0.0572 -0.5018
18104SOL    HW155093   4.087   5.440   7.232  0.1450 -1.8740  0.6342
18104SOL    HW255094   4.210   5.467   7.316 -0.2207 -1.9388  1.2017
18105SOL     OW55095   4.357   2.629   1.590 -0.5331  0.1860  0.1434
18105SOL    HW155096   4.311   2.670   1.663 -1.4058 -1.2891  0.4691
18105SOL    HW255097   4.450   2.637   1.613 -0.8003 -0.4533  1.5395
18106SOL     OW55098   5.563   7.749   1.781 -0.3650 -0.3509 -0.1909
18106SOL    HW155099   5.512   7.677   1.743  0.8957 -1.6531  0.4956
18106SOL    HW255100   5.601   7.793   1.705 -0.6031 -0.8287 -0.6029
18107SOL     OW55101   2.978   3.124   4.469  0.0004 -0.0314 -0.7435
18107SOL    HW155102   2.936   3.113   4.554  2.7739 -1.5757  0.5886
18107SOL    HW255103   2.942   3.205   4.435 -1.5553  0.4195  1.6848
18108SOL     OW55104   3.314   7.369   5.987  0.4734  0.4983  0.4776
18108SOL    HW155105   3.409   7.358   5.988  0.5752  1.2164  0.1124
18108SOL    HW255106   3.300   7.447   5.932 -0.3187  0.4459  0.5906
18109SOL     OW55107   3.652   3.803   7.123 -0.5316  0.0761 -0.1085
18109SOL    HW155108   3.694   3.802   7.209 -0.6686 -0.4659 -0.0438
18109SOL    HW255109   3.568   3.758   7.137 -1.7276  2.2343  0.0473
18110SOL     OW55110   6.922   3.498   6.432  0.4034 -0.1515  0.0166
18110SOL    HW155111   6.890   3.574   6.481 -2.5926 -0.0846 -1.7638
18110SOL    HW255112   6.883   3.423   6.476  1.4290 -0.4937  0.3667
18111SOL     OW55113   0.962   3.420   7.459  0.1044 -0.0381  0.1603
18111SOL    HW155114   0.913   3.492   7.499  0.9696  0.2254  0.7679
18111SOL    HW255115   0.910   3.341   7.479 -0.8745  0.3972 -0.5542
18112SOL     OW55116   0.883   6.494   1.221  0.4708 -0.6257  0.1404
18112SOL    HW155117   0.940   6.552   1.171 -0.7195  0.2138 -0.2791
18112SOL    HW255118   0.881   6.413   1.171 -1.2835  0.4375 -1.6535
18113SOL     OW55119   2.364   0.135   2.549  0.8045  0.4468  0.1966
18113SOL    HW155120   2.323   0.176   2.625 -0.5387  0.0630 -0.2883
18113SOL    HW255121   2.431   0.077   2.586  0.5341  0.6607  1.0447
18114SOL     OW55122   5.564   3.329   3.113  0.0354  0.2161 -0.2191
18114SOL    HW155123   5.629   3.367   3.053 -0.5906 -0.3913 -1.3088
18114SOL    HW255124   5.520   3.404   3.152  0.4726  0.6207 -0.5000
18115SOL     OW55125   5.387   3.078   3.809  0.3570  0.4714  0.1932
18115SOL    HW155126   5.456   3.087   3.875  0.2951 -1.3280  0.5464
18115SOL    HW255127   5.402   2.992   3.770 -0.8969  0.6215 -0.6772
18116SOL     OW55128   4.378   3.710   2.406  0.3076  0.4749 -0.0409
18116SOL    HW155129   4.345   3.694   2.495  0.7130  0.6271  0.1438
18116SOL    HW255130   4.435   3.786   2.416 -0.1300  0.8784 -0.5527
18117SOL     OW55131   2.868   5.476   5.029 -0.1784 -0.2783  0.2004
18117SOL    HW155132   2.867   5.388   4.991 -1.1730 -0.6895  1.1269
18117SOL    HW255133   2.844   5.463   5.121  1.8501  0.7285  0.9290
18118SOL     OW55134   6.905   1.385   4.741 -0.0677 -0.0062 -0.0271
18118SOL    HW155135   6.986   1.427   4.771 -0.1027  0.4444 -0.5406
18118SOL    HW255136   6.924   1.361   4.650 -0.4487 -0.0553 -0.0922
18119SOL     OW55137   5.971   3.628   5.737  0.0641  0.0528  0.0809
18119SOL    HW155138   6.001   3.605   5.825  1.4520 -2.0952 -0.8770
18119SOL    HW255139   6.023   3.705   5.713 -1.2813  1.5163  1.5710
18120SOL     OW55140   3.180   6.723   2.105 -0.5222  0.4310  0.7201
18120SOL    HW155141   3.144   6.808   2.081  0.8085  0.9771  0.5634
18120SOL    HW255142   3.152   6.710   2.196 -1.5422  0.5786  0.4369
18121SOL     OW55143   3.123   2.223   4.729  0.4515  0.5326  0.2639
18121SOL    HW155144   3.148   2.133   4.710  2.5732  1.5350 -2.2979
18121SOL    HW255145   3.040   2.235   4.683  0.6007  0.1274 -0.1199
18122SOL     OW55146   5.800   3.775   4.761 -0.1505  0.0034  0.1282
18122SOL    HW155147   5.752   3.710   4.710  2.2006 -1.0231 -0.9578
18122SOL    HW255148   5.876   3.728   4.795  2.5666  2.3562 -2.0368
18123SOL     OW55149   5.312   1.573   0.232 -0.2097  0.4025 -0.5028
18123SOL    HW155150   5.366   1.650   0.249 -0.3055  0.4340 -0.3284
18123SOL    HW255151   5.231   1.591   0.280  0.3643 -0.5046  0.8562
18124SOL     OW55152   2.255   1.645   3.261  0.0377  0.0415 -0.5196
18124SOL    HW155153   2.224   1.584   3.194 -0.4973 -1.6446  1.1589
18124SOL    HW255154   2.178   1.699   3.281 -0.5068 -1.0048  0.3221
18125SOL     OW55155   2.866   7.544   7.948 -0.0052 -0.7857 -0.0135
18125SOL    HW155156   2.906   7.488   7.881  0.3332 -0.0071 -0.4764
18125SOL    HW255157   2.797   7.591   7.902  0.6612  0.2492  0.0044
18126SOL     OW55158   7.606   5.087   0.663 -0.0409  0.1870 -0.0789
18126SOL    HW155159   7.676   5.052   0.719  0.3675  2.5263  1.0037
18126SOL    HW255160   7.526   5.073   0.714  0.0885  0.6043  0.2421
18127SOL     OW55161   0.765   7.206   0.494  0.0203 -0.4157 -0.0992
18127SOL    HW155162   0.714   7.132   0.530 -0.3757  0.4974  1.2817
18127SOL    HW255163   0.726   7.283   0.535  0.5295  0.5642 -1.4181
18128SOL     OW55164   5.642   2.140   3.856 -0.0823 -0.6007 -0.3494
18128SOL    HW155165   5.581   2.133   3.782 -1.0120 -2.0991  0.5062
18128SOL    HW255166   5.598   2.095   3.927  1.2581 -0.0965  0.8425
18129SOL     OW55167   8.086   8.112   3.572 -0.1942  0.2226 -0.1311
18129SOL    HW155168   8.115   8.080   3.658  1.0031 -1.0390 -0.9560
18129SOL    HW255169   8.157   8.170   3.544 -0.5399  0.5539 -0.3192
18130SOL     OW55170   0.095   1.437   0.013  0.5071 -0.1061  0.4195
18130SOL    HW155171   0.143   1.364  -0.028  1.1148  0.1914  0.5939
18130SOL    HW255172   0.107   1.510  -0.047 -0.5409 -0.2730 -0.0177
18131SOL     OW55173   4.204   8.192   6.703 -0.0472 -0.1243 -0.4188
18131SOL    HW155174   4.162   8.236   6.629 -0.5655 -0.6432 -0.4439
18131SOL    HW255175   4.173   8.240   6.780  0.3189  0.2793 -0.5217
18132SOL     OW55176   4.517   1.245   4.570  0.0639  0.2597  0.1826
18132SOL    HW155177   4.451   1.207   4.629 -1.1226  2.4151  0.3825
18132SOL    HW255178   4.523   1.183   4.497 -1.9725 -0.2065  0.3347
18133SOL     OW55179   7.411   7.937   4.721 -0.2924 -0.4715  0.1631
18133SOL    HW155180   7.504   7.954   4.710 -0.0846 -1.3440  0.4945
18133SOL    HW255181   7.393   7.960   4.812 -0.0799 -1.6284  0.5181
18134SOL     OW55182   7.799   1.898   1.463 -0.4734  0.2937 -0.8591
18134SOL    HW155183   7.816   1.990   1.443 -0.0800  0.1254 -1.3314
18134SOL    HW255184   7.738   1.900   1.536 -0.1613  0.9316 -0.6093
18135SOL     OW55185   0.536   4.215   4.733 -0.0874  0.2983 -0.2294
18135SOL    HW155186   0.613   4.178   4.689 -0.6938 -0.9540 -0.2757
18135SOL    HW255187   0.463   4.189   4.677 -0.5676  1.3077 -0.0775
18136SOL     OW55188   0.285   7.443   7.510 -0.4235  0.1905  0.8943
18136SOL    HW155189   0.315   7.528   7.541 -1.7024  0.1882  2.2965
18136SOL    HW255190   0.258   7.457   7.420 -2.1880  1.7178  1.6032
18137SOL     OW55191   2.149   1.619   7.340  0.1069  0.6043 -0.1392
18137SOL    HW155192   2.222   1.587   7.287  0.1856  1.6757 -0.7054
18137SOL    HW255193   2.071   1.587   7.295  0.1969  0.3447 -0.1155
18138SOL     OW55194   6.377   2.363   5.101 -0.4955  0.2841  0.0070
18138SOL    HW155195   6.295   2.412   5.101 -0.1374  0.9051  1.1813
18138SOL    HW255196   6.401   2.356   5.193  0.4375 -0.4662 -0.2766
18139SOL     OW55197   3.839   6.758   0.085 -0.0642  0.3970 -0.6493
18139SOL    HW155198   3.763   6.777   0.141  0.4565  0.4090  0.0571
18139SOL    HW255199   3.803   6.705   0.014 -0.4268 -1.1213  0.6169
18140SOL     OW55200   1.085   6.731   0.099  0.1297 -0.5979 -0.3194
18140SOL    HW155201   1.152   6.796   0.078  0.2878 -1.0952 -1.4252
18140SOL    HW255202   1.034   6.722   0.018 -0.1986 -1.4777 -0.0262
18141SOL     OW55203   6.232   3.305   2.480 -0.0027 -0.2825 -0.0470
18141SOL    HW155204   6.199   3.216   2.476 -2.9988  0.5964  1.6686
18141SOL    HW255205   6.320   3.297   2.516  1.2007 -2.6667 -3.0745
18142SOL     OW55206   8.231   5.207   4.530  0.0951  0.3173  0.4839
18142SOL    HW155207   8.220   5.181   4.439  0.6963  2.3051 -0.2043
18142SOL    HW255208   8.227   5.302   4.529  2.0303  0.4997  2.2358
18143SOL     OW55209   1.048   5.847   3.914  0.6051  0.3081  0.0135
18143SOL    HW155210   0.976   5.900   3.881  1.0888  1.7161  1.0875
18143SOL    HW255211   1.016   5.757   3.910  0.2633  0.4630 -3.1798
18144SOL     OW55212   5.659   6.498   2.979 -0.0665  0.1065  0.5664
18144SOL    HW155213   5.672   6.407   3.007 -1.9080 -0.1775  0.6310
18144SOL    HW255214   5.737   6.544   3.009  1.6249 -1.7157 -0.7564
18145SOL     OW55215   3.156   7.662   6.892  0.2549  0.0004  0.5185
18145SOL    HW155216   3.140   7.666   6.798 -0.5064 -0.1774  0.6271
18145SOL    HW255217   3.086   7.605   6.925  0.7602 -0.2796  1.1360
18146SOL     OW55218   0.085   8.199   6.478 -0.0268  0.5473  0.0887
18146SOL    HW155219   0.165   8.198   6.425 -0.0533  2.6892 -0.0532
18146SOL    HW255220   0.099   8.270   6.541 -0.9798 -0.4195  1.4415
18147SOL     OW55221   5.127   3.981   4.554 -0.5607  0.1759 -0.1472
18147SOL    HW155222   5.098   4.059   4.508  0.7368  0.9492  0.2947
18147SOL    HW255223   5.113   4.000   4.647  0.1803  0.0832 -0.0072
18148SOL     OW55224   6.785   2.373   1.567 -0.4268  0.3008 -0.1736
18148SOL    HW155225   6.853   2.313   1.598 -0.5451  1.3139  2.3401
18148SOL    HW255226   6.704   2.341   1.608 -0.6780  1.4700  0.3091
18149SOL     OW55227   0.408   8.233   5.031 -0.2215  0.1707 -0.0059
18149SOL    HW155228   0.394   8.321   5.066  0.4544  0.3209 -0.1022
18149SOL    HW255229   0.354   8.176   5.087  0.7012  0.4258  1.1864
18150SOL     OW55230   5.072   5.702   3.061  0.1627  0.2225  0.2938
18150SOL    HW155231   5.165   5.691   3.041  0.0523 -1.3803  0.5336
18150SOL    HW255232   5.040   5.614   3.077 -1.0976  0.8653  1.5794
18151SOL     OW55233   7.279   0.080   3.800 -0.3166 -0.2108  0.1559
18151SOL    HW155234   7.287  -0.001   3.851 -0.9592  0.4494  1.3428
18151SOL    HW255235   7.289   0.052   3.709 -0.4994 -1.6251  0.5476
18152SOL     OW55236   6.353   3.771   5.104 -0.3920  0.4554  0.3739
18152SOL    HW155237   6.396   3.714   5.167  2.0731  1.5362 -0.1984
18152SOL    HW255238   6.284   3.815   5.154  0.0839 -0.2961  1.7398
18153SOL     OW55239   1.014   5.116   0.814 -0.0569  0.1672  0.1308
18153SOL    HW155240   0.964   5.035   0.826  1.2565 -0.5703  0.7705
18153SOL    HW255241   1.103   5.094   0.840  0.6645  1.4071 -1.1538
18154SOL     OW55242   2.256   0.956   0.813  0.6494  0.3194 -0.0591
18154SOL    HW155243   2.232   0.921   0.899 -0.3848 -0.9333 -0.8318
18154SOL    HW255244   2.216   0.896   0.750  0.3013  1.9246 -1.4424
18155SOL     OW55245   7.908   3.402   6.512  0.1730 -0.1256 -0.2245
18155SOL    HW155246   7.922   3.406   6.607  0.3818 -1.8610 -0.1515
18155SOL    HW255247   7.963   3.472   6.477 -0.7820  1.3036  0.9905
18156SOL     OW55248   6.369   1.202   6.423 -0.3021  0.1457 -0.0951
18156SOL    HW155249   6.458   1.175   6.446  0.4282  3.0336  0.8540
18156SOL    HW255250   6.379   1.289   6.385 -2.7761  1.0503  1.1076
18157SOL     OW55251   6.574   5.971   3.626 -0.0805  0.3000  0.4092
18157SOL    HW155252   6.555   5.946   3.716  0.0761  1.3576  0.7426
18157SOL    HW255253   6.488   5.971   3.583 -0.4455  1.7866  1.0801
18158SOL     OW55254   5.219   7.912   5.989 -0.3905 -0.2513  0.1078
18158SOL    HW155255   5.247   7.981   5.928 -1.2039  0.6346  0.7002
18158SOL    HW255256   5.222   7.954   6.075  1.1883 -1.6113  0.7819
18159SOL     OW55257   6.862   3.168   7.849  0.2084  0.2776 -0.1575
18159SOL    HW155258   6.884   3.085   7.891  1.3825  0.5039 -0.2826
18159SOL    HW255259   6.938   3.188   7.794 -0.7579  0.6160 -1.4247
18160SOL     OW55260   1.444   3.217   4.859 -0.0110  0.1307  0.4545
18160SOL    HW155261   1.540   3.223   4.863 -0.0702  0.7720  1.0227
18160SOL    HW255262   1.418   3.194   4.949 -0.5322  2.1533  0.8708
18161SOL     OW55263   1.091   2.711   8.071  0.7532  0.1851 -0.3074
18161SOL    HW155264   0.996   2.710   8.083  0.6569 -0.4117 -1.0401
18161SOL    HW255265   1.115   2.804   8.076  0.1449  0.3309 -0.0438
18162SOL     OW55266   6.587   4.911   1.070 -0.1114  0.3548 -0.3817
18162SOL    HW155267   6.507   4.901   1.121  1.7416 -2.3664  2.3991
18162SOL    HW255268   6.621   4.822   1.060  1.9383  1.2527 -2.6106
18163SOL     OW55269   2.297   4.489   3.404  0.1565  0.5934 -0.6222
18163SOL    HW155270   2.338   4.421   3.457  0.4305  0.1572 -1.3758
18163SOL    HW255271   2.341   4.570   3.430  0.0292  0.4458  0.0748
18164SOL     OW55272   5.086   2.861   5.496  0.1769 -0.0660  0.1519
18164SOL    HW155273   5.049   2.885   5.410  0.7608  0.8194  0.1301
18164SOL    HW255274   5.180   2.871   5.485  0.1837  1.7036  1.3443
18165SOL     OW55275   7.230   6.124   2.501 -0.6099 -0.2494  0.2437
18165SOL    HW155276   7.320   6.142   2.475 -0.7065  0.4106  0.3370
18165SOL    HW255277   7.238   6.067   2.578 -0.2622  0.1707  0.5233
18166SOL     OW55278   4.462   7.200   7.712 -0.1170  0.5986 -0.0343
18166SOL    HW155279   4.482   7.107   7.723  0.9429  0.9674  1.3508
18166SOL    HW255280   4.374   7.210   7.748 -0.7114 -0.0483 -1.2354
18167SOL     OW55281   3.945   1.757   2.478  0.6064 -0.2191 -0.2214
18167SOL    HW155282   4.025   1.748   2.529  0.1938  1.0623  0.7145
18167SOL    HW255283   3.903   1.671   2.484 -0.4492  0.3348  3.4913
18168SOL     OW55284   2.975   1.934   7.873  0.2033 -0.2413 -0.2485
18168SOL    HW155285   2.990   2.026   7.895 -0.3985  0.2051 -1.6439
18168SOL    HW255286   2.880   1.926   7.865  0.2458 -1.0169 -0.0823
18169SOL     OW55287   2.745   4.058   8.135  0.5378 -0.3465 -0.2952
18169SOL    HW155288   2.791   4.141   8.123  1.6636 -0.9478 -0.2677
18169SOL    HW255289   2.712   4.062   8.224 -0.0399  0.3588 -0.5258
18170SOL     OW55290   0.819   6.708   2.985  0.6517  0.2689 -0.0043
18170SOL    HW155291   0.728   6.731   2.967  0.2460 -1.2602 -0.0503
18170SOL    HW255292   0.825   6.704   3.081  0.2146 -1.2264 -0.0155
18171SOL     OW55293   4.254   7.481   0.371  0.0360 -0.1135 -0.4478
18171SOL    HW155294   4.209   7.549   0.321 -0.1256  0.4060  0.3907
18171SOL    HW255295   4.347   7.495   0.352 -0.0809 -0.6442 -1.4953
18172SOL     OW55296   6.663   2.857   2.387  0.3278  0.0031  0.1747
18172SOL    HW155297   6.581   2.892   2.421  0.6598 -0.8492  1.9706
18172SOL    HW255298   6.672   2.896   2.300 -1.0467  1.5557  0.6869
18173SOL     OW55299   6.888   1.419   2.496  0.1574  1.0502  0.0368
18173SOL    HW155300   6.857   1.371   2.419  0.5669  1.1270 -0.1789
18173SOL    HW255301   6.818   1.409   2.560  0.1508  0.3271 -0.0720
18174SOL     OW55302   1.737   5.566   6.541 -0.0772 -0.7356 -0.2056
18174SOL    HW155303   1.690   5.632   6.592  0.3340  0.1221 -0.9207
18174SOL    HW255304   1.765   5.501   6.606  0.3131  0.2666  0.6546
18175SOL     OW55305   2.717   0.438   6.617  0.9287  0.1767 -0.6752
18175SOL    HW155306   2.748   0.458   6.706 -0.1152  0.4285 -0.3564
18175SOL    HW255307   2.626   0.413   6.628  0.5079  1.1273 -1.7846
18176SOL     OW55308   4.754   7.668   2.018 -0.4385  0.2660 -0.0019
18176SOL    HW155309   4.849   7.677   2.018 -0.4244  0.4605 -1.6679
18176SOL    HW255310   4.739   7.575   2.037  0.0576  0.3445  0.8031
18177SOL     OW55311   6.959   4.789   4.419  0.4733  0.0779  0.3159
18177SOL    HW155312   7.036   4.804   4.364  1.4977 -0.3249  1.5745
18177SOL    HW255313   6.993   4.792   4.509 -1.5229  3.0926  1.1108
18178SOL     OW55314   0.728   5.582   2.851  0.3626 -0.2543 -0.1085
18178SOL    HW155315   0.667   5.656   2.860  1.1563  0.4421 -0.4239
18178SOL    HW255316   0.690   5.514   2.907 -0.2708  0.4581  0.3500
18179SOL     OW55317   1.838   2.075   5.224 -0.3745  0.7381 -0.0121
18179SOL    HW155318   1.870   2.141   5.286  1.6627  2.8661 -3.0267
18179SOL    HW255319   1.746   2.097   5.210 -1.2263 -0.4868  2.8825
18180SOL     OW55320   5.343   2.756   4.899  0.3477  0.0748  0.3711
18180SOL    HW155321   5.428   2.744   4.855 -0.5884  1.6839 -2.0877
18180SOL    HW255322   5.291   2.680   4.872  0.6211 -0.3004  0.8953
18181SOL     OW55323   6.919   2.433   1.899  0.1952 -0.4471 -0.3808
18181SOL    HW155324   6.912   2.338   1.894 -1.4051 -0.2963 -2.1572
18181SOL    HW255325   6.831   2.462   1.926  0.2509  0.5774 -1.2229
18182SOL     OW55326   7.531   1.911   1.593  0.2156 -0.1885 -0.2543
18182SOL    HW155327   7.596   1.969   1.634  0.4840 -0.8794  0.3050
18182SOL    HW255328   7.447   1.951   1.615  0.3730 -0.3421  0.6580
18183SOL     OW55329   4.163   4.520   4.305 -0.2138 -0.4295 -0.3701
18183SOL    HW155330   4.134   4.611   4.295 -1.8457 -1.0297 -1.7054
18183SOL    HW255331   4.122   4.491   4.387 -2.0171 -0.7200 -1.3225
18184SOL     OW55332   3.992   2.294   4.299 -0.4087  0.6555 -0.6831
18184SOL    HW155333   3.979   2.199   4.299 -2.2272  0.8478 -1.7917
18184SOL    HW255334   4.004   2.316   4.392  1.5874 -0.7836 -0.5366
18185SOL     OW55335   1.363   0.797   0.261 -0.0741  0.5455  0.1472
18185SOL    HW155336   1.370   0.867   0.326  0.4848  2.0635 -1.4789
18185SOL    HW255337   1.268   0.785   0.250 -0.1727  0.7192  0.7315
18186SOL     OW55338   0.775   6.408   7.644 -0.0664  0.4190 -0.0076
18186SOL    HW155339   0.703   6.370   7.593 -0.1431  2.9444 -1.9682
18186SOL    HW255340   0.854   6.383   7.595 -0.2020  3.7421 -2.2405
18187SOL     OW55341   7.389   4.306   6.352 -0.2455  0.5645  0.0677
18187SOL    HW155342   7.303   4.275   6.325 -0.9807  2.0385  0.6479
18187SOL    HW255343   7.408   4.379   6.295  0.9934 -0.2190 -0.5665
18188SOL     OW55344   7.178   1.524   2.755 -0.0928  0.1416 -0.5378
18188SOL    HW155345   7.183   1.518   2.660 -0.7471  0.2723 -0.5860
18188SOL    HW255346   7.131   1.445   2.781  3.7547 -2.2168  0.0716
18189SOL     OW55347   2.270   6.545   7.715  0.9385 -0.0559 -1.4414
18189SOL    HW155348   2.241   6.633   7.692 -0.9364 -0.5678 -1.1975
18189SOL    HW255349   2.211   6.487   7.667  0.9821 -1.1532 -0.2315
18190SOL     OW55350   3.492   4.068   0.707 -0.3654  0.3054  0.0301
18190SOL    HW155351   3.517   3.994   0.652  3.0207  1.0047  0.4439
18190SOL    HW255352   3.531   4.144   0.665 -1.0815  1.4163  1.3085
18191SOL     OW55353   4.454   5.469   8.171  1.1204  0.4037  0.4722
18191SOL    HW155354   4.410   5.387   8.191 -0.4215  1.3054  0.9448
18191SOL    HW255355   4.388   5.536   8.186  1.6775  1.6003 -1.9525
18192SOL     OW55356   6.490   1.491   3.278 -0.4016 -0.1191  0.1711
18192SOL    HW155357   6.574   1.493   3.323 -0.0431  0.2028 -0.4946
18192SOL    HW255358   6.493   1.413   3.223  0.1128  0.7027 -1.0287
18193SOL     OW55359   5.455   0.802   0.038 -0.3536  0.0379 -0.1626
18193SOL    HW155360   5.387   0.856   0.077 -0.5376  1.1826 -1.9577
18193SOL    HW255361   5.535   0.853   0.048 -0.4546  0.4804 -1.4996
18194SOL     OW55362   5.752   4.910   6.576 -0.2356  0.2186  0.0385
18194SOL    HW155363   5.810   4.986   6.585 -0.5363  0.3599  0.8450
18194SOL    HW255364   5.811   4.835   6.586  0.0458  0.3395 -0.6567
18195SOL     OW55365   3.164   3.310   5.862  0.0366 -0.4796  0.2321
18195SOL    HW155366   3.232   3.249   5.893 -0.7311 -1.2377  0.4844
18195SOL    HW255367   3.083   3.259   5.867 -1.1505  1.4413  3.3305
18196SOL     OW55368   3.427   2.080   4.449 -0.6857  0.3670 -0.3679
18196SOL    HW155369   3.426   2.063   4.543 -2.5865 -1.0857 -0.5955
18196SOL    HW255370   3.488   2.015   4.414 -0.2511  0.6752 -0.1943
18197SOL     OW55371   6.881   1.771   0.981 -0.0485 -0.6276 -0.1066
18197SOL    HW155372   6.890   1.778   0.886 -1.8128 -0.5403 -0.3035
18197SOL    HW255373   6.965   1.737   1.011  0.7743 -0.0155 -1.6191
18198SOL     OW55374   2.142   1.271   6.394 -0.1954  0.9968 -0.1217
18198SOL    HW155375   2.143   1.288   6.488 -0.5579  0.9284 -0.1035
18198SOL    HW255376   2.214   1.210   6.380 -0.8627  0.0794  0.3009
18199SOL     OW55377   3.964   7.364   1.361 -0.3752  0.1346 -0.3341
18199SOL    HW155378   4.001   7.437   1.312  1.2280  0.3906  1.1707
18199SOL    HW255379   4.026   7.292   1.347 -1.8032 -0.9218 -1.5970
18200SOL     OW55380   5.282   4.196   0.686 -0.4099 -0.0313 -0.1228
18200SOL    HW155381   5.246   4.179   0.599  1.4259 -1.1427 -0.7063
18200SOL    HW255382   5.219   4.256   0.726 -1.8295 -0.3123 -1.8187
18201SOL     OW55383   6.785   7.520   7.179 -0.1265 -0.2018 -0.2799
18201SOL    HW155384   6.776   7.606   7.219 -1.3588 -0.7875  0.7761
18201SOL    HW255385   6.869   7.487   7.213  0.0334  0.3166 -0.1611
18202SOL     OW55386   1.026   6.189   0.277  0.3038 -0.2089 -0.4490
18202SOL    HW155387   1.092   6.221   0.215  1.7345 -0.2448  1.0004
18202SOL    HW255388   1.067   6.198   0.363 -0.8627 -2.0063  0.3548
18203SOL     OW55389   0.290   1.958   6.885  0.5109  0.3211 -0.4178
18203SOL    HW155390   0.304   2.052   6.890  0.0030  0.3486  1.0021
18203SOL    HW255391   0.195   1.947   6.882  0.5833 -0.1095 -2.4580
18204SOL     OW55392   2.150   6.065   6.857 -0.7929 -0.1318 -0.1463
18204SOL    HW155393   2.098   6.079   6.936  0.4604  1.5774  0.4247
18204SOL    HW255394   2.241   6.062   6.887 -0.1594  1.9918 -1.6188
18205SOL     OW55395   6.970   2.569   0.858 -0.1808 -0.0674  0.9008
18205SOL    HW155396   7.013   2.520   0.787  0.6879  0.9769  0.6751
18205SOL    HW255397   7.025   2.647   0.870 -2.7208  2.0834 -0.3412
18206SOL     OW55398   3.225   5.234   2.435  0.2925  0.3664 -0.1282
18206SOL    HW155399   3.305   5.282   2.413  1.7237 -2.2364 -1.0610
18206SOL    HW255400   3.252   5.143   2.441 -2.8638 -0.9054 -2.1410
18207SOL     OW55401   4.097   5.296   8.116  0.2869  0.0577 -0.6311
18207SOL    HW155402   4.006   5.268   8.108  0.6568 -1.9552  1.1746
18207SOL    HW255403   4.147   5.230   8.067  1.0339 -1.6353  2.1535
18208SOL     OW55404   2.195   2.011   3.541 -0.3562 -0.0578 -0.6113
18208SOL    HW155405   2.158   1.929   3.573 -0.7379  0.0786 -0.6896
18208SOL    HW255406   2.149   2.027   3.458 -2.0076  1.4283  0.5281
18209SOL     OW55407   4.127   7.484   3.067  0.5799 -0.4596 -0.2936
18209SOL    HW155408   4.162   7.396   3.050  1.2172 -0.1243 -0.7374
18209SOL    HW255409   4.060   7.496   3.000  1.1616 -0.2363 -0.8450
18210SOL     OW55410   5.034   5.154   6.627  0.9517 -0.4918  0.1886
18210SOL    HW155411   5.119   5.109   6.629  0.3818 -1.6425 -0.7456
18210SOL    HW255412   4.977   5.097   6.577 -0.1535  0.7013  0.0219
18211SOL     OW55413   1.432   5.455   0.824 -0.1439 -0.7884 -0.0193
18211SOL    HW155414   1.513   5.407   0.838  1.5251  1.4485 -1.3345
18211SOL    HW255415   1.387   5.408   0.754  1.8981 -0.0385 -1.9598
18212SOL     OW55416   7.253   8.021   8.242 -0.1309 -0.3498 -0.2323
18212SOL    HW155417   7.318   8.046   8.307 -2.3246  1.3251  1.4532
18212SOL    HW255418   7.275   7.930   8.220  1.9356 -0.2640  1.2195
18213SOL     OW55419   6.329   3.405   6.728  0.3871  0.0120  0.0219
18213SOL    HW155420   6.242   3.406   6.688  0.0807 -0.8610  0.6343
18213SOL    HW255421   6.323   3.462   6.804  0.1578 -0.5435  0.4282
18214SOL     OW55422   6.678   5.049   6.151  0.0966 -0.6127 -0.7291
18214SOL    HW155423   6.648   5.038   6.061  0.1098  0.8518 -0.9443
18214SOL    HW255424   6.630   5.125   6.183  0.0228 -1.1651  0.5488
18215SOL     OW55425   1.523   4.165   5.790  0.4397  0.0716  0.1830
18215SOL    HW155426   1.511   4.081   5.835 -0.9373  1.2515  2.1704
18215SOL    HW255427   1.562   4.222   5.857 -0.1857  1.4590 -0.6126
18216SOL     OW55428   4.929   1.890   4.500 -0.3071 -0.3945  0.6482
18216SOL    HW155429   4.976   1.809   4.519 -0.9941 -0.4391  2.3364
18216SOL    HW255430   4.839   1.872   4.527 -0.5106  0.8517  0.8599
18217SOL     OW55431   1.178   6.812   2.493 -0.6131  0.3170 -0.0147
18217SOL    HW155432   1.180   6.728   2.538 -0.3751  1.3116  1.9432
18217SOL    HW255433   1.200   6.791   2.402  0.3195 -1.6137  0.6056
18218SOL     OW55434   3.952   1.104   3.637 -0.3092  0.3513 -0.7170
18218SOL    HW155435   3.945   1.138   3.548 -0.2192 -0.6163 -1.1014
18218SOL    HW255436   3.863   1.080   3.661 -0.0963 -0.9874 -1.2011
18219SOL     OW55437   4.686   4.701   6.587  0.0586  0.0805  0.5383
18219SOL    HW155438   4.640   4.625   6.622 -0.0126  0.2408  0.7945
18219SOL    HW255439   4.709   4.676   6.497  0.6614 -0.5167  0.8420
18220SOL     OW55440   5.259   5.280   3.925  0.7290 -0.4386 -0.4194
18220SOL    HW155441   5.165   5.300   3.925  0.6191 -0.9369 -0.1153
18220SOL    HW255442   5.283   5.279   4.018  0.9116 -0.8852 -0.4700
18221SOL     OW55443   2.574   1.668   2.153  1.2228  0.3786  0.1123
18221SOL    HW155444   2.525   1.741   2.114  0.6677  0.1700  0.4094
18221SOL    HW255445   2.547   1.667   2.244 -0.3172 -1.4191 -0.2981
18222SOL     OW55446   7.774   8.287   0.525  0.4806 -0.5931  0.2377
18222SOL    HW155447   7.846   8.232   0.555  0.4549 -1.0528 -0.5190
18222SOL    HW255448   7.816   8.361   0.483  0.5413 -1.4897 -1.3474
18223SOL     OW55449   7.895   7.397   5.507  0.0236 -0.3534  0.6545
18223SOL    HW155450   7.905   7.332   5.577 -1.5035 -0.0263  1.1944
18223SOL    HW255451   7.864   7.476   5.550  0.0241  0.1733 -0.2675
18224SOL     OW55452   5.576   6.610   4.066 -0.0855 -0.2247 -0.6756
18224SOL    HW155453   5.623   6.648   3.993 -0.4512 -1.9953 -1.9010
18224SOL    HW255454   5.488   6.593   4.032 -0.4537 -0.4938  0.3724
18225SOL     OW55455   4.327   0.765   3.120 -0.1422 -0.4456 -0.3778
18225SOL    HW155456   4.272   0.827   3.167  1.0482 -1.1576  2.1402
18225SOL    HW255457   4.300   0.679   3.152  0.8993 -0.9454 -0.7797
18226SOL     OW55458   4.692   5.900   3.604 -0.3178  0.1797 -0.0230
18226SOL    HW155459   4.725   5.946   3.527 -0.0665  0.5648  0.3036
18226SOL    HW255460   4.769   5.892   3.661  0.2443 -2.8387 -1.0757
18227SOL     OW55461   6.737   6.858   4.500  0.1453 -0.1997 -0.5639
18227SOL    HW155462   6.798   6.913   4.549 -0.3319  1.3812 -1.6731
18227SOL    HW255463   6.757   6.875   4.409 -1.0429 -0.7031 -0.9423
18228SOL     OW55464   5.254   8.264   4.820  0.1962 -0.1322 -0.3890
18228SOL    HW155465   5.191   8.239   4.753 -2.6467  2.1395  1.1727
18228SOL    HW255466   5.266   8.185   4.873 -0.4034 -0.9279 -1.4023
18229SOL     OW55467   1.124   5.823   5.547  0.2745  0.3896 -0.3043
18229SOL    HW155468   1.192   5.890   5.544  1.6747 -0.9139  0.7498
18229SOL    HW255469   1.080   5.837   5.631  1.0060 -0.3831  0.2241
18230SOL     OW55470   7.313   5.635   5.944  0.6931  0.3508  0.5590
18230SOL    HW155471   7.294   5.545   5.970 -0.2238 -0.4330 -2.4347
18230SOL    HW255472   7.338   5.679   6.025  2.3579 -2.8738  1.9527
18231SOL     OW55473   3.869   5.276   2.785  0.2127  0.7392  0.3509
18231SOL    HW155474   3.900   5.250   2.699 -1.3655  2.2657 -0.7452
18231SOL    HW255475   3.948   5.305   2.832  1.3928 -1.9202  0.1950
18232SOL     OW55476   7.794   0.705   4.719 -0.0728 -0.0102 -0.4445
18232SOL    HW155477   7.711   0.703   4.767  0.5621 -0.3091  0.6655
18232SOL    HW255478   7.859   0.731   4.784  0.6867  0.4080 -1.3454
18233SOL     OW55479   7.678   4.705   6.878  0.1610 -0.3078 -0.2104
18233SOL    HW155480   7.623   4.775   6.913  0.6241 -0.0447 -0.0023
18233SOL    HW255481   7.650   4.627   6.926  0.5982 -0.0032  0.5487
18234SOL     OW55482   7.334   4.558   3.675  0.4967 -1.0804 -0.1152
18234SOL    HW155483   7.246   4.586   3.652  1.0303 -0.0835 -0.9886
18234SOL    HW255484   7.339   4.571   3.770  0.7017  1.8798 -0.4343
18235SOL     OW55485   6.153   5.942   5.451  0.0859 -0.3474 -1.1639
18235SOL    HW155486   6.058   5.954   5.457  0.0112 -0.0628 -2.5705
18235SOL    HW255487   6.183   6.014   5.395  1.2977  0.2430  0.1882
18236SOL     OW55488   4.436   7.494   7.957  0.1934  0.4719 -0.2815
18236SOL    HW155489   4.469   7.515   7.870  0.3359  2.8080  0.2702
18236SOL    HW255490   4.358   7.441   7.941  1.2977 -0.8033 -1.7360
18237SOL     OW55491   6.246   5.150   2.622 -0.1491  0.0479 -0.0880
18237SOL    HW155492   6.262   5.151   2.716 -2.6869  0.2801  0.4054
18237SOL    HW255493   6.196   5.070   2.606  0.3716 -0.0705 -1.2859
18238SOL     OW55494   7.295   7.451   6.623 -0.1481 -0.3304  0.6943
18238SOL    HW155495   7.321   7.368   6.664 -1.3103 -0.6696  0.7773
18238SOL    HW255496   7.280   7.510   6.697 -0.8225 -0.5066  0.6983
18239SOL     OW55497   7.936   1.505   0.293  0.1034  0.1653  0.5321
18239SOL    HW155498   7.859   1.555   0.321 -2.3980 -2.9289 -0.1790
18239SOL    HW255499   7.936   1.512   0.198  1.2188  0.7517  0.5603
18240SOL     OW55500   2.841   0.937   3.320 -0.4488  0.0538  0.0317
18240SOL    HW155501   2.809   0.888   3.395  4.0043 -0.3518  1.9340
18240SOL    HW255502   2.874   0.870   3.260  0.0746  0.5036 -0.1918
18241SOL     OW55503   3.588   5.933   5.225 -0.1582 -0.7722  0.0686
18241SOL    HW155504   3.542   5.855   5.194  0.7395 -1.2678 -0.0622
18241SOL    HW255505   3.551   5.950   5.311 -0.5783 -1.1685 -0.0321
18242SOL     OW55506   3.418   4.335   5.406 -0.4245  0.3936 -0.2758
18242SOL    HW155507   3.510   4.358   5.418  0.0411 -1.9189  1.3322
18242SOL    HW255508   3.418   4.276   5.330 -0.6447  0.6583 -0.4846
18243SOL     OW55509   3.498   7.253   3.928 -0.0452  0.0974  0.0860
18243SOL    HW155510   3.567   7.240   3.863 -0.2296 -0.0734 -0.0776
18243SOL    HW255511   3.539   7.235   4.012  0.3798  0.9811  0.0797
18244SOL     OW55512   6.140   6.241   0.186 -0.3424  0.2748 -0.0213
18244SOL    HW155513   6.187   6.161   0.208  2.0759  1.3483 -0.9958
18244SOL    HW255514   6.079   6.253   0.259 -0.6881 -2.3221  0.2202
18245SOL     OW55515   0.042   5.487   1.102  0.2587 -0.1121  0.1773
18245SOL    HW155516   0.136   5.483   1.088  0.7915  2.7966  2.1762
18245SOL    HW255517   0.004   5.493   1.014  2.2175  2.1108 -0.5928
18246SOL     OW55518   8.192   0.252   6.889  0.5918  0.1969  0.4091
18246SOL    HW155519   8.250   0.184   6.855  2.4119  0.8021  2.1079
18246SOL    HW255520   8.186   0.316   6.818  0.4474 -0.7826 -0.4806
18247SOL     OW55521   1.576   6.391   3.203 -0.7906 -0.5047  0.3705
18247SOL    HW155522   1.601   6.300   3.186  0.1625 -0.4331  1.2884
18247SOL    HW255523   1.656   6.441   3.188 -1.6222  0.3868 -1.4167
18248SOL     OW55524   1.353   0.822   4.822  0.6964 -0.2114 -0.4187
18248SOL    HW155525   1.261   0.837   4.841  0.7020 -0.4995 -0.1523
18248SOL    HW255526   1.400   0.880   4.882  0.6733  1.6383 -2.0912
18249SOL     OW55527   7.835   6.720   0.882 -0.1455 -0.3277  0.2585
18249SOL    HW155528   7.874   6.657   0.942  0.2334 -0.4918 -0.1472
18249SOL    HW255529   7.880   6.704   0.799  0.8021  1.2327  0.4183
18250SOL     OW55530   6.387   7.923   8.314  0.1589 -0.2026 -0.4372
18250SOL    HW155531   6.401   8.011   8.348  1.4848 -0.7119  0.4090
18250SOL    HW255532   6.475   7.891   8.293 -0.4154 -0.7500 -2.2668
18251SOL     OW55533   1.425   2.207   4.274 -0.6846  0.1612  0.4438
18251SOL    HW155534   1.341   2.184   4.234  0.3495  0.0876 -1.8358
18251SOL    HW255535   1.490   2.179   4.210  0.9973  2.2517  1.1374
18252SOL     OW55536   5.792   7.670   5.580 -0.0581 -0.6940 -0.2142
18252SOL    HW155537   5.705   7.699   5.553 -0.2938 -1.7154 -0.5880
18252SOL    HW255538   5.850   7.706   5.513 -0.0542  0.7495  0.5180
18253SOL     OW55539   2.919   0.851   6.945 -0.1606  0.9696 -0.4733
18253SOL    HW155540   2.982   0.788   6.980 -1.0115 -0.5466 -1.5580
18253SOL    HW255541   2.972   0.926   6.919  0.9163  0.6145  0.5850
18254SOL     OW55542   2.765   1.631   7.842 -0.5712 -0.5323  0.0824
18254SOL    HW155543   2.679   1.670   7.828 -1.7547 -2.5871  1.1693
18254SOL    HW255544   2.751   1.568   7.912  1.6702 -1.4750 -0.2514
18255SOL     OW55545   6.741   7.657   0.464  0.0687  0.5287 -0.0926
18255SOL    HW155546   6.807   7.708   0.418 -0.3494  0.9937 -0.1889
18255SOL    HW255547   6.783   7.630   0.546  0.1223  1.4622  0.1895
18256SOL     OW55548   7.333   0.395   5.715  0.2518 -0.3740  0.3653
18256SOL    HW155549   7.332   0.338   5.792 -1.5318 -0.5220  0.2718
18256SOL    HW255550   7.243   0.428   5.708  0.1304 -0.9916 -2.0839
18257SOL     OW55551   0.277   6.552   3.876 -0.2572 -0.0593 -0.0940
18257SOL    HW155552   0.353   6.546   3.934 -2.6455 -1.7353  3.1787
18257SOL    HW255553   0.238   6.637   3.897 -0.6733 -0.3144  0.1881
18258SOL     OW55554   2.278   5.106   5.911  0.2853 -0.1661  0.3738
18258SOL    HW155555   2.259   5.012   5.907  0.6691 -0.2110 -0.6999
18258SOL    HW255556   2.372   5.112   5.893  0.2218  0.4406  0.2287
18259SOL     OW55557   2.525   1.692   2.899  0.2268 -0.2201  0.4281
18259SOL    HW155558   2.612   1.732   2.909  0.0006  0.5151 -0.3759
18259SOL    HW255559   2.466   1.751   2.946 -0.3080  1.2314 -1.8817
18260SOL     OW55560   5.475   5.298   2.077 -0.0321 -0.9689 -0.4285
18260SOL    HW155561   5.537   5.293   2.150  0.1608 -1.5270 -0.6201
18260SOL    HW255562   5.452   5.390   2.071  0.1464 -0.8782  0.1768
18261SOL     OW55563   4.853   1.206   4.408  0.8905 -0.1860  0.4405
18261SOL    HW155564   4.846   1.289   4.455  1.0976  0.3644 -0.4562
18261SOL    HW255565   4.878   1.232   4.319 -0.8286 -1.0949 -0.3440
18262SOL     OW55566   7.723   1.710   2.597  0.4152  0.9385  0.1087
18262SOL    HW155567   7.799   1.659   2.569 -1.0177 -0.4999 -1.4162
18262SOL    HW255568   7.701   1.676   2.684  0.5457  0.1985 -0.1423
18263SOL     OW55569   6.633   0.755   3.327 -0.0208 -0.0644 -0.1715
18263SOL    HW155570   6.590   0.777   3.409  1.1395  0.5925  0.2848
18263SOL    HW255571   6.564   0.759   3.261 -0.3485  2.7557  0.2323
18264SOL     OW55572   3.019   5.381   3.776  0.2448 -0.5625  0.1434
18264SOL    HW155573   3.070   5.415   3.702 -0.9098  1.5560  0.2297
18264SOL    HW255574   2.953   5.324   3.737  0.2421 -0.1978 -0.3906
18265SOL     OW55575   4.402   2.877   2.976  0.3959 -0.3080  0.0479
18265SOL    HW155576   4.463   2.908   3.043  0.9835 -2.8162  0.7901
18265SOL    HW255577   4.406   2.781   2.983 -1.9173 -0.5892 -1.4471
18266SOL     OW55578   5.198   3.121   5.205  0.2506  0.2995  0.3897
18266SOL    HW155579   5.147   3.103   5.126  0.4987  0.1273  0.2701
18266SOL    HW255580   5.287   3.094   5.184  0.5144  1.1598  0.3968
18267SOL     OW55581   4.773   3.101   7.074 -0.0173  0.1775  0.5885
18267SOL    HW155582   4.782   3.196   7.085 -0.0186  0.1510  0.8200
18267SOL    HW255583   4.739   3.070   7.158  0.0253 -0.0347  0.5281
18268SOL     OW55584   4.819   3.507   6.760 -0.0296  0.0308 -0.2582
18268SOL    HW155585   4.808   3.539   6.671  1.3789  0.4182 -0.3191
18268SOL    HW255586   4.886   3.439   6.753 -1.7903 -1.8294  0.1225
18269SOL     OW55587   7.829   1.110   2.441  0.0499  0.0687  0.1839
18269SOL    HW155588   7.895   1.113   2.511  0.1345  0.7426  0.0787
18269SOL    HW255589   7.766   1.178   2.465 -1.4663 -1.5775  1.1091
18270SOL     OW55590   3.029   7.443   5.891 -0.3342  0.3731 -0.3064
18270SOL    HW155591   3.006   7.405   5.976  1.5188 -0.7994 -0.2752
18270SOL    HW255592   3.035   7.367   5.832  0.7933  0.8875 -0.8889
18271SOL     OW55593   7.092   1.066   0.376 -0.1464 -0.3049  0.5769
18271SOL    HW155594   7.178   1.025   0.362 -0.4617 -0.7296 -0.1682
18271SOL    HW255595   7.086   1.076   0.471  0.2020 -1.4377  0.7319
18272SOL     OW55596   0.567   3.059   5.460  0.3123 -0.1597  0.3654
18272SOL    HW155597   0.498   3.125   5.465 -0.8660 -1.3910  0.9266
18272SOL    HW255598   0.558   3.022   5.372  0.6366  0.0855  0.2308
18273SOL     OW55599   1.844   7.898   7.982 -0.1409 -0.3554 -1.0372
18273SOL    HW155600   1.877   7.974   8.029  0.7290 -0.6278 -1.2035
18273SOL    HW255601   1.877   7.908   7.893 -0.8282 -0.4351 -1.3071
18274SOL     OW55602   4.700   1.430   6.375  0.1910 -0.5735  0.2069
18274SOL    HW155603   4.779   1.418   6.428  0.5260 -2.6576 -0.6615
18274SOL    HW255604   4.642   1.359   6.402  0.1896 -1.4179 -1.8330
18275SOL     OW55605   6.280   0.567   0.898  0.2948 -0.0563 -0.5684
18275SOL    HW155606   6.373   0.554   0.917  0.4998  1.3808 -0.4782
18275SOL    HW255607   6.274   0.562   0.803  0.4576 -0.1985 -0.5714
18276SOL     OW55608   5.653   6.566   7.906  0.6540  0.2056  0.3170
18276SOL    HW155609   5.590   6.570   7.978 -1.4996  0.3987 -1.4663
18276SOL    HW255610   5.703   6.647   7.914  0.0396  0.5096  1.2468
18277SOL     OW55611   1.730   3.043   0.347 -0.7960  0.2305 -0.0715
18277SOL    HW155612   1.654   2.994   0.315  0.1549  0.0721 -2.3157
18277SOL    HW255613   1.693   3.115   0.398 -2.2860 -1.8110  1.9332
18278SOL     OW55614   1.967   2.807   2.713  0.3767 -0.3077 -0.8721
18278SOL    HW155615   1.921   2.741   2.661 -3.0188  1.3587 -0.2046
18278SOL    HW255616   2.012   2.861   2.648 -0.4372 -0.6503 -1.7420
18279SOL     OW55617   2.461   1.408   2.107 -0.2805 -0.1181  0.3013
18279SOL    HW155618   2.376   1.435   2.142 -0.6624  1.9470 -1.9152
18279SOL    HW255619   2.516   1.487   2.114  1.2776 -1.2117  1.0542
18280SOL     OW55620   7.508   1.156   6.027 -0.3329  0.0350  0.3143
18280SOL    HW155621   7.570   1.158   6.099 -0.7035  0.0632  0.6361
18280SOL    HW255622   7.500   1.063   6.005 -1.5119 -0.1681  1.4534
18281SOL     OW55623   7.889   2.058   2.287 -0.0566  0.3021 -0.4090
18281SOL    HW155624   7.978   2.033   2.261 -0.3952 -0.1961 -1.1060
18281SOL    HW255625   7.888   2.154   2.279  0.3365  0.2873 -0.6649
18282SOL     OW55626   1.663   7.161   4.540 -0.5379  0.0283  0.0623
18282SOL    HW155627   1.597   7.146   4.473  0.0289  2.9625 -1.3036
18282SOL    HW255628   1.747   7.159   4.492  0.1225 -0.4303  1.1908
18283SOL     OW55629   5.061   3.635   0.505  0.2958  0.3118  0.5438
18283SOL    HW155630   5.003   3.565   0.535  0.2288  0.9468  1.9454
18283SOL    HW255631   5.005   3.691   0.450 -0.0347  0.1007  0.6632
18284SOL     OW55632   2.262   7.301   0.514 -0.1411 -0.6733  0.2172
18284SOL    HW155633   2.337   7.242   0.505 -0.1170 -0.6874  0.5081
18284SOL    HW255634   2.296   7.378   0.559 -0.0797 -0.2526 -0.5182
18285SOL     OW55635   3.718   2.724   6.120 -0.2675 -0.0749  0.1061
18285SOL    HW155636   3.627   2.694   6.119 -1.4194  2.5623  3.1850
18285SOL    HW255637   3.714   2.813   6.084  1.2070 -0.0956 -0.1760
18286SOL     OW55638   2.839   0.462   4.440 -0.2100 -0.5244 -0.1554
18286SOL    HW155639   2.844   0.537   4.380 -1.7302  0.1306  0.4622
18286SOL    HW255640   2.866   0.387   4.388 -0.0901  0.2415 -1.2282
18287SOL     OW55641   0.455   1.053   0.925  0.6063  0.1603 -0.0231
18287SOL    HW155642   0.535   1.106   0.929 -0.3333  1.6724 -0.3889
18287SOL    HW255643   0.385   1.113   0.950 -0.2821 -1.5406  1.9211
18288SOL     OW55644   6.628   6.391   0.240  0.2008  0.2908 -0.3400
18288SOL    HW155645   6.673   6.389   0.325 -0.4569 -0.1580  0.0038
18288SOL    HW255646   6.539   6.362   0.259  0.4411 -1.2917 -1.4269
18289SOL     OW55647   0.825   3.827   0.365  0.0913  0.1839 -0.3139
18289SOL    HW155648   0.813   3.775   0.286 -1.3049 -0.3079  0.1928
18289SOL    HW255649   0.858   3.764   0.430 -1.5983 -0.1336  0.2998
18290SOL     OW55650   3.884   0.918   1.723 -0.3474  0.4774  0.3661
18290SOL    HW155651   3.946   0.872   1.667 -3.5090 -2.3269 -1.2413
18290SOL    HW255652   3.912   0.897   1.812  0.9490 -0.7190 -0.2887
18291SOL     OW55653   7.871   0.884   2.287  0.1294 -0.2220 -0.2370
18291SOL    HW155654   7.828   0.948   2.345  0.6966  0.2824 -0.3668
18291SOL    HW255655   7.962   0.914   2.281  0.0193 -0.1070 -1.6183
18292SOL     OW55656   0.435   7.829   5.693  0.1674  0.1782  0.3582
18292SOL    HW155657   0.380   7.801   5.766  0.9688 -0.9600  0.5427
18292SOL    HW255658   0.523   7.833   5.730  0.3719  0.9942 -0.1917
18293SOL     OW55659   5.925   7.960   4.541  0.0457  0.1371  0.3511
18293SOL    HW155660   5.830   7.970   4.536  0.0272  1.9864  2.8825
18293SOL    HW255661   5.950   7.931   4.453 -3.0061 -2.2302  0.1003
18294SOL     OW55662   6.283   6.367   2.986  0.0084  0.1329  0.5390
18294SOL    HW155663   6.243   6.441   3.032 -2.1629  0.6682 -1.9959
18294SOL    HW255664   6.244   6.290   3.027 -0.4270  0.5272  0.8813
18295SOL     OW55665   1.624   2.137   4.077  0.5321 -0.4077  0.3279
18295SOL    HW155666   1.691   2.094   4.025 -0.5010 -0.6948 -0.8269
18295SOL    HW255667   1.553   2.154   4.015 -0.2330  0.3939  1.3829
18296SOL     OW55668   6.583   6.199   3.338  0.1621  0.1598 -0.1399
18296SOL    HW155669   6.546   6.279   3.376  0.0399  0.6059 -1.1590
18296SOL    HW255670   6.508   6.150   3.306  0.2463 -0.3157  0.3869
18297SOL     OW55671   4.916   2.517   0.670 -0.4961  0.2812 -0.8945
18297SOL    HW155672   4.897   2.429   0.703  0.1063  0.2938 -0.4995
18297SOL    HW255673   4.851   2.531   0.601 -0.7818 -0.3579 -0.7644
18298SOL     OW55674   0.756   3.097   4.742  0.5737 -0.4629 -0.3034
18298SOL    HW155675   0.796   3.174   4.701 -0.6855 -0.3877 -1.4640
18298SOL    HW255676   0.669   3.091   4.702  0.6757 -2.5571 -0.3325
18299SOL     OW55677   6.770   7.029   5.846  0.4666 -0.0559 -0.0044
18299SOL    HW155678   6.819   6.952   5.877  1.4539  0.1904 -0.8856
18299SOL    HW255679   6.838   7.092   5.821 -0.2873  1.7052  2.0331
18300SOL     OW55680   3.402   7.580   0.222  0.0761 -0.0263  0.1258
18300SOL    HW155681   3.314   7.541   0.219 -0.7299  1.6066  0.7632
18300SOL    HW255682   3.410   7.612   0.312  0.2427  2.1006 -0.5893
18301SOL     OW55683   4.879   2.862   0.233  0.0283 -0.5845 -0.5553
18301SOL    HW155684   4.923   2.909   0.303 -1.3098 -1.1056  0.6974
18301SOL    HW255685   4.866   2.927   0.164  2.4016 -0.3540 -0.8521
18302SOL     OW55686   7.204   0.656   8.219  0.1280 -0.1022  0.5320
18302SOL    HW155687   7.115   0.669   8.253  0.2648 -0.8001  1.1996
18302SOL    HW255688   7.259   0.709   8.277 -0.0404  2.2071 -1.2734
18303SOL     OW55689   5.963   4.905   4.792 -0.0275  0.5496 -0.1351
18303SOL    HW155690   6.029   4.897   4.723 -0.4294  0.1936 -0.4856
18303SOL    HW255691   5.992   4.980   4.845  0.4045  0.6843 -0.5563
18304SOL     OW55692   0.535   7.012   0.851 -0.1267 -0.3741  0.2648
18304SOL    HW155693   0.533   6.919   0.874 -1.8147 -0.0411  1.5943
18304SOL    HW255694   0.613   7.045   0.895 -0.1026 -0.9464  0.6647
18305SOL     OW55695   7.434   0.674   1.982  0.7335 -0.2309  0.2570
18305SOL    HW155696   7.422   0.603   1.919  0.3507  0.0270  0.0319
18305SOL    HW255697   7.426   0.754   1.929  1.5794 -0.0251  0.4381
18306SOL     OW55698   6.281   2.640   3.433  0.1282 -0.4537 -0.2689
18306SOL    HW155699   6.318   2.626   3.346  0.1427  0.7620 -0.4841
18306SOL    HW255700   6.275   2.735   3.441  1.1267 -0.4824  1.4669
18307SOL     OW55701   3.206   4.326   3.880 -1.0959  0.0378  0.5956
18307SOL    HW155702   3.194   4.409   3.925  0.8866  0.0593  1.1661
18307SOL    HW255703   3.257   4.347   3.802 -1.2724 -0.5240  0.3204
18308SOL     OW55704   4.694   6.418   6.894  0.1563 -0.0543  0.5290
18308SOL    HW155705   4.667   6.334   6.931 -1.4505  1.3493  2.7845
18308SOL    HW255706   4.787   6.407   6.875  0.0941 -2.1816  1.1924
18309SOL     OW55707   1.246   6.006   4.446  0.0133 -0.1677  0.0397
18309SOL    HW155708   1.313   6.055   4.398 -0.5054  0.9412  0.4193
18309SOL    HW255709   1.178   5.989   4.380 -0.6283  1.2209  0.3032
18310SOL     OW55710   5.638   1.502   0.270  0.4346  0.1733  0.1795
18310SOL    HW155711   5.721   1.528   0.311  1.0613 -1.8236  0.2979
18310SOL    HW255712   5.594   1.585   0.251  1.6987  1.2598  1.6492
18311SOL     OW55713   0.294   0.236   0.085  0.3822  0.1467  0.1443
18311SOL    HW155714   0.260   0.148   0.103  2.4881 -0.7305  0.0490
18311SOL    HW255715   0.241   0.266   0.011 -2.1234  0.0855  1.7609
18312SOL     OW55716   1.015   0.599   2.484  0.1983 -0.3517  0.2040
18312SOL    HW155717   1.001   0.512   2.446  1.5412  0.6149 -2.8175
18312SOL    HW255718   0.958   0.657   2.432  0.9984  0.8604  0.6405
18313SOL     OW55719   2.434   4.243   4.933  0.0070  0.0397 -0.2401
18313SOL    HW155720   2.419   4.335   4.953  0.3338  0.0613 -0.0900
18313SOL    HW255721   2.494   4.244   4.859 -1.3053 -0.0392 -1.3345
18314SOL     OW55722   4.648   7.439   6.558 -0.1571  0.0965  0.2029
18314SOL    HW155723   4.698   7.513   6.523 -0.2848  0.1957  0.2336
18314SOL    HW255724   4.657   7.446   6.653  3.8957 -2.6020  0.2970
18315SOL     OW55725   6.923   4.905   6.671 -0.0894 -0.0751  0.4591
18315SOL    HW155726   6.955   4.946   6.591 -0.4795  0.3558  0.5198
18315SOL    HW255727   6.836   4.943   6.685 -0.0449 -0.1796  1.0590
18316SOL     OW55728   2.391   2.408   6.474 -0.3843  0.1554  0.0322
18316SOL    HW155729   2.325   2.339   6.467 -0.2595 -0.0640  0.8817
18316SOL    HW255730   2.391   2.432   6.567 -0.6858  1.5702 -0.3160
18317SOL     OW55731   2.728   2.265   6.652  0.4233  0.3042  0.0688
18317SOL    HW155732   2.812   2.304   6.678  1.5751  0.0386 -2.8237
18317SOL    HW255733   2.664   2.334   6.668  1.7979  1.9426 -1.0407
18318SOL     OW55734   0.750   6.218   0.315  0.0572 -0.2892 -0.5057
18318SOL    HW155735   0.844   6.204   0.301  0.1921  0.7364 -0.6844
18318SOL    HW255736   0.733   6.305   0.279 -0.6843  0.1349  0.8135
18319SOL     OW55737   3.854   5.994   1.589  0.1530 -0.1122  0.4999
18319SOL    HW155738   3.801   6.063   1.549  0.3405  0.1808  0.7462
18319SOL    HW255739   3.852   5.922   1.526  0.0681  0.1697  0.1772
18320SOL     OW55740   3.328   4.920   3.305 -0.0896 -0.1958  0.4256
18320SOL    HW155741   3.401   4.869   3.268  1.9171  1.6336  1.6203
18320SOL    HW255742   3.336   4.908   3.399 -0.0752  1.6304  0.6865
18321SOL     OW55743   3.200   8.212   8.035  0.1308  0.8216 -0.4033
18321SOL    HW155744   3.236   8.123   8.045 -0.3257  0.7749  1.2387
18321SOL    HW255745   3.174   8.218   7.944 -2.3105 -1.7246 -0.0140
18322SOL     OW55746   7.741   3.140   5.855  0.2310  0.2313  0.5926
18322SOL    HW155747   7.671   3.078   5.834  2.6317 -2.4505 -0.1468
18322SOL    HW255748   7.720   3.171   5.943 -1.3605 -1.1942  0.7651
18323SOL     OW55749   0.151   7.297   2.236 -0.0241  0.1192 -0.1033
18323SOL    HW155750   0.200   7.254   2.165 -1.0583 -0.4299 -0.5032
18323SOL    HW255751   0.217   7.316   2.302  0.3053 -3.3567  0.7442
18324SOL     OW55752   6.104   7.962   6.645  0.6605  0.0074 -0.1699
18324SOL    HW155753   6.183   7.909   6.640  0.4671 -0.2601 -0.4178
18324SOL    HW255754   6.067   7.959   6.557 -0.0979 -0.5963  0.1543
18325SOL     OW55755   7.144   6.448   1.026  0.3819 -0.0573  0.0988
18325SOL    HW155756   7.129   6.366   1.072 -0.7001  0.2380  0.2890
18325SOL    HW255757   7.239   6.463   1.034  0.5608 -1.1854  0.2063
18326SOL     OW55758   2.924   4.764   0.227  0.2727 -0.4176 -0.2949
18326SOL    HW155759   2.934   4.708   0.149 -0.3425  0.9100 -1.3675
18326SOL    HW255760   3.012   4.796   0.245  0.5022 -1.1240 -0.1266
18327SOL     OW55761   1.399   1.056   3.421 -0.2074 -0.0356  0.3075
18327SOL    HW155762   1.356   1.085   3.501 -1.4452 -1.0117  0.0239
18327SOL    HW255763   1.460   0.988   3.449  0.7452  0.9440  0.6412
18328SOL     OW55764   5.313   5.969   3.088 -0.0285  0.4724 -0.3202
18328SOL    HW155765   5.286   5.921   3.166  1.1584  1.0007  0.4482
18328SOL    HW255766   5.239   6.027   3.068 -0.8862 -0.6349 -0.4194
18329SOL     OW55767   5.868   3.025   6.691 -0.0405  0.1893 -0.0789
18329SOL    HW155768   5.827   3.034   6.605  1.1637  0.6309 -0.6354
18329SOL    HW255769   5.827   2.948   6.729 -1.3298  0.5738 -0.6168
18330SOL     OW55770   0.222   5.778   7.367 -0.0462  0.1521 -0.1441
18330SOL    HW155771   0.275   5.857   7.372 -1.2396  1.0108 -0.7010
18330SOL    HW255772   0.195   5.761   7.457 -0.2193  0.6816 -0.0946
18331SOL     OW55773   3.379   6.384   2.341  0.0869  0.5954  0.6741
18331SOL    HW155774   3.418   6.308   2.385 -2.3905 -0.1818  1.6700
18331SOL    HW255775   3.345   6.438   2.412  0.4003  1.8831 -0.1107
18332SOL     OW55776   6.979   6.702   5.050 -0.4862  0.2589  0.3791
18332SOL    HW155777   7.059   6.712   5.103 -0.4270 -2.2760  0.9000
18332SOL    HW255778   6.915   6.760   5.092  0.7965  1.6296  0.5180
18333SOL     OW55779   4.231   5.164   7.691 -1.0973 -0.3181 -0.0082
18333SOL    HW155780   4.290   5.100   7.730 -1.1002  0.3745  1.1965
18333SOL    HW255781   4.252   5.162   7.598  1.4763  0.5030  0.4668
18334SOL     OW55782   5.195   4.253   4.180 -0.7814  0.3227  0.4475
18334SOL    HW155783   5.178   4.161   4.160 -2.2946 -0.1217  3.2992
18334SOL    HW255784   5.182   4.298   4.096 -0.3232 -1.9707 -0.9512
18335SOL     OW55785   3.390   3.108   4.294  0.2298  0.1698  0.2962
18335SOL    HW155786   3.445   3.076   4.222 -1.9891  0.9486 -1.8947
18335SOL    HW255787   3.351   3.188   4.260 -2.6114 -0.6001  1.4873
18336SOL     OW55788   2.252   6.561   1.998 -0.2629  0.5757 -0.4707
18336SOL    HW155789   2.247   6.653   2.026  0.7104  0.7087 -0.7041
18336SOL    HW255790   2.312   6.562   1.924 -0.2147 -0.2644 -0.4534
18337SOL     OW55791   4.508   7.508   0.274 -0.0031 -0.0696 -0.3092
18337SOL    HW155792   4.566   7.561   0.328 -0.3549  1.7037 -1.5604
18337SOL    HW255793   4.523   7.541   0.185 -1.8511 -0.5637 -0.8439
18338SOL     OW55794   5.661   6.718   0.648  0.4015 -0.4385 -0.7338
18338SOL    HW155795   5.569   6.712   0.675  0.2856  0.9153 -0.7613
18338SOL    HW255796   5.660   6.778   0.573  1.3555 -0.1066 -0.4882
18339SOL     OW55797   5.719   2.627   6.369 -0.1114 -0.1855 -0.0863
18339SOL    HW155798   5.727   2.607   6.275 -2.0162 -1.7093  0.0017
18339SOL    HW255799   5.653   2.696   6.372  1.5497  1.4774  0.0562
18340SOL     OW55800   4.418   4.041   4.117  0.1093  0.5697 -0.5084
18340SOL    HW155801   4.345   4.082   4.165  1.1616  1.8937  0.0116
18340SOL    HW255802   4.441   3.965   4.171 -0.4988  0.4784 -0.3638
18341SOL     OW55803   1.865   5.734   3.163 -0.7319  0.4347 -0.2962
18341SOL    HW155804   1.777   5.702   3.180 -1.1190  2.6095  2.5819
18341SOL    HW255805   1.910   5.724   3.247  1.6049 -0.0171 -1.5245
18342SOL     OW55806   7.984   5.228   3.377 -0.2205 -0.2554 -0.1377
18342SOL    HW155807   7.983   5.264   3.289  1.0749  1.1403  0.3648
18342SOL    HW255808   7.902   5.258   3.416 -0.7156 -0.7296 -0.7959
18343SOL     OW55809   3.469   5.523   8.113  0.0064 -0.0146  0.3698
18343SOL    HW155810   3.517   5.472   8.048  0.1073 -0.9523  1.1536
18343SOL    HW255811   3.534   5.544   8.180 -0.2827  0.1867  0.5913
18344SOL     OW55812   7.916   1.698   0.776 -0.1428  0.5170 -0.2333
18344SOL    HW155813   7.892   1.606   0.772  0.0452  0.4362  0.4886
18344SOL    HW255814   7.872   1.732   0.854 -1.2527  1.3486 -1.1762
18345SOL     OW55815   3.983   7.656   0.955  0.2851 -0.2120  0.1344
18345SOL    HW155816   3.917   7.614   0.901 -0.7382 -0.5667  1.5780
18345SOL    HW255817   3.947   7.743   0.974  0.0491 -0.5163  1.1775
18346SOL     OW55818   8.031   5.308   3.825 -0.8818  0.2896  0.2177
18346SOL    HW155819   7.959   5.280   3.768 -1.1386 -2.4546  1.7374
18346SOL    HW255820   8.078   5.227   3.846  1.9461  1.8171  0.3066
18347SOL     OW55821   5.598   1.631   5.273  0.4373  0.5687  0.2617
18347SOL    HW155822   5.584   1.673   5.357  1.8290  1.7147 -0.0451
18347SOL    HW255823   5.519   1.650   5.222  0.3881  1.4645  0.6726
18348SOL     OW55824   2.118   7.486   6.137  0.4755 -0.3304  0.4824
18348SOL    HW155825   2.034   7.531   6.127  0.6768  0.0925  0.6933
18348SOL    HW255826   2.150   7.514   6.223  0.4622 -1.1117  0.7550
18349SOL     OW55827   2.295   0.138   3.051  0.0863 -0.5607  0.1094
18349SOL    HW155828   2.202   0.148   3.029  0.6101  1.5873 -1.4325
18349SOL    HW255829   2.299   0.158   3.145 -0.7062  2.1695 -0.3452
18350SOL     OW55830   3.192   5.064   4.033 -0.4276  0.1995 -0.5863
18350SOL    HW155831   3.160   4.984   4.075 -2.4586 -0.1442 -2.6052
18350SOL    HW255832   3.115   5.120   4.025  0.5204  1.4773 -1.1810
18351SOL     OW55833   0.256   6.235   4.692  0.1779 -0.4210  0.6209
18351SOL    HW155834   0.193   6.283   4.640 -0.3498 -0.6804  1.0093
18351SOL    HW255835   0.341   6.273   4.668 -0.1613  0.2304  0.4185
18352SOL     OW55836   2.236   0.671   1.275  0.2525 -0.1202  0.4975
18352SOL    HW155837   2.282   0.623   1.207  0.4462  1.3072 -0.4341
18352SOL    HW255838   2.201   0.604   1.333 -0.5124 -1.4371 -1.3772
18353SOL     OW55839   3.687   1.341   7.963 -0.1202 -0.5251 -0.0703
18353SOL    HW155840   3.770   1.357   8.009  0.1890  0.1722 -0.8353
18353SOL    HW255841   3.620   1.353   8.030  0.3560 -0.1878  0.3538
18354SOL     OW55842   1.912   5.120   3.481 -0.5917 -0.7651  0.0146
18354SOL    HW155843   1.956   5.135   3.397 -0.2407  0.0536  0.3371
18354SOL    HW255844   1.895   5.207   3.515  1.1357 -1.0484  1.7780
18355SOL     OW55845   1.703   1.238   1.360 -0.5036  0.0447 -0.5628
18355SOL    HW155846   1.796   1.251   1.374 -0.8731  1.3078  0.9408
18355SOL    HW255847   1.679   1.166   1.419 -0.5297 -0.1093 -0.7598
18356SOL     OW55848   2.807   7.325   0.167  0.0422  0.1053 -0.1105
18356SOL    HW155849   2.847   7.293   0.086  0.9297 -0.4240  0.5263
18356SOL    HW255850   2.873   7.310   0.234 -1.5216 -1.5800  1.1492
18357SOL     OW55851   0.537   4.908   8.209  0.6564 -0.5141  0.0190
18357SOL    HW155852   0.622   4.909   8.254  0.7218 -2.3799  0.0171
18357SOL    HW255853   0.498   4.993   8.230  1.8759 -0.2232  1.2929
18358SOL     OW55854   2.618   4.810   5.641 -0.5603  0.1673  0.0048
18358SOL    HW155855   2.579   4.745   5.700 -0.7705  1.4908  1.4036
18358SOL    HW255856   2.632   4.887   5.697  0.0526  1.1905 -1.4975
18359SOL     OW55857   1.841   2.742   0.403 -0.5390 -0.5641  0.1084
18359SOL    HW155858   1.774   2.790   0.453 -2.3368 -2.1757 -0.6012
18359SOL    HW255859   1.888   2.691   0.470 -1.7881 -1.3988  0.3891
18360SOL     OW55860   0.040   5.734   7.178  0.3511 -0.5760  0.2252
18360SOL    HW155861   0.111   5.744   7.242  0.6158 -1.1557  0.0335
18360SOL    HW255862   0.084   5.742   7.093 -0.1975  1.5584  0.0922
18361SOL     OW55863   6.989   3.606   4.201 -0.0858 -0.4187  0.3037
18361SOL    HW155864   6.983   3.613   4.105  0.8591 -0.1499  0.2525
18361SOL    HW255865   6.968   3.694   4.233  0.8663 -0.1740  0.2690
18362SOL     OW55866   5.504   7.013   0.312  0.7250  0.0302  0.0202
18362SOL    HW155867   5.580   7.059   0.277  0.1175  0.6537 -0.5131
18362SOL    HW255868   5.462   7.076   0.370  0.8330 -0.4495  0.6315
18363SOL     OW55869   0.073   1.416   6.506 -0.2045  0.6359  0.2877
18363SOL    HW155870  -0.008   1.463   6.526 -0.3953  0.1437  0.7111
18363SOL    HW255871   0.112   1.465   6.434 -2.1377 -0.5028 -1.6774
18364SOL     OW55872   7.774   2.671   2.837 -0.2878 -0.4137 -0.4826
18364SOL    HW155873   7.684   2.693   2.812  0.2907  1.3237 -1.1530
18364SOL    HW255874   7.764   2.604   2.905 -2.0949  0.0709 -0.2207
18365SOL     OW55875   8.244   2.710   4.760  0.5344  0.4772 -0.0915
18365SOL    HW155876   8.193   2.791   4.750 -1.6585 -0.7545  0.4551
18365SOL    HW255877   8.184   2.640   4.735  2.0711 -1.0650  0.3174
18366SOL     OW55878   5.079   7.599   2.954 -0.6386 -0.2095 -0.2299
18366SOL    HW155879   5.052   7.641   2.872 -0.1413 -1.5833 -1.1239
18366SOL    HW255880   5.172   7.621   2.962 -0.6230 -0.3010 -0.1633
18367SOL     OW55881   0.654   7.437   0.748 -0.4446  0.0030 -0.1723
18367SOL    HW155882   0.671   7.466   0.838 -1.3414 -0.7224  0.2465
18367SOL    HW255883   0.570   7.391   0.754  0.7429 -2.3625 -0.8778
18368SOL     OW55884   3.045   1.066   3.192  0.5000 -0.2761 -0.4135
18368SOL    HW155885   2.992   1.011   3.249 -1.7343  1.2065 -0.9218
18368SOL    HW255886   3.052   1.017   3.110 -0.4327 -0.3461 -0.4588
18369SOL     OW55887   0.254   6.470   2.026  0.0390  0.1607  0.3882
18369SOL    HW155888   0.228   6.378   2.023 -1.3950  0.5594 -0.8388
18369SOL    HW255889   0.172   6.518   2.039  0.8625  1.2486  1.9284
18370SOL     OW55890   4.991   2.018   7.770  0.0649  0.2007  0.1377
18370SOL    HW155891   5.036   2.071   7.704 -1.0740  0.4438 -0.4693
18370SOL    HW255892   4.919   1.978   7.723 -0.0098 -0.6613  0.9592
18371SOL     OW55893   0.924   1.177   0.318 -0.0379  0.0290  0.0651
18371SOL    HW155894   0.864   1.245   0.288 -2.9971 -1.4288  2.1795
18371SOL    HW255895   0.951   1.206   0.406  0.3210 -0.5673  0.1549
18372SOL     OW55896   0.845   7.784   0.022 -0.2492 -0.1730  0.7459
18372SOL    HW155897   0.870   7.711  -0.035 -0.3270  1.3207 -1.3227
18372SOL    HW255898   0.789   7.744   0.089  1.3736 -2.3160  0.9588
18373SOL     OW55899   8.282   2.030   1.202 -1.0679  0.5515 -0.2500
18373SOL    HW155900   8.284   1.989   1.288  1.6151 -1.5512 -1.1895
18373SOL    HW255901   8.244   2.117   1.217 -0.5183  0.3150  3.0593
18374SOL     OW55902   5.887   8.121   7.067  0.0621  0.2372  0.7623
18374SOL    HW155903   5.851   8.174   7.137  1.5783 -0.2688  1.9699
18374SOL    HW255904   5.834   8.041   7.067 -3.4695  2.2337 -2.2656
18375SOL     OW55905   5.941   2.869   7.945 -0.2977  0.5138 -0.0476
18375SOL    HW155906   6.028   2.893   7.914  0.5681 -0.5687  1.4118
18375SOL    HW255907   5.922   2.931   8.015 -1.1551  1.3712 -1.0114
18376SOL     OW55908   0.944   3.113   4.924 -0.0150 -0.2097 -0.1553
18376SOL    HW155909   0.985   3.029   4.903 -1.6133 -0.8042 -1.0902
18376SOL    HW255910   0.860   3.111   4.878 -0.9859  1.0610  1.4416
18377SOL     OW55911   2.282   4.988   0.086 -0.5339  0.6459 -0.3338
18377SOL    HW155912   2.198   5.034   0.088 -0.1895  1.2676  0.0776
18377SOL    HW255913   2.260   4.897   0.105 -0.9574  1.0515  1.2387
18378SOL     OW55914   7.534   4.267   4.506 -0.4424 -0.1773 -0.2031
18378SOL    HW155915   7.518   4.178   4.537 -0.7981 -0.8416 -2.1754
18378SOL    HW255916   7.601   4.257   4.438 -0.5177  1.0549 -0.4815
18379SOL     OW55917   6.242   2.528   3.988  0.0572 -0.2682  0.7367
18379SOL    HW155918   6.313   2.468   4.011  0.1489 -0.2684  0.4530
18379SOL    HW255919   6.224   2.575   4.069  2.2594  1.7035  0.1936
18380SOL     OW55920   5.954   5.002   1.263 -0.3165  0.8900 -0.6825
18380SOL    HW155921   6.002   5.032   1.185  2.1581 -0.3204  0.2689
18380SOL    HW255922   5.990   5.054   1.335 -1.1484  0.6183 -0.0510
18381SOL     OW55923   7.466   8.174   6.503  0.1280 -0.0092 -0.7238
18381SOL    HW155924   7.561   8.170   6.491 -0.0581 -0.4085 -2.2493
18381SOL    HW255925   7.443   8.264   6.479 -0.0726 -0.4032 -2.0683
18382SOL     OW55926   7.484   7.380   6.396  0.0569  0.9684 -0.2260
18382SOL    HW155927   7.480   7.289   6.367 -0.7098  0.9530 -0.0884
18382SOL    HW255928   7.411   7.389   6.458  1.4730  1.0651  1.5201
18383SOL     OW55929   0.297   1.755   5.454 -0.2753  0.1590  0.5448
18383SOL    HW155930   0.217   1.705   5.472 -0.1038  0.1264  1.2400
18383SOL    HW255931   0.301   1.821   5.523  0.2583  0.2130  0.4697
18384SOL     OW55932   0.855   5.986   2.857 -0.0083 -0.2492  0.3838
18384SOL    HW155933   0.913   5.911   2.842 -0.3221 -1.5312  4.5843
18384SOL    HW255934   0.780   5.970   2.800  1.5845 -1.0159 -1.6355
18385SOL     OW55935   2.259   0.745   6.115 -0.0794  0.0420  0.1713
18385SOL    HW155936   2.347   0.762   6.148  1.5201  0.1131 -3.5784
18385SOL    HW255937   2.254   0.650   6.109  0.1107  0.0630 -0.3991
18386SOL     OW55938   7.124   6.003   1.614 -0.1305 -0.8604  0.5981
18386SOL    HW155939   7.147   6.090   1.647  0.9420 -1.1759  0.7454
18386SOL    HW255940   7.044   5.980   1.660 -0.1118 -0.1855  0.9880
18387SOL     OW55941   2.093   6.700   2.364 -0.0088  0.1140  0.0729
18387SOL    HW155942   2.152   6.650   2.421 -0.7917 -1.9017 -0.7759
18387SOL    HW255943   2.136   6.785   2.354  1.3693 -0.3335  1.6489
18388SOL     OW55944   1.506   4.160   8.000 -0.4141 -0.1552 -0.4441
18388SOL    HW155945   1.569   4.227   8.025  0.8094 -1.1413 -0.8320
18388SOL    HW255946   1.559   4.086   7.970 -1.7404 -1.2252 -0.2410
18389SOL     OW55947   4.535   6.096   1.587 -0.0048  0.1321  0.1671
18389SOL    HW155948   4.563   6.041   1.514 -2.5812 -0.4369 -0.5209
18389SOL    HW255949   4.528   6.184   1.550 -2.6295 -0.3769 -0.8024
18390SOL     OW55950   7.061   0.421   2.473 -0.1401 -0.1207  0.2825
18390SOL    HW155951   7.005   0.359   2.426 -0.8945 -0.1402  1.1745
18390SOL    HW255952   7.142   0.372   2.490 -0.2384 -0.4338 -0.1242
18391SOL     OW55953   7.400   6.250   0.404  0.3715  0.1796  0.0934
18391SOL    HW155954   7.337   6.321   0.422  1.5721  0.7643  2.5371
18391SOL    HW255955   7.359   6.198   0.336 -1.9597  1.5226  0.3557
18392SOL     OW55956   3.616   4.298   0.644  0.3811  0.6618 -0.0335
18392SOL    HW155957   3.668   4.314   0.566  0.4096  0.7801  0.0101
18392SOL    HW255958   3.680   4.280   0.713  0.3361 -1.9871 -0.5734
18393SOL     OW55959   1.207   4.781   7.163  0.1749  0.1641 -0.0886
18393SOL    HW155960   1.171   4.753   7.078  1.4597 -0.0123 -0.6084
18393SOL    HW255961   1.205   4.876   7.160  1.6837  0.2115 -1.0360
18394SOL     OW55962   7.274   4.021   8.022 -0.0092  0.2322  0.4710
18394SOL    HW155963   7.246   4.003   8.111  2.0970  0.2687  1.1792
18394SOL    HW255964   7.352   3.968   8.009  1.5585  2.5385 -0.2393
18395SOL     OW55965   3.860   5.644   7.982 -0.2547 -0.1582 -0.1070
18395SOL    HW155966   3.944   5.655   7.937 -0.9526 -0.6204 -1.5754
18395SOL    HW255967   3.879   5.581   8.052  1.0457  1.2259  0.8583
18396SOL     OW55968   2.599   1.864   7.458  0.6193  0.3000 -0.1364
18396SOL    HW155969   2.673   1.807   7.435  0.9214  0.1955  1.0434
18396SOL    HW255970   2.554   1.879   7.375  1.0630 -0.9237 -0.6242
18397SOL     OW55971   0.961   5.495   1.789  0.3587  0.4017  0.1468
18397SOL    HW155972   1.024   5.430   1.819 -0.8332  0.2796  2.5753
18397SOL    HW255973   0.979   5.573   1.842  1.4710  2.0249 -2.3957
18398SOL     OW55974   5.621   5.127   5.855 -0.1815 -0.6074 -0.1306
18398SOL    HW155975   5.641   5.087   5.770 -0.4492  1.0092 -0.9914
18398SOL    HW255976   5.655   5.064   5.919  1.2523 -1.2436 -1.4376
18399SOL     OW55977   2.313   2.849   5.313  0.6182  0.0159  0.1244
18399SOL    HW155978   2.320   2.877   5.404 -1.5848  0.0382  0.3444
18399SOL    HW255979   2.262   2.768   5.317 -0.0756  0.3678 -1.1216
18400SOL     OW55980   1.094   2.896   6.975  0.3195  0.8235  0.2572
18400SOL    HW155981   1.025   2.834   6.951 -1.8548  3.8427 -2.0055
18400SOL    HW255982   1.078   2.915   7.068 -2.0620  1.5293 -0.2348
18401SOL     OW55983   4.808   7.496   6.094  0.0438  0.1911 -0.0730
18401SOL    HW155984   4.748   7.566   6.120  0.7325  1.0900 -0.8573
18401SOL    HW255985   4.781   7.421   6.148 -1.0921  0.8704  0.3508
18402SOL     OW55986   6.501   6.240   4.605 -0.6176  0.3268  0.1163
18402SOL    HW155987   6.551   6.190   4.670 -0.8187 -0.2482 -0.1655
18402SOL    HW255988   6.540   6.328   4.607  0.2795 -0.0542  0.0371
18403SOL     OW55989   2.435   1.236   6.779  0.5690  0.0506 -0.4007
18403SOL    HW155990   2.512   1.197   6.820  1.8764  3.9293  1.3406
18403SOL    HW255991   2.470   1.309   6.727 -1.7737  0.3068 -1.7543
18404SOL     OW55992   3.230   1.753   2.213  0.0345 -0.5025  0.2421
18404SOL    HW155993   3.219   1.817   2.283  0.2472  1.0837 -1.1059
18404SOL    HW255994   3.140   1.737   2.183 -0.1248 -1.7241  1.2986
18405SOL     OW55995   5.222   6.155   0.938 -0.5835 -0.0291  0.0076
18405SOL    HW155996   5.293   6.216   0.919  0.8642 -1.2241  1.2478
18405SOL    HW255997   5.163   6.204   0.996 -0.1492  0.6126 -0.0810
18406SOL     OW55998   2.964   1.614   1.323  0.0883  0.0211  0.6798
18406SOL    HW155999   3.043   1.563   1.338  0.4152  0.9569  2.4607
18406SOL    HW256000   2.901   1.552   1.286  0.5703 -1.6110  2.4333
18407SOL     OW56001   6.670   7.044   6.237  0.3834  0.7619 -0.1301
18407SOL    HW156002   6.739   6.981   6.216 -0.4966 -0.1037 -0.5490
18407SOL    HW256003   6.594   6.989   6.259 -0.7945  1.6297 -1.7905
18408SOL     OW56004   6.095   0.081   3.554  0.2038 -0.4388  0.2187
18408SOL    HW156005   6.181   0.121   3.543 -1.2341  3.5879  1.6720
18408SOL    HW256006   6.050   0.094   3.470  0.2017 -0.2791  0.2448
18409SOL     OW56007   7.108   5.604   6.284 -0.3578 -0.1754  0.2325
18409SOL    HW156008   7.107   5.509   6.284 -0.3710 -0.1891 -0.8896
18409SOL    HW256009   7.054   5.629   6.359 -0.8417 -1.0541  0.1865
18410SOL     OW56010   5.940   2.613   8.041 -0.4655 -0.7442  0.4322
18410SOL    HW156011   5.974   2.699   8.017 -2.0449 -0.8698 -2.8053
18410SOL    HW256012   5.876   2.631   8.110 -1.1215  0.7657 -0.5193
18411SOL     OW56013   6.193   6.585   5.093 -0.1187  0.8487  0.0476
18411SOL    HW156014   6.256   6.603   5.163 -0.4716 -0.4513  0.7303
18411SOL    HW256015   6.247   6.564   5.017  0.2644  1.0121  0.2711
18412SOL     OW56016   1.786   6.923   5.934  0.4313  0.1595  0.1619
18412SOL    HW156017   1.805   6.993   5.873  1.6040  0.8689  1.2886
18412SOL    HW256018   1.691   6.916   5.935  0.3186  1.4487 -0.2932
18413SOL     OW56019   5.769   5.378   2.123  0.2725  0.2576  0.0553
18413SOL    HW156020   5.827   5.376   2.047  1.7165 -1.8687  1.1448
18413SOL    HW256021   5.783   5.295   2.167 -3.6389 -0.4048  0.4246
18414SOL     OW56022   3.585   5.583   5.985  0.3733 -0.3363  0.8359
18414SOL    HW156023   3.621   5.514   6.040  0.6725 -1.1021 -0.2675
18414SOL    HW256024   3.651   5.652   5.986 -0.1669  0.1881  2.3754
18415SOL     OW56025   8.168   3.247   6.177  0.1036  0.1154 -0.1518
18415SOL    HW156026   8.164   3.153   6.156 -0.8743  0.3602 -1.1626
18415SOL    HW256027   8.181   3.250   6.272 -0.6107 -1.0406  0.0002
18416SOL     OW56028   8.215   7.479   1.040 -0.1593  0.3264 -0.0359
18416SOL    HW156029   8.302   7.460   1.075  0.6454  2.1241 -0.9517
18416SOL    HW256030   8.155   7.448   1.109  1.1861 -0.5961  0.7788
18417SOL     OW56031   1.134   3.146   4.250  0.7891  0.5605 -0.0761
18417SOL    HW156032   1.048   3.180   4.228  0.1996 -0.2719  0.8753
18417SOL    HW256033   1.188   3.166   4.173  0.1474  2.3911 -0.1113
18418SOL     OW56034   1.662   4.396   8.024 -0.8344  0.1592 -0.0882
18418SOL    HW156035   1.708   4.429   8.101 -2.0581 -0.1005  0.7896
18418SOL    HW256036   1.725   4.405   7.953  0.3969  0.2429  0.9670
18419SOL     OW56037   6.708   5.652   6.878  0.1767 -0.0975  0.1359
18419SOL    HW156038   6.799   5.671   6.897  0.4567 -0.7216 -0.5486
18419SOL    HW256039   6.666   5.738   6.875  0.8024  0.2133  0.1403
18420SOL     OW56040   0.912   5.401   5.080  0.7787  0.0095 -0.1786
18420SOL    HW156041   0.848   5.464   5.046 -1.1653 -0.9098  1.5343
18420SOL    HW256042   0.893   5.320   5.032 -0.2091 -0.5823  1.1455
18421SOL     OW56043   5.404   3.373   2.504  0.7333  0.0282  0.1405
18421SOL    HW156044   5.455   3.392   2.583  0.0931 -0.5878  0.7151
18421SOL    HW256045   5.374   3.283   2.516  1.2871 -0.3660 -1.1750
18422SOL     OW56046   7.698   2.824   6.518  0.0255  0.5485  0.3609
18422SOL    HW156047   7.756   2.748   6.524 -0.6107 -0.1064 -1.1777
18422SOL    HW256048   7.737   2.878   6.449 -0.0629  1.1496  0.7740
18423SOL     OW56049   5.762   6.824   2.661 -0.5920 -0.0337 -0.0495
18423SOL    HW156050   5.814   6.756   2.704 -2.4262 -3.6104 -2.9084
18423SOL    HW256051   5.827   6.880   2.618  0.9816 -0.6605  1.4112
18424SOL     OW56052   8.035   7.924   7.424  0.6986 -0.2698 -0.0610
18424SOL    HW156053   8.053   7.831   7.438 -0.9460 -0.6845 -0.4831
18424SOL    HW256054   7.985   7.950   7.501 -0.3709 -0.2064 -0.7557
18425SOL     OW56055   5.744   2.044   5.193 -0.4521  0.9199  0.1528
18425SOL    HW156056   5.828   2.006   5.167 -0.9531 -1.8633  2.1929
18425SOL    HW256057   5.678   1.989   5.150 -1.2125  0.2163  2.1136
18426SOL     OW56058   5.540   3.797   8.008 -0.3215  0.1418 -0.2195
18426SOL    HW156059   5.607   3.762   8.067 -2.0402 -0.4449  1.5010
18426SOL    HW256060   5.546   3.892   8.019 -0.3629  0.0576  0.6474
18427SOL     OW56061   1.844   0.761   3.380  0.4482 -0.3603 -0.3199
18427SOL    HW156062   1.760   0.715   3.391 -0.1008  0.7035  0.0732
18427SOL    HW256063   1.903   0.717   3.440 -0.2821 -0.0780  0.6324
18428SOL     OW56064   3.112   8.230   7.777 -0.0347 -0.0726  0.0678
18428SOL    HW156065   3.166   8.229   7.697  0.8534  2.1461  0.5529
18428SOL    HW256066   3.023   8.214   7.746  0.0886  2.0545 -1.5972
18429SOL     OW56067   5.430   1.015   5.125  0.0622  0.5511 -0.2810
18429SOL    HW156068   5.338   0.990   5.133  0.2407 -0.3662 -1.0292
18429SOL    HW256069   5.455   0.988   5.037  1.2343  0.2072  0.1457
18430SOL     OW56070   3.119   7.443   8.323 -0.3766  1.1474  0.2974
18430SOL    HW156071   3.134   7.350   8.341  1.2512  1.4856  0.9030
18430SOL    HW256072   3.038   7.445   8.272 -0.3580 -0.6093  0.1271
18431SOL     OW56073   7.133   2.403   0.684  0.0272  0.0212 -0.0212
18431SOL    HW156074   7.228   2.406   0.697  0.1853 -1.6686 -0.5516
18431SOL    HW256075   7.118   2.447   0.600  0.5821 -1.4295 -0.9033
18432SOL     OW56076   2.214   2.298   7.847 -0.0158  0.0149 -0.4550
18432SOL    HW156077   2.233   2.208   7.876  0.5554 -0.3704 -1.9341
18432SOL    HW256078   2.287   2.349   7.881  1.6697 -0.7615 -2.6359
18433SOL     OW56079   5.367   4.973   6.127  0.1165 -0.0995  0.0096
18433SOL    HW156080   5.337   5.028   6.199  0.1628 -0.8582  0.6290
18433SOL    HW256081   5.382   5.033   6.055  0.8022  0.7840  0.8608
18434SOL     OW56082   1.698   8.264   7.362 -0.1755 -0.3029 -0.0119
18434SOL    HW156083   1.785   8.291   7.334  0.2364 -1.1075  0.4729
18434SOL    HW256084   1.639   8.326   7.319  0.5937 -0.0657 -0.7527
18435SOL     OW56085   0.229   7.565   7.888 -0.1329  0.5811  0.1265
18435SOL    HW156086   0.275   7.583   7.806  2.6845 -0.2268  1.3952
18435SOL    HW256087   0.182   7.484   7.872  0.5767  0.3115 -0.6719
18436SOL     OW56088   1.229   7.236   3.421  0.1420 -0.0371 -0.0331
18436SOL    HW156089   1.235   7.234   3.326 -0.1794 -1.5831 -0.0532
18436SOL    HW256090   1.221   7.144   3.447  0.9388  0.2941  1.5417
18437SOL     OW56091   6.823   1.833   7.557 -0.2988 -0.2752 -0.0368
18437SOL    HW156092   6.817   1.923   7.589  0.2760 -0.1680 -0.2158
18437SOL    HW256093   6.742   1.819   7.509  1.1014  1.4186 -3.1822
18438SOL     OW56094   5.317   0.506   5.984  0.1360  0.4784  0.4110
18438SOL    HW156095   5.385   0.530   6.048  1.3777  0.6956 -0.9371
18438SOL    HW256096   5.317   0.410   5.985 -0.0557  0.4800  0.9394
18439SOL     OW56097   7.717   5.578   3.527  0.2807  0.0218  0.2512
18439SOL    HW156098   7.625   5.592   3.546  0.1838  0.2037 -0.3217
18439SOL    HW256099   7.725   5.483   3.517 -0.2125  0.1290 -1.4292
18440SOL     OW56100   0.750   4.298   7.369 -0.2163 -0.5481 -0.0386
18440SOL    HW156101   0.826   4.240   7.372 -1.2535 -1.9052  1.4592
18440SOL    HW256102   0.710   4.281   7.283  1.8668  1.2393 -1.4833
18441SOL     OW56103   6.365   3.048   7.517  0.0033 -0.2444 -0.2318
18441SOL    HW156104   6.411   2.983   7.571  0.3329  0.4203  0.3171
18441SOL    HW256105   6.419   3.055   7.438  0.9464  0.6022  0.4498
18442SOL     OW56106   0.586   7.632   1.971 -0.6475 -0.3858 -0.1940
18442SOL    HW156107   0.556   7.702   1.913  0.6992  2.0024  1.7980
18442SOL    HW256108   0.668   7.602   1.932 -0.5645  0.0682 -0.3657
18443SOL     OW56109   4.212   5.991   4.924 -0.3689 -0.3127 -0.3412
18443SOL    HW156110   4.278   5.975   4.856 -1.2647  0.2235 -1.3680
18443SOL    HW256111   4.231   6.080   4.954  0.4314 -0.7865  0.5891
18444SOL     OW56112   1.594   7.483   5.587  0.0590 -0.4407 -0.6132
18444SOL    HW156113   1.686   7.468   5.566 -0.2489 -1.5285 -1.2129
18444SOL    HW256114   1.572   7.416   5.651 -0.0864  0.3889  0.2344
18445SOL     OW56115   6.538   4.009   4.307  0.1932  0.2185 -0.5568
18445SOL    HW156116   6.546   4.100   4.279  0.1950 -0.5910 -3.5385
18445SOL    HW256117   6.444   3.991   4.301  0.1495  0.0622  0.3532
18446SOL     OW56118   5.103   1.070   2.466  0.4604 -0.3122  0.1054
18446SOL    HW156119   5.113   1.126   2.543  0.0520  1.6841 -1.2156
18446SOL    HW256120   5.131   1.124   2.393 -0.5027 -1.6595 -1.3339
18447SOL     OW56121   4.745   7.523   7.822 -0.3173 -0.1870 -0.2877
18447SOL    HW156122   4.777   7.501   7.910 -1.4891  0.5240  0.3494
18447SOL    HW256123   4.681   7.592   7.837 -0.6613 -0.1724 -1.7013
18448SOL     OW56124   0.623   0.595   4.189  0.2621  0.0617  0.2768
18448SOL    HW156125   0.616   0.689   4.208  0.1811  0.1367 -0.1136
18448SOL    HW256126   0.564   0.553   4.253 -1.6024  0.4681 -1.0828
18449SOL     OW56127   1.859   5.434   3.602 -1.1694  0.3248  0.2486
18449SOL    HW156128   1.929   5.460   3.662 -0.7573 -2.2992  1.0283
18449SOL    HW256129   1.780   5.430   3.656 -1.0266 -0.9069  0.3998
18450SOL     OW56130   8.189   6.389   7.761 -0.4129  0.3801  0.3418
18450SOL    HW156131   8.266   6.415   7.711 -0.7241 -1.3549 -1.1405
18450SOL    HW256132   8.117   6.393   7.698 -1.4894  1.5120  1.5814
18451SOL     OW56133   3.275   5.474   5.486  0.3249 -0.0019 -0.1782
18451SOL    HW156134   3.210   5.539   5.461 -0.6580 -1.1688 -0.7646
18451SOL    HW256135   3.262   5.461   5.580  1.4967  1.6377  0.2735
18452SOL     OW56136   1.885   1.595   7.248 -0.1712  0.9058  0.0111
18452SOL    HW156137   1.845   1.653   7.312  0.8254  0.3319  1.1906
18452SOL    HW256138   1.823   1.523   7.239 -0.3968  1.0766  0.1992
18453SOL     OW56139   1.349   3.470   4.353  0.1712  0.1606  0.0240
18453SOL    HW156140   1.404   3.402   4.393 -1.1237 -0.1456  1.3863
18453SOL    HW256141   1.410   3.541   4.334  1.0673 -0.1149  1.6078
18454SOL     OW56142   7.069   4.863   8.020 -0.1688  0.3300  0.3051
18454SOL    HW156143   7.045   4.811   7.944 -1.1996 -1.1131  1.5516
18454SOL    HW256144   7.165   4.858   8.023 -0.1946 -0.7239 -0.1602
18455SOL     OW56145   5.778   1.247   0.371  0.2049  0.0385 -0.4354
18455SOL    HW156146   5.872   1.249   0.354  0.7629  0.1321  2.1669
18455SOL    HW256147   5.740   1.303   0.303  2.3511  2.2201  0.0033
18456SOL     OW56148   2.915   4.315   3.347 -0.5669  0.4027  0.4205
18456SOL    HW156149   2.849   4.322   3.415  0.0416 -0.3929  1.1190
18456SOL    HW256150   2.906   4.396   3.296 -2.1681  0.2318  0.3865
18457SOL     OW56151   7.601   2.822   7.955 -0.0252 -0.0742 -0.3370
18457SOL    HW156152   7.601   2.726   7.958 -0.2398 -0.0759 -0.3483
18457SOL    HW256153   7.580   2.848   8.044 -1.5704 -0.0608 -0.6825
18458SOL     OW56154   3.214   8.271   4.640  0.0778 -0.0339  0.0721
18458SOL    HW156155   3.304   8.251   4.614  0.0641 -1.0522  0.7235
18458SOL    HW256156   3.183   8.190   4.681 -1.0868  0.3561 -0.0103
18459SOL     OW56157   7.885   4.930   0.995 -0.1829  0.5572 -0.3683
18459SOL    HW156158   7.936   4.854   0.967 -1.7873 -1.1908  1.1663
18459SOL    HW256159   7.902   4.997   0.928  2.3487 -0.6440 -1.0545
18460SOL     OW56160   2.557   5.083   2.212 -0.4457 -0.1079 -0.3958
18460SOL    HW156161   2.481   5.080   2.153 -0.6303 -2.4069 -0.1336
18460SOL    HW256162   2.624   5.030   2.168 -0.1488 -0.8088  0.8487
18461SOL     OW56163   6.903   6.006   2.204 -0.8621  0.0437 -0.0939
18461SOL    HW156164   6.866   6.094   2.192  0.0730  0.3134 -1.1088
18461SOL    HW256165   6.924   5.976   2.116  2.4515  0.3993  0.4648
18462SOL     OW56166   5.669   2.882   3.843 -0.5373 -0.5513 -0.2934
18462SOL    HW156167   5.626   2.896   3.759 -0.7115  0.0771 -0.1001
18462SOL    HW256168   5.756   2.920   3.833 -0.8868  0.3805  0.1133
18463SOL     OW56169   3.362   4.136   4.199 -0.1340  0.2943 -0.0649
18463SOL    HW156170   3.338   4.226   4.220  0.3222  0.2127  0.8275
18463SOL    HW256171   3.329   4.123   4.110 -0.5543  1.2098 -0.0533
18464SOL     OW56172   5.390   6.130   1.291 -0.3148 -0.9655  0.3796
18464SOL    HW156173   5.339   6.132   1.372 -0.1575 -2.5374  0.5526
18464SOL    HW256174   5.422   6.040   1.285 -0.0561 -0.7966 -1.2741
18465SOL     OW56175   2.819   8.163   8.283 -0.3107  0.1215  0.0323
18465SOL    HW156176   2.864   8.176   8.367  0.1187  2.5319 -0.4919
18465SOL    HW256177   2.860   8.228   8.225 -2.0371 -0.0751 -1.4557
18466SOL     OW56178   5.179   6.852   5.975 -0.0153  0.2408 -0.1503
18466SOL    HW156179   5.267   6.824   5.999 -0.2956 -0.9902 -0.4786
18466SOL    HW256180   5.187   6.883   5.885  0.3541  1.5443  0.3113
18467SOL     OW56181   3.578   7.095   2.542  0.3385  0.1822 -0.7313
18467SOL    HW156182   3.547   7.017   2.587  1.8542 -0.2582 -0.4029
18467SOL    HW256183   3.565   7.075   2.449 -0.8503  0.2540 -0.6024
18468SOL     OW56184   5.514   5.956   2.847  0.0557 -0.2367 -0.2284
18468SOL    HW156185   5.557   5.908   2.917  0.5313 -0.1125 -0.4357
18468SOL    HW256186   5.515   6.047   2.874 -0.9165 -0.3362  0.2007
18469SOL     OW56187   4.786   4.020   5.917 -0.4014  0.0698  0.1184
18469SOL    HW156188   4.820   4.023   6.006  0.9800  1.9220 -0.4180
18469SOL    HW256189   4.756   4.109   5.899 -1.2833 -0.4299 -1.0452
18470SOL     OW56190   3.610   0.774   1.853  0.4211 -0.5981 -0.0015
18470SOL    HW156191   3.566   0.704   1.902  0.0617 -0.6172 -0.3491
18470SOL    HW256192   3.648   0.729   1.777 -2.8634  0.0369 -2.2680
18471SOL     OW56193   7.967   4.318   0.869  0.0979 -0.6479  0.6072
18471SOL    HW156194   7.872   4.330   0.860  0.0171 -1.2908  0.5416
18471SOL    HW256195   7.987   4.242   0.815  0.7032 -0.3331  0.3798
18472SOL     OW56196   7.372   5.472   3.999 -0.2868 -0.2706 -0.0195
18472SOL    HW156197   7.323   5.510   4.072 -1.1888 -0.3585 -0.5650
18472SOL    HW256198   7.329   5.506   3.921  1.3889  0.7552 -0.5503
18473SOL     OW56199   5.707   6.217   2.756  0.2796  0.4226  0.0623
18473SOL    HW156200   5.694   6.164   2.677  2.5143 -1.0740  0.6015
18473SOL    HW256201   5.619   6.232   2.790 -0.5290 -1.8628 -0.8517
18474SOL     OW56202   5.552   3.999   5.792  0.1034  0.3486  0.0323
18474SOL    HW156203   5.503   4.064   5.740  1.9144  1.3256 -0.5352
18474SOL    HW256204   5.630   3.980   5.740  0.8690 -0.3541  1.3812
18475SOL     OW56205   1.379   2.791   7.432 -0.3906 -0.0216 -0.2700
18475SOL    HW156206   1.345   2.713   7.477  0.1320 -0.3188 -0.3771
18475SOL    HW256207   1.368   2.771   7.339 -1.3093  0.5186 -0.2836
18476SOL     OW56208   6.501   5.522   7.649 -0.3951  0.3354 -0.2576
18476SOL    HW156209   6.519   5.432   7.622  0.0285  0.9070 -2.0030
18476SOL    HW256210   6.422   5.547   7.599 -0.4475  0.9654  0.1295
18477SOL     OW56211   6.016   2.134   7.890 -0.2288  0.7357  0.3289
18477SOL    HW156212   5.972   2.052   7.912  1.0010  0.2060  0.9097
18477SOL    HW256213   5.946   2.199   7.889 -1.4556 -0.5152 -1.5133
18478SOL     OW56214   3.323   1.547   8.286  0.4906 -0.7584  0.2819
18478SOL    HW156215   3.260   1.566   8.356 -0.9622  0.5987 -1.2846
18478SOL    HW256216   3.280   1.480   8.232  1.2631 -1.2443  0.2485
18479SOL     OW56217   4.281   5.224   6.842  0.1806  0.2773  1.0429
18479SOL    HW156218   4.331   5.183   6.772  1.0163  1.1179  1.1152
18479SOL    HW256219   4.197   5.247   6.803  0.9491  1.5121  0.0593
18480SOL     OW56220   7.156   0.101   0.599  0.4430 -0.2872 -0.1611
18480SOL    HW156221   7.069   0.070   0.623  0.0623 -0.0369 -1.1651
18480SOL    HW256222   7.208   0.093   0.679 -0.5868 -0.1155  0.5325
18481SOL     OW56223   1.528   2.827   3.961  0.3442 -0.0561 -0.1813
18481SOL    HW156224   1.543   2.791   4.048  0.5385 -0.4914 -0.3915
18481SOL    HW256225   1.435   2.812   3.945  0.0366  1.0809  0.4191
18482SOL     OW56226   3.240   5.022   4.791 -0.2095 -0.1393  0.6023
18482SOL    HW156227   3.312   5.001   4.732  1.6612  0.5140  2.5311
18482SOL    HW256228   3.219   4.940   4.834  0.0079 -0.1363  0.7117
18483SOL     OW56229   0.571   2.406   5.739  0.2738 -0.0410  0.0932
18483SOL    HW156230   0.666   2.399   5.726  0.4022 -0.0077  0.9227
18483SOL    HW256231   0.557   2.375   5.829 -0.2179  2.1068  0.8166
18484SOL     OW56232   2.067   2.012   3.942 -0.0453 -0.3543 -0.3995
18484SOL    HW156233   2.057   2.106   3.926  1.6108 -0.4065 -2.1002
18484SOL    HW256234   2.133   2.006   4.011  0.5048 -0.2775 -0.9175
18485SOL     OW56235   2.677   4.097   2.441  0.2412  0.6095  0.4762
18485SOL    HW156236   2.731   4.173   2.462  0.7687  1.0824 -2.1642
18485SOL    HW256237   2.732   4.021   2.461  0.4670  0.9709  1.2431
18486SOL     OW56238   7.207   2.253   6.254  0.6175  0.2304 -0.3362
18486SOL    HW156239   7.212   2.176   6.197 -0.9576  0.3444 -0.6660
18486SOL    HW256240   7.138   2.232   6.316  0.5194  1.1817 -0.1180
18487SOL     OW56241   1.641   0.741   5.989  0.3358 -0.1782  0.0228
18487SOL    HW156242   1.654   0.648   5.970  0.4085 -0.2087  0.2229
18487SOL    HW256243   1.714   0.764   6.046  2.1708  0.7515 -2.5091
18488SOL     OW56244   5.977   6.273   5.391 -0.6297  0.3068  0.0602
18488SOL    HW156245   5.966   6.233   5.477  0.2803 -0.9727 -0.3807
18488SOL    HW256246   6.068   6.255   5.368 -1.2374 -0.6554 -1.7848
18489SOL     OW56247   3.431   2.478   7.383  0.1274 -0.4816  0.7434
18489SOL    HW156248   3.367   2.496   7.451  0.0403 -2.9712  1.4165
18489SOL    HW256249   3.448   2.563   7.342 -0.8823  0.8313  2.9142
18490SOL     OW56250   1.179   7.013   1.475  0.5424 -0.0140 -0.2272
18490SOL    HW156251   1.219   6.952   1.413 -0.0759 -0.0047 -0.6447
18490SOL    HW256252   1.085   7.005   1.459  0.0241 -2.5948  3.0621
18491SOL     OW56253   3.811   0.728   1.443  0.0765 -0.0168 -0.2813
18491SOL    HW156254   3.905   0.743   1.432  0.1804 -0.0064  0.5554
18491SOL    HW256255   3.783   0.690   1.360  0.9954 -0.8772 -0.2122
18492SOL     OW56256   7.068   7.126   1.235 -0.4043  0.2380 -0.5996
18492SOL    HW156257   7.152   7.150   1.196  0.6145 -0.2945  1.1523
18492SOL    HW256258   7.013   7.203   1.223  0.5390  0.8455 -1.2050
18493SOL     OW56259   1.446   0.869   2.532  0.0709 -0.1726 -0.8079
18493SOL    HW156260   1.501   0.825   2.467  0.7704 -0.0546 -0.3080
18493SOL    HW256261   1.370   0.812   2.542  0.5122 -0.7824 -0.8664
18494SOL     OW56262   7.544   5.354   2.986  0.8033  0.3827 -0.4676
18494SOL    HW156263   7.591   5.399   3.056  0.0852  0.3404  0.0527
18494SOL    HW256264   7.588   5.382   2.906  2.7541 -0.9188  0.0839
18495SOL     OW56265   5.653   3.818   0.513 -0.2529  0.4057 -0.0395
18495SOL    HW156266   5.673   3.862   0.595 -1.2186  0.6263  0.0899
18495SOL    HW256267   5.598   3.880   0.466  0.4456  0.3646 -0.9459
18496SOL     OW56268   3.385   5.465   2.992  0.1819  0.1887  0.0916
18496SOL    HW156269   3.319   5.533   2.984  0.5596  0.3761 -1.8821
18496SOL    HW256270   3.457   5.506   3.040 -0.1418  0.7589  0.0905
18497SOL     OW56271   2.364   0.635   1.013  0.2221 -0.1947 -0.1910
18497SOL    HW156272   2.382   0.618   0.920 -0.7155  0.1320 -0.4376
18497SOL    HW256273   2.448   0.666   1.048  0.3944  0.4047 -1.0985
18498SOL     OW56274   0.398   6.656   7.835  0.0801  0.0949  0.2953
18498SOL    HW156275   0.475   6.712   7.841  1.0066 -0.8754 -1.7333
18498SOL    HW256276   0.431   6.573   7.802 -1.9255 -0.0820 -1.4873
18499SOL     OW56277   3.602   1.774   1.463  0.0297  0.3575 -0.0643
18499SOL    HW156278   3.644   1.859   1.455  0.7506 -0.0432 -0.6798
18499SOL    HW256279   3.621   1.745   1.552 -1.7530  1.6086  0.7894
18500SOL     OW56280   4.478   6.978   1.658 -0.3831 -0.4398  0.3784
18500SOL    HW156281   4.463   6.935   1.574 -0.2301  0.6673 -0.2365
18500SOL    HW256282   4.535   7.052   1.637  1.0419 -1.1028  1.7179
18501SOL     OW56283   0.918   6.487   7.310 -0.5347 -0.0697 -0.0369
18501SOL    HW156284   0.861   6.424   7.268  2.2976 -2.4636 -0.5687
18501SOL    HW256285   1.007   6.461   7.286  1.0758  1.1073  3.7465
18502SOL     OW56286   5.211   5.658   5.650 -0.1836  0.6228 -0.4427
18502SOL    HW156287   5.282   5.707   5.691  0.6556  0.0076 -1.1151
18502SOL    HW256288   5.131   5.698   5.684  0.4530  0.3074  1.5628
18503SOL     OW56289   3.754   0.303   2.552  0.1916 -0.1358 -0.2310
18503SOL    HW156290   3.689   0.372   2.538  0.6227 -0.0401 -2.0254
18503SOL    HW256291   3.706   0.235   2.599 -0.9863  0.2661 -0.8088
18504SOL     OW56292   8.297   5.784   3.899  0.0350 -0.0241 -0.2673
18504SOL    HW156293   8.203   5.768   3.889 -0.1658  1.6216 -1.3668
18504SOL    HW256294   8.321   5.738   3.979 -1.8561  0.1859  0.4583
18505SOL     OW56295   4.307   5.558   3.891 -0.4394 -0.3591 -0.3361
18505SOL    HW156296   4.227   5.550   3.943  0.3198 -1.6806  0.7034
18505SOL    HW256297   4.369   5.603   3.949 -0.2803  0.2511 -0.9693
18506SOL     OW56298   3.595   2.792   7.315 -0.0297 -0.4879  0.1221
18506SOL    HW156299   3.529   2.806   7.247 -0.7960 -2.8419  0.3087
18506SOL    HW256300   3.676   2.774   7.268 -0.2949 -0.9340 -0.1677
18507SOL     OW56301   6.708   4.060   5.685  0.0640  0.4439 -0.3458
18507SOL    HW156302   6.773   4.047   5.616 -0.1738  1.2648 -0.7395
18507SOL    HW256303   6.672   4.147   5.668 -0.8940  0.1409  0.0770
18508SOL     OW56304   4.322   0.534   6.081 -0.2161 -0.4519 -0.3988
18508SOL    HW156305   4.305   0.618   6.038  0.1079 -0.9925 -1.6145
18508SOL    HW256306   4.406   0.505   6.046  0.8849 -0.1755  1.8204
18509SOL     OW56307   0.092   7.923   2.620 -0.6326 -0.3349  0.3383
18509SOL    HW156308   0.126   7.865   2.688 -0.9465 -1.3816 -0.3771
18509SOL    HW256309   0.008   7.885   2.596 -0.7973  0.3648 -0.2141
18510SOL     OW56310   5.273   0.097   6.432 -0.0677 -0.2687  0.1687
18510SOL    HW156311   5.257   0.078   6.340  0.5531 -1.8892  0.3734
18510SOL    HW256312   5.303   0.189   6.433 -2.8805  0.7388 -0.8776
18511SOL     OW56313   0.155   5.981   4.811 -0.1031 -0.4266  0.0556
18511SOL    HW156314   0.074   5.972   4.862 -0.9536 -0.7000 -1.2714
18511SOL    HW256315   0.163   6.075   4.795  0.1463 -0.3446  0.6478
18512SOL     OW56316   3.483   3.799   3.210 -0.2022 -0.4249 -0.4218
18512SOL    HW156317   3.488   3.819   3.303 -0.5536  0.0450 -0.4985
18512SOL    HW256318   3.462   3.883   3.169 -1.7672 -0.9379 -0.7532
18513SOL     OW56319   4.472   8.277   0.042 -0.2998 -0.0583 -0.1058
18513SOL    HW156320   4.381   8.304   0.050 -1.2479 -2.7620 -0.4460
18513SOL    HW256321   4.491   8.230   0.123  1.1537  1.3286  0.3976
18514SOL     OW56322   0.879   3.399   8.207 -0.0790 -0.0931  0.5890
18514SOL    HW156323   0.872   3.325   8.267 -1.0895  2.4464  3.8725
18514SOL    HW256324   0.789   3.429   8.195  0.4687  2.0301  1.3659
18515SOL     OW56325   7.331   7.203   1.032  0.3860 -0.0940  0.0393
18515SOL    HW156326   7.250   7.197   0.980 -0.0142 -0.9347  0.7504
18515SOL    HW256327   7.401   7.193   0.967 -0.1146 -1.8809 -0.2679
18516SOL     OW56328   2.463   5.777   5.683  0.0417  0.3406 -0.0057
18516SOL    HW156329   2.408   5.699   5.687  1.2531 -0.5394 -0.0489
18516SOL    HW256330   2.410   5.842   5.638 -1.5896  0.0605  1.4256
18517SOL     OW56331   4.271   5.034   6.489  0.0126 -0.0134  0.0065
18517SOL    HW156332   4.319   4.970   6.542 -1.0752  1.3251  2.8660
18517SOL    HW256333   4.271   4.998   6.401 -0.7089 -4.0559  1.4541
18518SOL     OW56334   0.545   1.030   8.147 -0.0415  0.2588 -0.1175
18518SOL    HW156335   0.461   0.984   8.141  0.3022 -0.4091  0.0935
18518SOL    HW256336   0.603   0.969   8.192  0.7466  0.4338 -0.8535
18519SOL     OW56337   5.469   8.204   3.923 -0.2028 -0.1953 -0.5939
18519SOL    HW156338   5.431   8.142   3.861 -1.0929 -0.0513 -0.2156
18519SOL    HW256339   5.559   8.215   3.894 -1.0746  1.3104 -3.0052
18520SOL     OW56340   7.863   6.735   4.526  0.4805 -0.2885 -0.3894
18520SOL    HW156341   7.939   6.678   4.531  0.2879 -0.7540 -2.1850
18520SOL    HW256342   7.791   6.683   4.563  0.7601 -0.3311  0.1044
18521SOL     OW56343   6.075   6.820   0.010  0.0734  0.4632 -0.0813
18521SOL    HW156344   6.080   6.912  -0.018 -1.0634  1.3027  2.2677
18521SOL    HW256345   5.991   6.789  -0.022 -0.5063  0.9301  0.9505
18522SOL     OW56346   1.513   0.837   1.241 -0.2456  0.0487 -0.1647
18522SOL    HW156347   1.502   0.857   1.334 -3.1563 -0.1707 -0.3843
18522SOL    HW256348   1.573   0.763   1.240 -0.1298  0.0645  1.5372
18523SOL     OW56349   4.797   7.617   3.290 -0.4115 -0.1948 -0.4915
18523SOL    HW156350   4.790   7.657   3.204 -1.4043 -0.8684 -0.7477
18523SOL    HW256351   4.828   7.687   3.347 -0.3770  0.4326 -1.2703
18524SOL     OW56352   4.703   2.204   2.528  0.1055 -0.5613  0.5369
18524SOL    HW156353   4.740   2.285   2.564 -0.0608 -1.3289  2.6024
18524SOL    HW256354   4.619   2.231   2.490  1.5741  0.7674 -1.9537
18525SOL     OW56355   2.482   8.154   4.543 -0.1522  0.0836  0.2219
18525SOL    HW156356   2.500   8.117   4.457  0.0155  1.3299 -0.2903
18525SOL    HW256357   2.419   8.225   4.527  1.1054  1.4044  0.9021
18526SOL     OW56358   4.303   3.436   1.324 -0.4882  0.0472 -0.2758
18526SOL    HW156359   4.240   3.442   1.252  0.9319  2.2185 -1.4634
18526SOL    HW256360   4.276   3.504   1.385  1.9497  2.8389 -2.0154
18527SOL     OW56361   0.078   2.417   6.892  0.2106 -0.5357  0.0530
18527SOL    HW156362   0.087   2.511   6.908  2.1624 -0.9043  1.5198
18527SOL    HW256363   0.107   2.405   6.802  0.3278  0.2242 -0.0182
18528SOL     OW56364   6.505   5.904   2.296 -0.1145  0.1028 -0.5680
18528SOL    HW156365   6.540   5.922   2.209  0.5699 -1.6063 -0.6799
18528SOL    HW256366   6.555   5.829   2.327 -2.1158 -0.9602  0.2323
18529SOL     OW56367   1.613   0.697   2.152 -0.6890 -0.2152  0.2909
18529SOL    HW156368   1.698   0.652   2.148 -0.9635 -0.7048 -2.3092
18529SOL    HW256369   1.600   0.728   2.063 -2.4417  1.4453  1.0842
18530SOL     OW56370   4.595   2.769   2.782 -0.1041  0.3537 -0.2121
18530SOL    HW156371   4.673   2.716   2.800  0.1948  1.2479  1.2984
18530SOL    HW256372   4.629   2.845   2.735 -0.0098  0.8908  0.7148
18531SOL     OW56373   2.095   3.799   6.016 -0.3102  0.2606 -0.1461
18531SOL    HW156374   2.024   3.852   6.054 -0.5868  1.4458 -2.2015
18531SOL    HW256375   2.160   3.863   5.988  1.0817 -0.7615  0.6430
18532SOL     OW56376   3.702   3.692   5.313 -0.1453 -0.1856  0.0041
18532SOL    HW156377   3.617   3.719   5.278 -0.2745 -0.6621 -0.0538
18532SOL    HW256378   3.742   3.642   5.243  0.2315  0.1289 -0.0059
18533SOL     OW56379   1.429   1.235   1.920  0.0581 -0.2888  0.0095
18533SOL    HW156380   1.425   1.292   1.997 -0.7453 -1.2875  0.7567
18533SOL    HW256381   1.475   1.286   1.854 -0.0749  0.9690  0.8452
18534SOL     OW56382   0.396   4.719   4.804  0.0259 -0.1581  0.3394
18534SOL    HW156383   0.392   4.623   4.805  3.0355 -0.3631 -0.3205
18534SOL    HW256384   0.455   4.741   4.876  1.3866  1.0069 -1.0695
18535SOL     OW56385   0.647   8.088   5.025 -0.0789 -0.6899 -0.2720
18535SOL    HW156386   0.564   8.133   5.012 -0.0363 -0.3705  0.4950
18535SOL    HW256387   0.687   8.086   4.938 -0.1762  0.5691 -0.3672
18536SOL     OW56388   8.244   3.793   2.248  0.2288 -0.2897 -0.0653
18536SOL    HW156389   8.320   3.754   2.205  1.0420 -0.5678  1.5577
18536SOL    HW256390   8.190   3.718   2.272  0.3109 -0.2070  0.3699
18537SOL     OW56391   3.220   6.606   0.871 -0.2309 -0.5414  0.7107
18537SOL    HW156392   3.294   6.630   0.815 -0.2688 -0.2292  0.7933
18537SOL    HW256393   3.255   6.539   0.930  0.4712  0.8361  1.9119
18538SOL     OW56394   7.106   0.078   5.004 -0.2217 -0.5852  0.1639
18538SOL    HW156395   7.178   0.118   4.956 -0.2174 -0.3166  0.3919
18538SOL    HW256396   7.148   0.032   5.077 -0.3078 -0.1457  0.4907
18539SOL     OW56397   0.372   3.267   1.400 -0.4893 -0.0068  0.3756
18539SOL    HW156398   0.432   3.221   1.458  1.2355  0.7335 -0.7325
18539SOL    HW256399   0.419   3.348   1.377 -1.8897  0.5599 -0.6031
18540SOL     OW56400   3.327   1.176   5.961  0.4491 -0.1487  0.3041
18540SOL    HW156401   3.361   1.126   5.886  1.0655 -0.2018  0.6205
18540SOL    HW256402   3.268   1.114   6.004  1.7925 -0.9006  1.1368
18541SOL     OW56403   0.521   0.380   2.879 -0.0679  0.1684 -0.6169
18541SOL    HW156404   0.427   0.397   2.868 -0.3493 -1.9935 -2.1892
18541SOL    HW256405   0.526   0.327   2.959 -0.0143  1.1874  0.0827
18542SOL     OW56406   3.045   1.303   0.761  0.3821 -0.1312 -0.3399
18542SOL    HW156407   3.011   1.293   0.850 -0.4669 -1.2710 -0.7784
18542SOL    HW256408   3.030   1.396   0.741  0.3802  0.0893  0.6193
18543SOL     OW56409   3.839   6.769   6.543 -0.0534  0.2825 -0.2655
18543SOL    HW156410   3.833   6.845   6.485  2.3967 -0.2042 -1.2959
18543SOL    HW256411   3.916   6.721   6.511 -0.6550 -1.8427  1.2832
18544SOL     OW56412   4.185   6.798   0.504  0.2387  0.6381  0.4088
18544SOL    HW156413   4.215   6.769   0.591  0.2612  1.1370  0.5713
18544SOL    HW256414   4.209   6.726   0.445  2.5499  1.3817  0.3783
18545SOL     OW56415   7.287   6.857   1.789  0.4850  0.2882 -0.7810
18545SOL    HW156416   7.223   6.822   1.727  0.7958 -0.6275 -0.5938
18545SOL    HW256417   7.371   6.827   1.756  0.5592 -1.4544  0.8384
18546SOL     OW56418   3.965   7.560   4.610 -0.0661 -0.7816 -0.0162
18546SOL    HW156419   3.951   7.600   4.524  0.3233 -1.2487 -0.2975
18546SOL    HW256420   3.922   7.620   4.671 -1.8563 -1.3224 -0.6879
18547SOL     OW56421   7.105   5.971   5.930 -0.2786 -1.2027  0.0176
18547SOL    HW156422   7.198   5.972   5.910  0.1702  0.5908  1.8453
18547SOL    HW256423   7.077   6.062   5.919 -1.3583 -1.3422  1.3488
18548SOL     OW56424   4.246   2.433   4.454 -0.6044  0.2160  0.5461
18548SOL    HW156425   4.210   2.346   4.474  0.8956 -0.3138  1.1049
18548SOL    HW256426   4.283   2.425   4.367 -0.9306  0.4575  0.3835
18549SOL     OW56427   2.379   6.678   4.288  0.0325 -0.3657 -0.4345
18549SOL    HW156428   2.290   6.708   4.305 -0.0815 -1.1220  0.3850
18549SOL    HW256429   2.393   6.697   4.195 -0.9481 -0.1531 -0.5531
18550SOL     OW56430   6.881   6.623   2.463  0.3674 -0.4286 -0.0913
18550SOL    HW156431   6.869   6.531   2.439  2.4761 -0.6391 -0.5165
18550SOL    HW256432   6.859   6.627   2.556 -0.4230 -1.1993 -0.2328
18551SOL     OW56433   2.856   6.836   1.746  0.0400  0.0388 -0.2594
18551SOL    HW156434   2.764   6.843   1.720  0.0255 -0.8509 -0.5039
18551SOL    HW256435   2.853   6.807   1.837  0.0794 -0.1312 -0.3127
18552SOL     OW56436   4.516   8.171   0.284 -0.0429 -0.0281  0.7969
18552SOL    HW156437   4.583   8.228   0.322 -1.0014  1.2362  0.6697
18552SOL    HW256438   4.459   8.149   0.358 -0.0285 -0.3336  0.7196
18553SOL     OW56439   8.096   8.214   3.108  0.3381 -0.6643  0.1341
18553SOL    HW156440   8.176   8.163   3.096 -0.6128 -2.5288  1.2189
18553SOL    HW256441   8.035   8.180   3.042  0.1722  0.1741 -0.1573
18554SOL     OW56442   5.371   0.820   1.368 -1.0861  0.3966 -0.4353
18554SOL    HW156443   5.382   0.834   1.274  0.0910 -1.9319 -0.7200
18554SOL    HW256444   5.276   0.823   1.381 -1.2008  2.3448 -1.3609
18555SOL     OW56445   4.588   7.083   7.273 -0.2733 -0.1655  0.5528
18555SOL    HW156446   4.501   7.070   7.312 -1.5197  2.3741 -1.1015
18555SOL    HW256447   4.577   7.058   7.181  0.8072 -0.0037  0.3719
18556SOL     OW56448   7.372   2.971   6.026  0.0440  0.1758  0.1963
18556SOL    HW156449   7.356   2.886   6.066 -0.2727 -0.1394 -0.5815
18556SOL    HW256450   7.441   3.010   6.079 -0.7833  0.0278  1.4098
18557SOL     OW56451   4.105   0.150   0.941 -0.3717  0.3003 -0.2381
18557SOL    HW156452   4.144   0.119   0.859  0.8743 -1.6881  1.0125
18557SOL    HW256453   4.050   0.078   0.971 -0.7894  0.9807  0.7022
18558SOL     OW56454   5.723   8.193   3.799 -0.1557 -0.2530  0.1336
18558SOL    HW156455   5.737   8.277   3.758 -1.0023 -0.0399  0.2624
18558SOL    HW256456   5.807   8.173   3.843  0.7456 -0.4806 -1.6202
18559SOL     OW56457   0.470   7.927   1.140  0.0175 -0.1443  0.2459
18559SOL    HW156458   0.419   8.001   1.108  1.5521  0.6363 -0.4643
18559SOL    HW256459   0.516   7.894   1.062  0.1285 -1.2159  0.7480
18560SOL     OW56460   4.776   7.343   4.541 -0.4473  0.0927 -0.3928
18560SOL    HW156461   4.686   7.373   4.529 -0.6423 -0.4626 -0.3268
18560SOL    HW256462   4.824   7.382   4.468 -0.6875  0.5986 -0.2850
18561SOL     OW56463   3.931   3.991   1.935 -0.2432 -0.0518  0.1376
18561SOL    HW156464   3.920   3.943   2.017 -1.3688  1.1419  0.7385
18561SOL    HW256465   3.859   3.961   1.880 -1.7017  1.7137  0.9597
18562SOL     OW56466   6.718   2.066   1.612  0.3904 -0.1182  0.3163
18562SOL    HW156467   6.729   1.980   1.653  0.0426 -1.0815 -1.5094
18562SOL    HW256468   6.808   2.093   1.591  0.4897 -0.0812  0.7651
18563SOL     OW56469   4.135   7.095   7.715 -0.1744  0.3610  0.1815
18563SOL    HW156470   4.135   7.049   7.632 -1.5342 -0.1075  0.4238
18563SOL    HW256471   4.135   7.188   7.692 -1.2425  0.2327 -0.3536
18564SOL     OW56472   3.950   7.760   3.739  0.5344 -0.4980  0.2104
18564SOL    HW156473   3.957   7.855   3.742 -4.8700  0.2015  1.3447
18564SOL    HW256474   3.982   7.731   3.824 -0.5065  0.7106  1.0540
18565SOL     OW56475   7.602   2.644   6.012 -0.4139 -0.0777 -0.2708
18565SOL    HW156476   7.558   2.596   5.942  0.7696 -0.0557 -1.0665
18565SOL    HW256477   7.534   2.700   6.049 -0.9416  0.3750 -1.8271
18566SOL     OW56478   4.840   2.347   4.112  0.6362  0.6069 -0.2913
18566SOL    HW156479   4.867   2.269   4.065 -1.8843 -0.7275  0.2489
18566SOL    HW256480   4.751   2.365   4.081  0.4361  2.1159  0.9730
18567SOL     OW56481   6.235   3.432   2.225  0.0268  0.3138 -0.1167
18567SOL    HW156482   6.322   3.453   2.191  0.2722 -1.2876 -0.5600
18567SOL    HW256483   6.251   3.394   2.311 -0.3244  1.0194  0.2652
18568SOL     OW56484   4.014   0.755   1.915 -0.4133  0.1238 -0.3401
18568SOL    HW156485   4.001   0.741   2.009  1.7914  1.6331  0.2849
18568SOL    HW256486   4.100   0.715   1.897  0.5233  2.2729 -1.0173
18569SOL     OW56487   1.846   3.151   2.322 -0.5189 -0.0962  0.7291
18569SOL    HW156488   1.805   3.092   2.387  0.5768 -2.1003 -0.2975
18569SOL    HW256489   1.840   3.102   2.240  1.7307  0.6130  0.0974
18570SOL     OW56490   3.159   0.746   7.026 -0.0110 -0.2486  0.1108
18570SOL    HW156491   3.218   0.820   7.014  1.9305 -1.7631 -0.2156
18570SOL    HW256492   3.157   0.732   7.121 -1.6134  1.0989  0.3261
18571SOL     OW56493   0.028   6.079   6.312  0.2642  0.3127  0.2704
18571SOL    HW156494   0.075   6.082   6.395  0.0077 -0.2174  0.4393
18571SOL    HW256495  -0.060   6.050   6.335  0.4285 -0.6800 -0.2698
18572SOL     OW56496   2.193   7.585   6.387  0.5080  0.2806  0.4070
18572SOL    HW156497   2.128   7.571   6.456 -0.0713  1.4468  0.1112
18572SOL    HW256498   2.198   7.680   6.377  2.8203  0.2784  0.9409
18573SOL     OW56499   2.108   2.165   2.872  0.3136  0.1985  0.0503
18573SOL    HW156500   2.094   2.076   2.905  1.4546 -0.0307 -0.0375
18573SOL    HW256501   2.024   2.190   2.834  0.1390 -1.0787 -0.4542
18574SOL     OW56502   7.163   5.277   6.902 -0.0824 -0.2578  0.2541
18574SOL    HW156503   7.241   5.297   6.851 -0.8332  0.3485 -0.6841
18574SOL    HW256504   7.133   5.362   6.935 -0.2936 -0.4973  0.6912
18575SOL     OW56505   6.645   7.213   6.008  0.2409 -0.2073  0.0933
18575SOL    HW156506   6.673   7.143   5.949  2.9036 -0.3259  1.3613
18575SOL    HW256507   6.664   7.180   6.095  0.3902  1.6135  0.7960
18576SOL     OW56508   2.636   4.436   0.012 -0.5805 -0.0031  0.6023
18576SOL    HW156509   2.597   4.515  -0.024  0.8427  0.3331 -0.2603
18576SOL    HW256510   2.663   4.385  -0.065 -1.3253 -1.2633  1.1363
18577SOL     OW56511   0.128   4.382   5.719  0.4411 -0.0988  0.4053
18577SOL    HW156512   0.109   4.470   5.751  2.0004 -0.0800  1.4381
18577SOL    HW256513   0.124   4.389   5.624  0.7075  1.1412  0.4638
18578SOL     OW56514   0.846   4.125   2.452  0.3806  0.6972  0.7824
18578SOL    HW156515   0.902   4.186   2.404  0.2937 -0.6951 -1.2409
18578SOL    HW256516   0.810   4.067   2.384 -0.7779 -0.6113  2.4193
18579SOL     OW56517   3.943   6.342   1.682 -0.0373  0.1178 -0.8289
18579SOL    HW156518   4.009   6.362   1.748 -0.8931  1.3645 -0.3247
18579SOL    HW256519   3.862   6.381   1.715 -0.9474 -0.9793 -1.6485
18580SOL     OW56520   3.400   1.393   3.645 -0.7228 -0.2706  0.1772
18580SOL    HW156521   3.454   1.468   3.620 -1.1973  0.1953  0.5391
18580SOL    HW256522   3.417   1.382   3.739 -0.3889 -0.8383  0.0557
18581SOL     OW56523   4.296   0.055   2.749 -0.4017 -0.9992 -0.0605
18581SOL    HW156524   4.356  -0.018   2.768  0.6990 -0.9730 -2.8421
18581SOL    HW256525   4.330   0.092   2.667 -2.3763  1.1098 -0.0146
18582SOL     OW56526   7.811   6.295   7.939  0.5299 -0.1583 -0.5422
18582SOL    HW156527   7.809   6.304   7.844 -0.8236 -0.1750 -0.5352
18582SOL    HW256528   7.817   6.201   7.955 -0.9741 -0.3041 -0.6427
18583SOL     OW56529   2.835   4.573   3.655 -0.3071  0.2238  0.4203
18583SOL    HW156530   2.921   4.579   3.613 -0.1928 -0.7854  0.4929
18583SOL    HW256531   2.787   4.508   3.604 -0.9219  0.5602  0.5608
18584SOL     OW56532   5.825   4.173   5.321 -0.2788 -0.0910 -0.3279
18584SOL    HW156533   5.870   4.200   5.241  2.0773  0.4144  1.0672
18584SOL    HW256534   5.755   4.237   5.331  1.4935  1.9650 -0.2595
18585SOL     OW56535   7.978   2.194   6.723 -0.0105 -0.1447  0.3111
18585SOL    HW156536   7.893   2.199   6.681 -0.2027 -0.6099  0.6305
18585SOL    HW256537   7.996   2.100   6.729  0.7050 -0.0440 -0.1140
18586SOL     OW56538   0.587   4.585   4.362  0.2226 -0.1772 -0.0752
18586SOL    HW156539   0.637   4.587   4.444 -0.5183  0.4680  0.3738
18586SOL    HW256540   0.640   4.638   4.302  0.9040 -0.8719 -0.1067
18587SOL     OW56541   2.239   5.280   7.463  0.5045 -0.4946  0.1110
18587SOL    HW156542   2.153   5.266   7.426  0.8559 -2.6044 -0.0723
18587SOL    HW256543   2.224   5.332   7.542 -0.8769 -0.5028 -0.1374
18588SOL     OW56544   7.464   4.234   4.193 -0.3488 -0.2679 -0.3764
18588SOL    HW156545   7.490   4.306   4.251 -0.8109 -0.5785  0.2321
18588SOL    HW256546   7.512   4.158   4.227 -0.9209 -0.5339 -0.1445
18589SOL     OW56547   0.218   0.885   1.235 -0.3731 -1.1488  0.2256
18589SOL    HW156548   0.188   0.917   1.150 -0.2008  1.8362  1.1745
18589SOL    HW256549   0.309   0.860   1.220 -0.5309 -1.2640 -0.5983
18590SOL     OW56550   4.879   7.334   4.281  0.1409  0.3014  0.1479
18590SOL    HW156551   4.965   7.376   4.281  0.9320 -1.0750 -2.5617
18590SOL    HW256552   4.899   7.240   4.278 -1.3765 -0.0179 -1.5627
18591SOL     OW56553   4.686   5.420   3.015  0.1607  0.1354 -0.5300
18591SOL    HW156554   4.699   5.438   2.922  1.0893 -0.3833 -0.5059
18591SOL    HW256555   4.679   5.325   3.020 -1.1427  0.2331 -0.2138
18592SOL     OW56556   0.287   1.684   3.421  0.4468  0.2159  0.1595
18592SOL    HW156557   0.277   1.719   3.510  0.5294 -1.8539  1.0412
18592SOL    HW256558   0.231   1.607   3.419  1.8042 -0.7901 -0.9940
18593SOL     OW56559   6.878   0.999   8.102  0.3742 -0.5078  0.8664
18593SOL    HW156560   6.859   1.092   8.106  1.4348 -0.2262 -0.1603
18593SOL    HW256561   6.868   0.976   8.010  2.5023 -0.8329  0.6551
18594SOL     OW56562   4.188   8.053   4.002 -0.3809 -0.2881 -0.6400
18594SOL    HW156563   4.246   8.037   3.927 -0.8588  0.2236 -1.1329
18594SOL    HW256564   4.233   8.119   4.054  0.2066 -1.0418 -0.1807
18595SOL     OW56565   0.789   2.847   1.619 -0.6651  0.1896  0.0537
18595SOL    HW156566   0.738   2.768   1.634 -0.9579  0.2078 -0.7816
18595SOL    HW256567   0.793   2.855   1.524 -0.9660  1.3808  0.1259
18596SOL     OW56568   5.382   1.695   5.121  0.0895 -0.1809 -0.2254
18596SOL    HW156569   5.332   1.617   5.098 -1.9252  1.0826 -0.3641
18596SOL    HW256570   5.316   1.760   5.145  1.7953  0.8510  2.0067
18597SOL     OW56571   4.758   5.655   6.149  0.3768 -0.1274  0.4250
18597SOL    HW156572   4.717   5.689   6.070 -1.3287 -0.7570  0.9897
18597SOL    HW256573   4.840   5.616   6.119 -0.0440  0.0082 -0.9624
18598SOL     OW56574   5.210   5.887   4.890  0.0493  0.7607  0.0308
18598SOL    HW156575   5.218   5.944   4.813  0.1298 -0.0785 -0.5984
18598SOL    HW256576   5.116   5.876   4.902  0.0189  1.5268  0.5399
18599SOL     OW56577   2.168   7.405   4.602 -0.1441  0.3640  0.0652
18599SOL    HW156578   2.237   7.341   4.584 -1.5022 -1.0361 -0.4559
18599SOL    HW256579   2.206   7.466   4.665  1.1311 -1.1393  0.8106
18600SOL     OW56580   7.552   3.453   7.644 -0.4847  0.3542 -0.2832
18600SOL    HW156581   7.562   3.507   7.722  0.1216 -0.3066  0.1034
18600SOL    HW256582   7.608   3.495   7.579  1.0280 -0.5086  0.4025
18601SOL     OW56583   3.602   4.481   1.782  1.0112  0.5110  0.2255
18601SOL    HW156584   3.697   4.489   1.792  1.0752  1.7883 -1.0142
18601SOL    HW256585   3.587   4.388   1.770  1.9785  0.1587  1.4740
18602SOL     OW56586   2.263   3.580   6.058  0.6822 -0.3747  0.1766
18602SOL    HW156587   2.225   3.667   6.068  2.6977  0.8978 -2.0936
18602SOL    HW256588   2.312   3.566   6.139 -0.7247 -0.0168  1.1239
18603SOL     OW56589   5.690   7.156   4.130 -0.1235  0.4322 -0.2588
18603SOL    HW156590   5.608   7.113   4.106 -1.1328  0.4043  2.7497
18603SOL    HW256591   5.699   7.227   4.068 -1.2653 -0.8689 -2.0059
18604SOL     OW56592   7.688   6.904   6.148  0.1455  0.3613  0.2864
18604SOL    HW156593   7.701   6.914   6.242 -1.3150  0.2812  0.5183
18604SOL    HW256594   7.594   6.887   6.138  0.6144 -1.8433 -1.0061
18605SOL     OW56595   2.963   7.657   7.569  0.0557  0.1430  0.1770
18605SOL    HW156596   2.937   7.743   7.603  0.1912 -0.1023  0.9211
18605SOL    HW256597   2.883   7.605   7.571 -0.2400  0.5056 -1.1384
18606SOL     OW56598   3.259   4.226   0.196 -0.3635 -0.3109 -0.5527
18606SOL    HW156599   3.181   4.175   0.221 -0.5155  1.5330  3.5228
18606SOL    HW256600   3.333   4.173   0.228 -0.0313 -0.8775 -2.1588
18607SOL     OW56601   6.636   6.449   5.815 -0.4557  0.5225  0.0009
18607SOL    HW156602   6.700   6.382   5.836 -1.0999  0.6635  2.6873
18607SOL    HW256603   6.566   6.402   5.768  1.6816  0.4660 -3.4689
18608SOL     OW56604   2.573   2.986   1.679  0.6499 -0.0555 -0.3459
18608SOL    HW156605   2.623   2.938   1.745  0.7563 -3.6113 -2.7874
18608SOL    HW256606   2.633   2.996   1.606 -0.1618  1.8219 -0.8191
18609SOL     OW56607   1.939   4.999   1.046 -0.0636 -0.5505  0.2319
18609SOL    HW156608   2.023   4.976   1.087  0.7308  1.0224 -0.4402
18609SOL    HW256609   1.933   4.941   0.970  1.2998  0.5142 -0.7297
18610SOL     OW56610   7.072   4.377   7.144  0.1132 -0.1060  0.6858
18610SOL    HW156611   7.127   4.404   7.218  0.4328  0.9110  0.0828
18610SOL    HW256612   7.119   4.302   7.106  0.3667 -0.1160  1.0134
18611SOL     OW56613   8.153   0.619   6.519 -0.5044  0.3571  0.0818
18611SOL    HW156614   8.130   0.687   6.456 -2.4763  0.8659  1.2312
18611SOL    HW256615   8.069   0.595   6.559  0.1852 -2.4763  0.0344
18612SOL     OW56616   0.222   6.864   2.015  0.2146  0.2452  0.5738
18612SOL    HW156617   0.219   6.833   1.925  1.8899  0.6841  0.3322
18612SOL    HW256618   0.161   6.938   2.017  0.1032  0.1778 -0.1647
18613SOL     OW56619   1.861   5.978   4.598 -0.2592 -0.8312 -0.0738
18613SOL    HW156620   1.785   6.036   4.598  1.0213  0.9109 -0.6884
18613SOL    HW256621   1.902   5.991   4.683 -0.1391 -1.0613 -0.0950
18614SOL     OW56622   3.669   2.836   3.814 -0.5628 -0.2110  0.0905
18614SOL    HW156623   3.696   2.756   3.858  0.6440  0.5910  0.8694
18614SOL    HW256624   3.620   2.806   3.738  0.1481 -1.7000  0.1794
18615SOL     OW56625   0.346   5.856   8.091 -0.1244  0.2267 -0.4097
18615SOL    HW156626   0.403   5.916   8.138  0.5377  1.1877 -2.3287
18615SOL    HW256627   0.322   5.903   8.011 -0.5536 -1.6025 -1.4151
18616SOL     OW56628   1.609   6.497   5.257 -0.0900 -0.2111  0.4670
18616SOL    HW156629   1.629   6.443   5.333  1.2663 -0.0092  0.2726
18616SOL    HW256630   1.693   6.531   5.229 -0.7277  0.6998 -0.3985
18617SOL     OW56631   5.022   6.248   0.015  0.6610 -0.0980 -0.1195
18617SOL    HW156632   5.091   6.275  -0.045  0.3508 -1.7114 -1.2685
18617SOL    HW256633   4.957   6.206  -0.040 -0.9910  0.8510  1.0177
18618SOL     OW56634   4.291   2.275   7.004 -0.5957 -0.0346  0.1987
18618SOL    HW156635   4.235   2.288   7.081  0.4136  1.2082  0.7432
18618SOL    HW256636   4.238   2.307   6.931 -1.0457  0.0280  0.5446
18619SOL     OW56637   4.437   0.759   5.876 -0.1453  0.4112  0.0923
18619SOL    HW156638   4.405   0.774   5.787  1.5099 -0.7467 -0.7437
18619SOL    HW256639   4.474   0.844   5.902 -0.5628  0.7377 -0.3459
18620SOL     OW56640   0.967   1.179   7.553 -0.3532  0.5366 -0.1638
18620SOL    HW156641   0.924   1.154   7.634  2.5428 -0.2816  1.2509
18620SOL    HW256642   0.947   1.108   7.492 -2.9303  1.3810 -0.4208
18621SOL     OW56643   1.947   1.903   5.639 -0.2139  0.5321  0.5772
18621SOL    HW156644   1.934   1.811   5.617 -0.7930  0.7428 -0.0083
18621SOL    HW256645   1.983   1.942   5.560  3.0149  0.2261  1.7784
18622SOL     OW56646   3.494   2.422   1.012 -0.1089  0.3051  0.0744
18622SOL    HW156647   3.446   2.404   1.094 -1.6324 -0.7497 -0.9851
18622SOL    HW256648   3.505   2.336   0.972  1.4371  0.7147 -0.4154
18623SOL     OW56649   5.927   1.100   1.012 -0.7678 -0.4056  1.0814
18623SOL    HW156650   5.833   1.117   1.008 -0.6514  0.1547 -2.0450
18623SOL    HW256651   5.935   1.018   1.060 -2.8726 -0.5976  1.1833
18624SOL     OW56652   1.323   6.449   7.631  0.3258 -0.3045  0.4415
18624SOL    HW156653   1.315   6.500   7.550 -0.4314  1.5872  1.6231
18624SOL    HW256654   1.417   6.438   7.644  0.4799  0.2275 -0.2111
18625SOL     OW56655   4.264   2.692   4.610  0.5313  0.0767 -0.4868
18625SOL    HW156656   4.272   2.598   4.590 -1.4086 -0.1014 -0.6729
18625SOL    HW256657   4.299   2.735   4.532  0.7559 -0.5076 -0.7199
18626SOL     OW56658   7.140   6.554   3.138  0.0169  0.1548 -0.0036
18626SOL    HW156659   7.054   6.586   3.167  0.5918  1.7922  0.0173
18626SOL    HW256660   7.193   6.552   3.218  0.2056 -0.1308 -0.1345
18627SOL     OW56661   3.225   6.476   1.995  0.2628  0.8702 -0.2211
18627SOL    HW156662   3.173   6.509   2.068  1.1149  0.9686  0.3538
18627SOL    HW256663   3.286   6.547   1.975  1.0062  0.2885 -0.0629
18628SOL     OW56664   4.881   5.135   4.115  0.2028 -0.3624  0.1234
18628SOL    HW156665   4.789   5.123   4.092  0.4578 -3.5385  0.3233
18628SOL    HW256666   4.903   5.221   4.081 -2.4009 -0.1874 -1.3958
18629SOL     OW56667   7.096   1.877   6.237  0.1428 -0.1080 -0.0940
18629SOL    HW156668   7.026   1.925   6.193  0.6475  0.8971  0.1894
18629SOL    HW256669   7.085   1.897   6.330 -0.1654 -1.2477  0.1350
18630SOL     OW56670   4.946   3.705   5.408  0.1007  0.2867  0.1790
18630SOL    HW156671   4.950   3.785   5.357  0.0748  1.3596  1.8039
18630SOL    HW256672   4.944   3.734   5.499  1.2791 -1.5859  0.8620
18631SOL     OW56673   0.385   0.610   1.486 -0.2451 -0.1865  0.5078
18631SOL    HW156674   0.300   0.647   1.463 -0.1603 -0.7486 -0.8252
18631SOL    HW256675   0.372   0.572   1.573 -1.1177  0.4475  0.6730
18632SOL     OW56676   1.626   1.418   7.844 -0.1647  0.8036  0.2850
18632SOL    HW156677   1.545   1.377   7.876  1.0849 -1.4759  0.7323
18632SOL    HW256678   1.695   1.374   7.893  1.4212  2.0666 -0.7400
18633SOL     OW56679   0.358   7.145   3.654  0.2064 -0.2214  0.2007
18633SOL    HW156680   0.392   7.056   3.648  1.7401  0.3783 -0.6110
18633SOL    HW256681   0.391   7.189   3.575 -0.7859  0.9794  0.4215
18634SOL     OW56682   7.453   7.822   3.316 -0.2771 -0.4044 -0.3810
18634SOL    HW156683   7.365   7.795   3.289  0.0381 -2.0390  0.1081
18634SOL    HW256684   7.444   7.846   3.408 -0.0134 -1.7599  0.0234
18635SOL     OW56685   7.799   2.260   7.795 -0.2552 -0.0283 -0.0970
18635SOL    HW156686   7.862   2.312   7.745 -0.7637  1.7827  1.0448
18635SOL    HW256687   7.714   2.291   7.764 -0.5666  0.4082  1.1428
18636SOL     OW56688   0.433   6.015   5.080 -0.5755  0.0576  0.1839
18636SOL    HW156689   0.388   6.000   5.163  1.0547  1.2670  1.3641
18636SOL    HW256690   0.428   5.931   5.035 -0.2238 -1.1097  2.1761
18637SOL     OW56691   4.768   8.205   3.065  0.3046 -0.1501 -0.0495
18637SOL    HW156692   4.717   8.260   3.124  1.1889  0.9348 -0.2694
18637SOL    HW256693   4.757   8.245   2.979  2.8616  1.1663  0.1507
18638SOL     OW56694   4.867   1.207   3.902 -0.7279  0.0314 -0.1188
18638SOL    HW156695   4.795   1.260   3.934 -0.4595  1.4185 -1.6540
18638SOL    HW256696   4.940   1.268   3.893  0.4912 -1.2235  0.8611
18639SOL     OW56697   7.323   5.793   0.642 -0.1976  0.3423  0.0252
18639SOL    HW156698   7.326   5.888   0.627 -1.9260  0.4206  0.0002
18639SOL    HW256699   7.412   5.763   0.622  0.2711  1.8925 -0.3744
18640SOL     OW56700   1.590   2.025   3.322 -0.1413 -0.3269  0.6856
18640SOL    HW156701   1.602   2.106   3.273 -0.6689  0.3066  1.5762
18640SOL    HW256702   1.670   2.017   3.375  1.2763 -1.9548 -1.5108
18641SOL     OW56703   7.472   7.936   7.094 -0.5241  0.3049  0.1807
18641SOL    HW156704   7.485   7.980   7.178  1.1718 -0.5230  0.3964
18641SOL    HW256705   7.547   7.878   7.085  0.4917  1.8681 -2.9166
18642SOL     OW56706   0.536   3.082   2.603 -0.1341 -0.3600 -0.1984
18642SOL    HW156707   0.560   3.012   2.664  0.2633 -0.3198 -0.3037
18642SOL    HW256708   0.453   3.117   2.637  1.0278  0.9536  1.4393
18643SOL     OW56709   4.202   7.345   7.946  0.1167 -0.3893 -0.0389
18643SOL    HW156710   4.191   7.250   7.948 -1.0729 -0.2721 -0.1786
18643SOL    HW256711   4.120   7.379   7.983  1.1306  0.5540  1.4308
18644SOL     OW56712   4.646   0.041   0.437  0.6867  0.1206  0.3654
18644SOL    HW156713   4.724   0.002   0.477  1.2878 -1.7001 -2.3178
18644SOL    HW256714   4.674   0.129   0.410  1.5706 -0.2186  0.1461
18645SOL     OW56715   3.710   5.927   6.086 -0.2725  0.4054  0.2695
18645SOL    HW156716   3.654   5.985   6.034 -0.1814  0.8699  0.6874
18645SOL    HW256717   3.746   5.865   6.022 -2.1117 -0.5974  0.1521
18646SOL     OW56718   4.660   1.782   5.670 -0.7194  0.1654 -0.5442
18646SOL    HW156719   4.598   1.729   5.620 -0.1055 -1.3417  0.2418
18646SOL    HW256720   4.746   1.758   5.634 -0.2931 -0.6929  0.9720
18647SOL     OW56721   8.281   4.830   1.067  0.1795  0.0323  0.4303
18647SOL    HW156722   8.351   4.869   1.120 -0.6510  1.1679  0.7237
18647SOL    HW256723   8.256   4.751   1.114 -0.1851  0.7500  1.4643
18648SOL     OW56724   4.627   6.205   4.978 -0.1386  0.0315  0.7347
18648SOL    HW156725   4.559   6.273   4.971  0.6745  0.8638  0.6605
18648SOL    HW256726   4.684   6.235   5.049  0.3547 -0.4660  0.5607
18649SOL     OW56727   6.787   2.653   7.124  0.3326 -0.1880  0.3622
18649SOL    HW156728   6.831   2.737   7.113 -0.1322  0.2762  1.7952
18649SOL    HW256729   6.850   2.588   7.093  0.7361  0.6692 -0.6676
18650SOL     OW56730   2.215   4.675   2.488 -0.6984  0.2662  0.3476
18650SOL    HW156731   2.278   4.720   2.544 -0.4175  0.2410  0.0501
18650SOL    HW256732   2.229   4.711   2.401 -0.9718  0.1297  0.2441
18651SOL     OW56733   6.823   5.022   1.182  0.4109  0.4486 -0.6400
18651SOL    HW156734   6.903   4.980   1.151  0.0529  0.3572 -1.4690
18651SOL    HW256735   6.752   4.970   1.144 -0.0584  0.2541  0.4496
18652SOL     OW56736   1.293   6.013   1.080  0.3281 -0.4161  0.1887
18652SOL    HW156737   1.290   6.036   0.987 -0.5803 -1.1788  0.0191
18652SOL    HW256738   1.339   6.087   1.121  0.5977  0.0051 -0.8336
18653SOL     OW56739   4.060   2.361   7.514  0.1025  0.7161 -0.9012
18653SOL    HW156740   3.967   2.368   7.538 -0.2592 -0.5134 -1.8278
18653SOL    HW256741   4.093   2.292   7.571  0.7712  1.9319  0.2424
18654SOL     OW56742   4.725   7.446   0.554 -0.6087  0.0038  0.0296
18654SOL    HW156743   4.758   7.496   0.480 -0.2701  0.9059  0.7639
18654SOL    HW256744   4.793   7.455   0.621 -2.0365  1.4611  1.3785
18655SOL     OW56745   7.572   2.835   1.459 -0.4508 -0.1463  1.0986
18655SOL    HW156746   7.480   2.857   1.474 -0.0863  1.9919  0.5234
18655SOL    HW256747   7.570   2.769   1.390 -1.5689 -0.4119  1.3737
18656SOL     OW56748   1.181   1.250   6.720  0.6846  0.6950 -0.4554
18656SOL    HW156749   1.271   1.251   6.753  0.6201  0.3941 -0.2751
18656SOL    HW256750   1.186   1.201   6.638  0.0180 -2.8985  1.4676
18657SOL     OW56751   5.506   1.419   2.751 -0.5861 -0.7042 -0.2365
18657SOL    HW156752   5.516   1.507   2.717 -0.6038 -0.6383 -0.0718
18657SOL    HW256753   5.591   1.397   2.790  0.0809 -1.5338 -2.0582
18658SOL     OW56754   7.671   7.239   4.233  0.3089  0.1309 -0.6117
18658SOL    HW156755   7.619   7.253   4.312 -2.6433 -1.7109 -2.0610
18658SOL    HW256756   7.745   7.185   4.262  0.2279  0.8794  1.1205
18659SOL     OW56757   1.430   2.557   6.147 -0.1205  0.9498  0.2659
18659SOL    HW156758   1.499   2.587   6.088 -1.4200 -0.4675 -2.1266
18659SOL    HW256759   1.349   2.593   6.110 -1.0875 -0.8006  0.5491
18660SOL     OW56760   6.694   5.558   1.273 -0.2132 -0.4660  0.4504
18660SOL    HW156761   6.628   5.602   1.326 -0.5002  0.3702 -0.5538
18660SOL    HW256762   6.710   5.474   1.317 -2.0496 -0.7461  0.6401
18661SOL     OW56763   2.078   0.388   4.042 -0.4542 -0.3161 -0.6700
18661SOL    HW156764   1.998   0.346   4.010 -1.3902  0.4313  0.6113
18661SOL    HW256765   2.102   0.449   3.972 -0.9668 -0.5764 -1.0839
18662SOL     OW56766   4.693   5.454   3.864  1.2878 -0.4708 -0.5417
18662SOL    HW156767   4.753   5.490   3.799 -0.3148 -0.8890 -2.3357
18662SOL    HW256768   4.629   5.524   3.878  0.5645 -1.0723 -0.8386
18663SOL     OW56769   5.151   1.221   2.678 -0.5196  0.1217 -0.0136
18663SOL    HW156770   5.110   1.304   2.702 -0.7817 -0.3662  1.2684
18663SOL    HW256771   5.119   1.159   2.743  1.8114 -0.4114  0.7040
18664SOL     OW56772   0.162   5.322   1.350  0.2198 -0.0121 -0.1046
18664SOL    HW156773   0.099   5.250   1.346  1.4150 -1.0334 -2.2435
18664SOL    HW256774   0.142   5.376   1.274  1.8638 -0.3662 -0.8476
18665SOL     OW56775   5.802   7.630   3.152 -0.3518  0.4464 -0.5346
18665SOL    HW156776   5.874   7.615   3.092  1.2470  0.9294  1.1684
18665SOL    HW256777   5.811   7.722   3.179 -2.0237  0.7237 -0.7772
18666SOL     OW56778   1.078   1.464   6.988  0.1368  0.3588 -0.0768
18666SOL    HW156779   1.085   1.369   6.981  0.2489  0.3597  0.0436
18666SOL    HW256780   1.087   1.482   7.081  1.1118  0.5749 -0.2111
18667SOL     OW56781   5.959   2.605   0.786  0.1975  0.4702 -0.1142
18667SOL    HW156782   5.913   2.618   0.703  1.6646 -0.4646 -1.1290
18667SOL    HW256783   6.045   2.572   0.760  0.6187 -0.0410  1.8085
18668SOL     OW56784   3.028   8.149   3.686 -0.4217 -0.4455 -0.2240
18668SOL    HW156785   3.104   8.095   3.706 -1.4235 -1.8146  0.0734
18668SOL    HW256786   3.057   8.239   3.702  0.9215 -0.9851  0.5165
18669SOL     OW56787   5.458   6.433   5.811  0.0654 -0.5549 -0.0390
18669SOL    HW156788   5.547   6.470   5.814  0.3161 -0.9431 -1.5921
18669SOL    HW256789   5.423   6.448   5.898  0.2052  3.2723 -0.4645
18670SOL     OW56790   2.252   3.639   1.705 -0.2213 -0.4908  0.0997
18670SOL    HW156791   2.225   3.722   1.745 -1.0086  0.8255 -2.9176
18670SOL    HW256792   2.327   3.662   1.650 -0.4550 -1.7685 -0.7995
18671SOL     OW56793   0.678   4.438   1.450  0.3233  0.1684  0.6792
18671SOL    HW156794   0.730   4.357   1.440  1.6750  0.6141  3.2260
18671SOL    HW256795   0.710   4.495   1.380  1.6173 -0.4207  0.7580
18672SOL     OW56796   1.742   2.973   6.883  0.4199 -0.1411 -0.0087
18672SOL    HW156797   1.686   3.036   6.929  0.4746  0.2674 -0.4975
18672SOL    HW256798   1.748   2.898   6.943 -1.2832 -0.5266 -0.2908
18673SOL     OW56799   0.743   6.736   7.007 -0.9467 -0.5744 -0.0957
18673SOL    HW156800   0.784   6.822   7.011 -1.2756 -0.4637  1.0458
18673SOL    HW256801   0.760   6.706   6.918  0.1727  0.1740 -0.1490
18674SOL     OW56802   5.283   0.317   8.274 -0.1230 -0.4411 -0.3620
18674SOL    HW156803   5.241   0.232   8.286 -0.2718 -0.3210 -0.0126
18674SOL    HW256804   5.210   0.378   8.258 -0.0727 -0.2591  0.0944
18675SOL     OW56805   6.932   2.851   0.121  0.0130  0.0284 -0.4976
18675SOL    HW156806   6.888   2.935   0.111  0.7359  0.4163 -0.5134
18675SOL    HW256807   7.011   2.859   0.067 -0.3798 -1.0111 -1.2626
18676SOL     OW56808   2.188   3.249   7.764  0.0867 -0.3787 -0.2651
18676SOL    HW156809   2.101   3.253   7.725 -0.4607 -1.8567  0.6928
18676SOL    HW256810   2.187   3.317   7.832  0.0748  0.3268 -0.9577
18677SOL     OW56811   2.327   8.224   0.095 -0.5857  0.7403 -0.4041
18677SOL    HW156812   2.296   8.301   0.048  1.6807  1.5219 -0.7286
18677SOL    HW256813   2.294   8.150   0.044 -0.0648  1.5552 -2.0023
18678SOL     OW56814   4.170   2.810   4.257 -0.3647 -0.4714  0.5171
18678SOL    HW156815   4.261   2.808   4.286 -0.3870 -2.4976  0.6052
18678SOL    HW256816   4.123   2.851   4.329  0.6256  2.2324 -0.2290
18679SOL     OW56817   3.125   7.301   3.734  0.0839 -0.0175 -0.3677
18679SOL    HW156818   3.163   7.363   3.796 -1.7047  0.2732  0.4675
18679SOL    HW256819   3.119   7.219   3.783 -0.0502 -0.1587 -0.6196
18680SOL     OW56820   5.109   2.715   6.038  0.0110 -0.4635 -0.3096
18680SOL    HW156821   5.117   2.770   6.116 -0.8561  1.1082 -1.2835
18680SOL    HW256822   5.025   2.740   6.000 -0.2266 -2.2244 -0.9998
18681SOL     OW56823   2.338   3.936   4.420  0.0599  0.3375  0.0528
18681SOL    HW156824   2.289   3.879   4.361  0.1886 -0.0777  0.3490
18681SOL    HW256825   2.384   3.877   4.480 -1.5016  0.7345  1.7649
18682SOL     OW56826   1.161   1.557   3.584 -0.3545  0.4017 -0.0293
18682SOL    HW156827   1.250   1.522   3.584 -0.0814  0.9812 -2.2750
18682SOL    HW256828   1.160   1.619   3.657  0.7965 -0.2758  0.5877
18683SOL     OW56829   5.625   7.303   6.640 -0.1700  0.7288  0.0933
18683SOL    HW156830   5.559   7.248   6.598  0.2903  0.1248  0.1616
18683SOL    HW256831   5.700   7.246   6.652  0.0431  1.1600  0.8631
18684SOL     OW56832   2.798   8.281   4.862 -0.4857  1.0176  0.2151
18684SOL    HW156833   2.725   8.220   4.865  0.9746 -0.7828  2.4154
18684SOL    HW256834   2.799   8.322   4.949  1.9138 -0.1220  0.8195
18685SOL     OW56835   0.725   0.102   8.058  0.5675  0.3323 -0.6691
18685SOL    HW156836   0.663   0.147   8.000 -1.1103 -1.2487 -0.2159
18685SOL    HW256837   0.807   0.099   8.009  0.3491  2.5760 -1.2677
18686SOL     OW56838   4.382   5.157   6.096 -0.1499 -0.3083  0.8588
18686SOL    HW156839   4.357   5.219   6.028  0.5136  1.7080  2.3353
18686SOL    HW256840   4.470   5.129   6.072  0.0139  0.2581  0.7745
18687SOL     OW56841   7.350   8.138   7.964 -0.2954  0.0676  0.4611
18687SOL    HW156842   7.275   8.090   7.930 -1.5719  1.8637  0.5602
18687SOL    HW256843   7.357   8.111   8.055 -1.0795  0.1456  0.5513
18688SOL     OW56844   0.195   5.308   1.965  0.2505  0.0779  0.1502
18688SOL    HW156845   0.190   5.403   1.975 -0.9012  0.0507  0.0219
18688SOL    HW256846   0.288   5.289   1.956  0.4920  1.1916  0.1900
18689SOL     OW56847   0.279   4.616   4.289 -0.1059  0.3454 -0.1229
18689SOL    HW156848   0.213   4.629   4.357  0.3789 -0.4742  0.5233
18689SOL    HW256849   0.362   4.633   4.333  0.1557  0.8044 -0.7814
18690SOL     OW56850   5.273   2.802   0.956  0.3277  0.3355  0.3113
18690SOL    HW156851   5.360   2.829   0.987  0.4770 -1.1172  1.2685
18690SOL    HW256852   5.289   2.765   0.870  0.6989 -0.0703  0.5498
18691SOL     OW56853   7.134   3.752   0.367 -0.1526  0.4891 -0.2393
18691SOL    HW156854   7.071   3.708   0.424 -0.6703 -0.9682 -1.8232
18691SOL    HW256855   7.084   3.772   0.288  0.9692  0.8024 -0.8847
18692SOL     OW56856   5.853   8.005   4.085  0.2799  0.0418 -0.0160
18692SOL    HW156857   5.814   7.948   4.019 -0.2932 -0.7384  0.9545
18692SOL    HW256858   5.901   8.071   4.035  0.5503 -0.9959 -1.1955
18693SOL     OW56859   6.140   2.642   1.029  0.1470  0.0714 -0.2549
18693SOL    HW156860   6.104   2.688   1.105  0.1254  1.0270 -0.8256
18693SOL    HW256861   6.064   2.605   0.985  0.3091 -2.3407  1.3086
18694SOL     OW56862   6.916   3.927   7.505 -0.2866 -0.1064  0.3732
18694SOL    HW156863   6.975   4.002   7.495  0.0033 -0.3866 -0.0672
18694SOL    HW256864   6.850   3.940   7.437  0.2484 -0.6857 -0.2821
18695SOL     OW56865   0.533   0.261   8.261 -0.2972 -0.1032 -0.0396
18695SOL    HW156866   0.460   0.266   8.323  0.6764  3.5334  1.0745
18695SOL    HW256867   0.581   0.182   8.287 -2.4920 -1.2930  0.6956
18696SOL     OW56868   0.145   0.763   4.216  0.5227  0.1162  0.5019
18696SOL    HW156869   0.095   0.839   4.186  1.4339  0.0069 -1.4051
18696SOL    HW256870   0.219   0.800   4.264 -0.2113  0.3412  1.4869
18697SOL     OW56871   7.591   5.659   5.648 -0.0140  0.2882  0.0486
18697SOL    HW156872   7.520   5.604   5.615  0.3801  0.2425 -0.7455
18697SOL    HW256873   7.631   5.607   5.717 -1.8424  1.0237  1.7562
18698SOL     OW56874   5.586   4.028   5.058 -0.0930  0.4929 -0.5226
18698SOL    HW156875   5.524   4.096   5.085  0.2113  0.2274  0.9036
18698SOL    HW256876   5.645   4.073   4.997 -1.2310  0.9197 -1.3622
18699SOL     OW56877   6.178   7.230   1.949 -0.0340 -0.1827  0.9477
18699SOL    HW156878   6.102   7.181   1.982 -1.3710  1.0994 -0.0488
18699SOL    HW256879   6.185   7.204   1.857 -0.5968  1.2062  0.4800
18700SOL     OW56880   8.122   0.883   1.446  0.2393 -0.4395  0.0513
18700SOL    HW156881   8.059   0.938   1.397  1.1240 -0.4574 -1.1522
18700SOL    HW256882   8.112   0.796   1.408  0.4226 -0.6244  0.4235
18701SOL     OW56883   6.692   5.584   0.686  0.0291 -0.3636 -0.5432
18701SOL    HW156884   6.627   5.609   0.620  1.1472 -0.7900 -1.8468
18701SOL    HW256885   6.715   5.494   0.665 -0.8401 -1.1219  1.5211
18702SOL     OW56886   6.287   5.609   7.506  0.1598 -0.2220  0.2748
18702SOL    HW156887   6.283   5.543   7.436  1.1922  0.7602 -0.7477
18702SOL    HW256888   6.208   5.661   7.494  0.0530 -0.3968  0.2065
18703SOL     OW56889   0.761   3.903   3.676  0.0303  0.0502  0.5255
18703SOL    HW156890   0.824   3.832   3.661 -0.1185  0.4957 -3.3132
18703SOL    HW256891   0.815   3.978   3.700  0.6255 -0.3924  0.5923
18704SOL     OW56892   4.130   7.860   5.209  0.1231 -0.5702  0.0657
18704SOL    HW156893   4.151   7.871   5.302  0.8869 -0.7636 -0.0744
18704SOL    HW256894   4.139   7.948   5.173  0.6912 -0.6458  0.0131
18705SOL     OW56895   5.386   0.412   2.845  0.2391 -0.4929 -0.4930
18705SOL    HW156896   5.449   0.362   2.897  0.0085 -0.9094 -0.6137
18705SOL    HW256897   5.421   0.501   2.845  1.1258 -0.8288 -1.0294
18706SOL     OW56898   4.130   1.162   2.732  1.0603  0.0386  0.0425
18706SOL    HW156899   4.211   1.167   2.782  1.0892 -2.5609  0.3897
18706SOL    HW256900   4.079   1.094   2.776 -0.2391 -0.1501 -1.6535
18707SOL     OW56901   5.327   3.334   6.658 -0.3429  0.3287  0.2796
18707SOL    HW156902   5.380   3.413   6.670  0.6049  0.0438 -1.5643
18707SOL    HW256903   5.378   3.265   6.700  1.8754 -0.2881 -3.0179
18708SOL     OW56904   3.709   6.142   1.145  0.0968  0.2798  0.0722
18708SOL    HW156905   3.804   6.150   1.150  0.3180 -1.7065 -0.3105
18708SOL    HW256906   3.687   6.173   1.057  0.9443 -3.0371 -1.4713
18709SOL     OW56907   6.416   7.106   5.025 -0.3862  0.0692  0.3084
18709SOL    HW156908   6.355   7.042   4.989 -0.1518  0.4079 -0.7297
18709SOL    HW256909   6.499   7.086   4.982 -0.1182  0.5613  0.5914
18710SOL     OW56910   6.203   4.313   6.996  0.5606 -0.5385 -0.1963
18710SOL    HW156911   6.195   4.398   6.954  3.1801  0.2170  0.6948
18710SOL    HW256912   6.297   4.298   7.005  0.1849 -2.0683  2.4976
18711SOL     OW56913   3.795   1.337   5.047  0.3111  0.0122 -0.6505
18711SOL    HW156914   3.704   1.364   5.056  0.6644  0.8490  0.7028
18711SOL    HW256915   3.819   1.303   5.133  2.0019  2.2713 -0.1357
18712SOL     OW56916   5.362   2.864   5.401  0.0492 -0.0907  0.3108
18712SOL    HW156917   5.427   2.915   5.450  0.5618  0.4335 -0.8687
18712SOL    HW256918   5.389   2.873   5.310 -1.5051 -0.1374 -0.1781
18713SOL     OW56919   8.029   3.625   4.118  0.2726 -0.0183  0.2900
18713SOL    HW156920   8.044   3.711   4.077 -0.1779 -0.7865 -1.5962
18713SOL    HW256921   7.937   3.606   4.099  0.2987 -0.8039  0.9363
18714SOL     OW56922   3.362   2.369   6.734  0.2056  0.0194 -0.5499
18714SOL    HW156923   3.298   2.421   6.783  1.7703  1.1651  0.3672
18714SOL    HW256924   3.398   2.430   6.669  0.6981 -0.4745 -0.7480
18715SOL     OW56925   1.717   2.411   3.739 -0.4391 -0.0173  0.3159
18715SOL    HW156926   1.771   2.488   3.758 -1.5541  0.8093  0.2567
18715SOL    HW256927   1.756   2.341   3.791  0.0483  0.8150  1.1123
18716SOL     OW56928   7.794   3.613   1.257  0.4111  0.1904  0.8137
18716SOL    HW156929   7.870   3.662   1.225  0.3487 -0.1958  0.0517
18716SOL    HW256930   7.775   3.551   1.188 -0.2666 -0.0910  1.2437
18717SOL     OW56931   4.965   1.468   7.642 -0.0450  0.3607  0.1785
18717SOL    HW156932   4.997   1.386   7.605  1.2500  1.0702 -0.3267
18717SOL    HW256933   5.011   1.477   7.726  0.3213  0.8786 -0.0712
18718SOL     OW56934   4.909   4.741   3.216  0.6297  0.0761  0.1376
18718SOL    HW156935   4.940   4.652   3.195 -1.2739 -0.7958  0.8331
18718SOL    HW256936   4.825   4.748   3.170  1.3321  2.0278 -0.9545
18719SOL     OW56937   6.665   1.786   4.990 -0.3082 -0.1863  0.5545
18719SOL    HW156938   6.581   1.776   5.036  0.1550 -0.3334  1.3857
18719SOL    HW256939   6.708   1.859   5.035 -0.8012  1.2191 -1.1241
18720SOL     OW56940   5.804   3.727   8.116 -0.4860 -0.1098  0.1688
18720SOL    HW156941   5.875   3.732   8.180 -1.5213  2.5696  1.2679
18720SOL    HW256942   5.847   3.704   8.033  1.1686 -1.6085  1.3696
18721SOL     OW56943   3.051   4.657   7.876 -0.6008 -0.5427  0.2414
18721SOL    HW156944   3.007   4.687   7.956  0.3912  0.3527  0.4731
18721SOL    HW256945   3.135   4.622   7.906  1.1635  2.5912 -0.5950
18722SOL     OW56946   3.377   1.684   5.485 -0.5069  1.0797 -0.3756
18722SOL    HW156947   3.291   1.642   5.490 -0.3986  0.9683  0.7194
18722SOL    HW256948   3.404   1.672   5.394 -1.1775  0.1703 -0.4684
18723SOL     OW56949   6.465   2.545   1.634  0.5838 -0.1202 -0.0622
18723SOL    HW156950   6.389   2.603   1.628  0.1974 -0.5340  0.5988
18723SOL    HW256951   6.526   2.592   1.691  0.0408 -0.5768  0.9315
18724SOL     OW56952   5.232   7.480   6.620  0.2787  0.7235  0.2947
18724SOL    HW156953   5.144   7.475   6.655  0.4442 -1.1965  0.5659
18724SOL    HW256954   5.220   7.472   6.525  0.1420  0.6071  0.3207
18725SOL     OW56955   4.297   6.345   0.075  0.6038 -0.5527  0.0015
18725SOL    HW156956   4.390   6.335   0.095  0.6205 -2.4962 -0.8539
18725SOL    HW256957   4.267   6.256   0.054 -1.4704  0.0172  0.3340
18726SOL     OW56958   5.127   0.224   7.200  0.2243  0.2515 -0.1508
18726SOL    HW156959   5.152   0.309   7.237 -0.2079 -0.3229  1.5550
18726SOL    HW256960   5.045   0.202   7.246  1.3595 -1.9890  0.9468
18727SOL     OW56961   3.224   1.226   4.558  0.4325  0.2432  0.5892
18727SOL    HW156962   3.311   1.191   4.576  0.9505  1.5067  0.6502
18727SOL    HW256963   3.178   1.219   4.642  0.9095  0.7575  0.8999
18728SOL     OW56964   1.290   4.699   5.153 -0.1944 -0.3785  0.1028
18728SOL    HW156965   1.374   4.718   5.195 -0.1367  0.6334 -0.4435
18728SOL    HW256966   1.255   4.785   5.129 -0.3513 -0.9018 -1.6619
18729SOL     OW56967   4.497   7.370   0.953  0.0174  0.4321 -0.6008
18729SOL    HW156968   4.409   7.406   0.965 -0.8711 -1.8244  0.3133
18729SOL    HW256969   4.521   7.394   0.864 -2.2521 -0.2907 -1.4814
18730SOL     OW56970   2.171   2.241   1.444  0.7626 -0.4211  0.0119
18730SOL    HW156971   2.241   2.177   1.439  1.0663 -0.0488 -0.5248
18730SOL    HW256972   2.211   2.324   1.416  0.5715  0.1734  1.3916
18731SOL     OW56973   8.121   4.325   5.973  0.0182  0.4978  0.1893
18731SOL    HW156974   8.119   4.395   5.907 -0.9974 -0.1046 -0.4436
18731SOL    HW256975   8.200   4.275   5.953  0.4092  1.0817  0.2445
18732SOL     OW56976   2.497   2.213   7.459  0.3999  0.5686 -0.0618
18732SOL    HW156977   2.580   2.243   7.497  0.2664  0.5709  0.2271
18732SOL    HW256978   2.468   2.287   7.405  0.2396  0.8379  0.3853
18733SOL     OW56979   4.664   2.310   6.563 -0.5146 -0.5384  0.0499
18733SOL    HW156980   4.581   2.310   6.610 -1.7235  1.6705 -1.9195
18733SOL    HW256981   4.648   2.257   6.485  0.4918 -1.5036  0.4667
18734SOL     OW56982   4.949   6.942   6.078 -0.1624 -0.6197  0.0482
18734SOL    HW156983   4.966   6.938   6.172  0.0438  0.0184  0.0481
18734SOL    HW256984   5.036   6.933   6.038 -0.1382 -0.0220 -0.0459
18735SOL     OW56985   6.732   5.968   2.780 -0.0926 -0.1164 -0.3611
18735SOL    HW156986   6.789   5.959   2.856 -0.0033 -0.0025 -0.4154
18735SOL    HW256987   6.721   6.062   2.769 -1.4569 -0.1472  0.5207
18736SOL     OW56988   1.841   4.090   1.759  0.0284  0.5413  0.4878
18736SOL    HW156989   1.889   4.031   1.818 -0.8907 -0.5271  0.1972
18736SOL    HW256990   1.858   4.177   1.794  2.8460  0.3292 -0.0623
18737SOL     OW56991   4.593   3.381   6.893  0.0218 -0.0683  0.4966
18737SOL    HW156992   4.685   3.393   6.918  0.5551  0.0872 -1.3629
18737SOL    HW256993   4.580   3.443   6.820 -0.5418 -2.4027 -1.5127
18738SOL     OW56994   4.886   1.277   7.957 -0.0822 -0.0367 -0.7399
18738SOL    HW156995   4.840   1.199   7.989  2.0328 -1.8281 -1.7550
18738SOL    HW256996   4.854   1.288   7.868 -0.9776  0.7674 -0.3230
18739SOL     OW56997   8.071   6.304   0.456 -0.7539 -0.4471 -0.4247
18739SOL    HW156998   8.124   6.224   0.456 -3.1465 -2.2002  2.1423
18739SOL    HW256999   8.134   6.374   0.442  2.3573 -2.3484  2.6298
18740SOL     OW57000   4.845   2.521   4.863  0.9175  0.4083 -0.2064
18740SOL    HW157001   4.755   2.552   4.851  1.1461  0.9059 -0.6649
18740SOL    HW257002   4.874   2.496   4.775  0.6046 -1.5195  0.1904
18741SOL     OW57003   0.009   7.416   0.123 -0.4946  0.0434  0.3343
18741SOL    HW157004  -0.050   7.483   0.159 -0.9103  0.2033 -0.6389
18741SOL    HW257005   0.036   7.450   0.038 -1.8628 -1.6782 -0.8453
18742SOL     OW57006   7.032   2.108   7.352  0.6926  0.2998  0.4041
18742SOL    HW157007   7.115   2.094   7.398  0.9187  0.0528 -0.0740
18742SOL    HW257008   7.057   2.136   7.264  0.2579  1.9162  0.7524
18743SOL     OW57009   6.892   4.934   4.832 -0.5055  0.0546 -0.8862
18743SOL    HW157010   6.841   4.968   4.905 -1.0103  0.1739 -1.2817
18743SOL    HW257011   6.826   4.917   4.764  0.1633  1.8540 -2.0455
18744SOL     OW57012   3.230   3.593   5.967  0.2465 -0.0893 -0.3312
18744SOL    HW157013   3.141   3.608   5.934  0.2315 -0.4322 -0.4517
18744SOL    HW257014   3.247   3.501   5.948 -0.0052 -0.4706  1.2263
18745SOL     OW57015   2.968   1.705   8.018  0.1851 -0.5911  0.1708
18745SOL    HW157016   2.900   1.683   7.954 -0.0592 -0.0958  0.2537
18745SOL    HW257017   3.018   1.775   7.976  0.3430 -0.6166  0.3166
18746SOL     OW57018   3.798   2.983   3.538  0.1287  0.0303  0.1699
18746SOL    HW157019   3.713   2.946   3.515  0.5581 -1.1124  0.3395
18746SOL    HW257020   3.779   3.070   3.572 -1.2195 -1.0436  2.3706
18747SOL     OW57021   1.404   1.852   4.963  0.0647 -0.7743 -0.5069
18747SOL    HW157022   1.497   1.835   4.981  0.5074  1.3400 -0.5598
18747SOL    HW257023   1.404   1.896   4.878 -1.0912 -1.4985 -0.9116
18748SOL     OW57024   7.116   0.682   5.384 -0.0653 -0.2091 -0.4479
18748SOL    HW157025   7.048   0.623   5.414  0.3768 -0.6443 -0.2799
18748SOL    HW257026   7.198   0.635   5.401  0.3410  0.7620  0.4010
18749SOL     OW57027   0.368   1.801   1.289  0.6581 -0.5335 -0.1408
18749SOL    HW157028   0.409   1.788   1.204 -2.0356  1.5284 -1.9330
18749SOL    HW257029   0.278   1.769   1.278 -0.7377  2.6219  0.8077
18750SOL     OW57030   6.161   0.238   7.730 -0.5299 -0.0868  0.0927
18750SOL    HW157031   6.155   0.146   7.757 -0.3291 -0.2750 -0.4985
18750SOL    HW257032   6.125   0.287   7.804 -1.1323 -0.6679  0.1902
18751NA      NA57033   5.644   4.985   7.878 -0.2706  0.0155  0.2943
18752NA      NA57034   8.221   4.680   1.960  0.0476 -0.4750 -0.1291
18753NA      NA57035   8.146   4.938   1.475  0.1405  0.4785 -0.3785
18754NA      NA57036   6.346   3.609   3.303  0.1027 -0.4547 -0.2190
18755NA      NA57037   7.751   4.730   2.299 -0.1979  0.1152  0.5908
18756NA      NA57038   2.591   7.398   0.204 -0.0876 -0.1198  0.0867
18757NA      NA57039   5.234   3.969   3.224 -0.1847 -0.5583 -0.0030
18758NA      NA57040   6.137   3.374   2.831  0.1268  0.1495 -0.0405
18759NA      NA57041   7.625   1.629   4.905  0.0775  0.0770  0.0366
18760NA      NA57042   6.842   4.828   3.357  0.1540 -0.0904  0.1283
18761NA      NA57043   6.949   3.541   2.291  0.0869  0.2678  0.1694
18762NA      NA57044   7.860   5.155   6.836  0.5267  0.1717 -0.0500
18763NA      NA57045   5.475   3.902   2.357 -0.2348  0.1326  0.1818
18764NA      NA57046   1.899   5.459   1.947 -0.1350 -0.8652  0.3720
18765NA      NA57047   7.729   4.010   1.713 -0.0406  0.2217 -0.1821
18766NA      NA57048   8.278   4.941   1.769 -0.0900 -0.3871  0.1284
18767NA      NA57049   4.970   7.056   1.786 -0.3885  0.3132 -0.0914
18768NA      NA57050   1.083   2.022   0.853 -0.1252 -0.8485 -0.0480
18769NA      NA57051   7.278   4.396   2.930  0.0716 -0.0831 -0.1027
18770NA      NA57052   1.726   7.847   1.572 -0.0173  0.0336 -0.6789
18771NA      NA57053   7.288   4.510   3.205  0.1528 -0.5332  0.1017
18772NA      NA57054   5.271   4.183   1.326 -0.3437  0.3855 -0.0192
18773NA      NA57055   5.238   3.618   1.410  0.0980  0.3801  0.4454
18774NA      NA57056   7.174   4.683   2.980 -0.3268 -0.2625 -0.1609
18775NA      NA57057   5.353   3.908   1.234 -0.4832 -0.2374 -0.4214
18776NA      NA57058   3.292   7.193   4.482  0.1879  0.2370 -0.2605
18777NA      NA57059   3.811   3.275   8.157 -0.3039  0.4275  0.2120
18778NA      NA57060   6.331   7.432   4.722 -0.2646  0.2587 -0.2158
18779NA      NA57061   0.037   2.487   5.512  0.2825 -0.1731 -0.3860
18780NA      NA57062   4.358   7.154   3.023 -0.0597 -0.2318  0.0624
18781NA      NA57063   6.963   5.330   1.392 -0.1860 -0.0188  0.3195
18782NA      NA57064   5.568   6.485   7.735  0.3227  0.4200 -0.3826
18783NA      NA57065   6.557   4.936   3.345 -0.6093  0.1362  0.6544
18784NA      NA57066   6.183   5.502   1.142 -0.1359 -0.4061  0.7421
18785NA      NA57067   3.595   6.730   6.906 -0.1661  0.4498 -0.0807
18786NA      NA57068   7.593   5.063   2.393  0.4305  0.3063  0.1263
18787NA      NA57069   5.118   6.979   5.115 -0.5221  0.4063  0.2158
18788NA      NA57070   6.076   0.901   4.389  0.4980  0.4548  0.0703
18789NA      NA57071   2.860   3.382   2.018  0.1478  0.4508  0.5985
18790NA      NA57072   7.768   4.053   2.129 -0.4172 -0.3087 -0.8051
18791NA      NA57073   5.440   4.192   3.304 -0.0273  0.2921 -0.1218
18792NA      NA57074   5.591   3.667   2.208 -0.2158 -0.0676  0.1371
18793NA      NA57075   2.974   3.658   7.115  0.0455  0.0720  0.5834
18794NA      NA57076   5.710   3.894   2.152 -0.2388 -0.6422  0.2134
18795NA      NA57077   0.548   3.131   6.452 -0.3499  0.0959  0.3528
18796NA      NA57078   7.930   5.031   2.508  0.3861  0.6099 -0.0490
18797NA      NA57079   7.330   0.525   7.109 -0.2625  0.0920  0.3742
18798NA      NA57080   6.766   3.686   2.125  0.5026  0.2676  0.1737
18799NA      NA57081   4.696   3.882   7.403 -0.0515 -0.3609 -0.1247
18800NA      NA57082   5.149   3.833   2.334 -0.1355 -0.0250  0.5182
18801NA      NA57083   6.134   8.240   7.445  0.3473 -0.2314  0.5474
18802NA      NA57084   7.169   2.005   5.145 -0.1742 -0.1917 -0.1257
18803NA      NA57085   5.886   5.442   1.291  0.2683  0.2580  0.1855
18804NA      NA57086   0.065   5.589   5.655 -0.1499 -0.2030  0.4785
18805NA      NA57087   5.417   1.875   4.718  0.2935  0.5157 -0.1462
18806NA      NA57088   2.953   2.886   1.494  0.4543  0.1639 -0.1687
18807NA      NA57089   3.043   4.491   4.792  0.3932 -0.5960 -0.7638
18808NA      NA57090   0.360   1.886   0.341  0.2574 -0.1434 -0.1613
18809NA      NA57091   4.772   2.603   6.269 -0.3554 -0.3605 -0.0686
18810NA      NA57092   2.245   8.105   5.764 -0.0872 -0.2744 -0.3770
18811NA      NA57093   5.516   0.649   1.402  0.7004  0.0067  0.2881
18812NA      NA57094   2.158   5.692   0.090 -0.1301  0.2563  0.5052
18813NA      NA57095   6.523   4.935   5.043 -0.1501 -0.6643 -0.3014
18814NA      NA57096   6.243   3.387   3.146  0.2203  0.1570  0.4792
18815NA      NA57097   6.237   4.242   4.946  0.3452 -0.1408  0.2101
18816NA      NA57098   3.560   0.043   1.705  0.0406  0.1680  0.4913
18817NA      NA57099   6.149   5.231   3.017 -0.2749 -0.0194 -0.2056
18818NA      NA57100   7.291   3.271   6.268  0.0923 -0.2858 -0.1042
18819NA      NA57101   5.018   6.926   7.131 -0.1272 -0.2622  0.3915
18820NA      NA57102   8.002   4.849   2.299 -0.3347  0.2605  0.2920
18821NA      NA57103   3.660   2.905   7.518  0.0607 -0.3299  0.2691
18822NA      NA57104   4.305   5.984   3.857 -0.1912 -0.0037  0.3141
18823NA      NA57105   7.796   1.077   4.239  0.0585  0.7534  0.1520
18824NA      NA57106   1.899   3.351   2.423 -0.0664  0.0599  0.1447
18825NA      NA57107   7.735   6.926   5.380 -0.3146 -0.7261  0.4406
18826NA      NA57108   7.935   3.863   1.855 -0.2700 -0.6270 -0.5530
18827NA      NA57109   5.899   3.298   3.102  0.0550  0.1665 -0.0616
18828NA      NA57110   3.781   2.506   3.362  0.2685 -0.4915  0.2837
18829NA      NA57111   0.069   3.796   0.991 -0.1772  0.9987  0.2142
18830NA      NA57112   0.550   4.121   2.778 -0.0622  0.3027 -0.0302
18831NA      NA57113   3.665   3.667   5.539 -0.0206 -0.1362  0.4489
18832NA      NA57114   6.164   5.878   2.780  0.1168 -0.5108 -0.2602
18833NA      NA57115   0.658   3.273   0.455  0.2065 -0.0401  0.3551
18834NA      NA57116   5.924   3.660   2.178 -0.0367  0.0974  0.4812
18835NA      NA57117   3.109   4.225   3.387  0.1148 -0.3038 -0.3630
18836CL      CL57118   4.131   2.237   0.095  0.3870 -0.2047 -0.2557
18837CL      CL57119   8.251   5.095   1.339  0.3721  0.2158 -0.3800
18838CL      CL57120   7.168   3.351   3.890 -0.2979 -0.4600 -0.0557
18839CL      CL57121   1.204   4.916   1.877  0.3191  0.0973  0.4571
18840CL      CL57122   4.720   3.282   0.377 -0.0382  0.5065  0.0928
18841CL      CL57123   1.668   6.601   6.783 -0.4087 -0.3972  0.0039
18842CL      CL57124   7.760   5.198   5.861  0.1068  0.0651 -0.3606
18843CL      CL57125   4.189   6.540   3.140 -0.2427 -0.5416  0.0318
18844CL      CL57126   4.049   5.593   4.056 -0.0788 -0.0518  0.6441
18845CL      CL57127   3.366   7.989   2.066  0.0064 -0.0618  0.0233
18846CL      CL57128   6.747   4.471   5.325 -0.3774  0.5436 -0.3368
18847CL      CL57129   0.129   6.787   3.562  0.4778  0.3179 -0.2058
18848CL      CL57130   5.820   6.266   4.230  0.0253 -0.1086 -0.1942
18849CL      CL57131   1.540   1.326   0.232 -0.5533 -0.4226 -0.2794
18850CL      CL57132   7.668   6.251   7.551 -0.0989  0.0174 -0.1602
18851CL      CL57133   1.046   0.972   6.103 -0.1220  0.0696  0.6499
18852CL      CL57134   7.463   6.913   5.757 -0.4535 -0.1853  0.1480
18853CL      CL57135   4.226   2.051   3.478 -0.2943 -0.1351 -0.1775
18854CL      CL57136   6.929   2.967   6.118  0.0094 -0.1003  0.3636
18855CL      CL57137   6.084   4.758   7.136 -0.1161  0.1340  0.2428
18856CL      CL57138   0.923   7.094   5.864 -0.1329  0.4357  0.2989
18857CL      CL57139   4.421   8.057   3.801 -0.4445 -0.2173 -0.0573
18858CL      CL57140   5.293   7.568   1.569  0.2606  0.0236 -0.4148
18859CL      CL57141   4.628   2.193   5.481 -0.0308  0.0109 -0.1108
18860CL      CL57142   0.004   1.533   4.231 -0.5555  0.4995  0.1054
18861CL      CL57143   3.911   3.086   1.779  0.0065 -0.2034  0.1099
18862CL      CL57144   1.997   7.638   1.186  0.0815 -0.0157 -0.3694
18863CL      CL57145   0.619   4.730   3.788 -0.5047  0.3890  0.3450
18864CL      CL57146   4.884   3.326   7.457 -0.4379  0.2001 -0.2297
18865CL      CL57147   6.207   1.204   0.625 -0.4148  0.4942  0.4828
18866CL      CL57148   4.605   4.959   5.963  0.2951 -0.1352  0.0409
18867CL      CL57149   1.415   5.449   2.771 -0.5302  0.2223  0.0455
18868CL      CL57150   5.214   5.272   2.889 -0.0843  0.2826  0.0035
18869CL      CL57151   4.802   4.179   1.869 -0.4060 -0.0355  0.0188
18870CL      CL57152   8.172   2.336   8.195  0.4089  0.0563 -0.0730
18871CL      CL57153   3.707   6.567   8.210 -0.0046  0.4108 -0.2146
18872CL      CL57154   3.796   0.501   3.469 -0.2193  0.1638 -0.2464
18873CL      CL57155   0.749   3.217   7.550  0.1899  0.0121 -0.2068
18874CL      CL57156   3.492   2.892   3.497  0.3386 -0.0031  0.2320
18875CL      CL57157   3.090   3.561   7.304  0.1418  0.3338 -0.2502
18876CL      CL57158   3.418   5.307   7.643 -0.0257  0.1359  0.3058
18877CL      CL57159   4.312   1.628   3.299 -0.0995  0.0460 -0.2476
18878CL      CL57160   0.049   8.046   0.432  0.3731 -0.0300 -0.0952
18879CL      CL57161   7.279   1.804   5.198  0.0952  0.3477  0.2005
18880CL      CL57162   6.168   0.753   7.715 -0.4868  0.1604 -0.5037
18881CL      CL57163   6.958   6.788   5.880 -0.1592  0.3764 -0.0244
18882CL      CL57164   4.207   4.312   1.417  0.0992  0.2772 -0.2928
18883CL      CL57165   4.963   4.001   3.640  0.2205  0.6262 -0.1202
18884CL      CL57166   7.771   1.917   6.412  0.4366 -0.6303  0.1480
18885CL      CL57167   5.476   2.552   2.150  0.0245  0.0752  0.2576
18886CL      CL57168   7.568   7.326   5.460 -0.6922 -0.0520  0.4868
18887CL      CL57169   4.496   4.440   6.643 -0.3710  0.4803  0.8203
18888CL      CL57170   6.542   5.400   5.052  0.0876  0.4506  0.0313
   8.32506   8.32506   8.32506
