;
;   File g2dpncore_petim.itp  was generated
;   By user: sairam (1000)
;   On host: sairam
;   At date: Tue. January  2 15:23:15 2025
;
;   This is a standalone topology file
;
;   Created by:
;   ParmEd:       amb2gro_top_gro.py, VERSION 3.4.1
;   Executable:   amb2gro_top_gro.py
;   Library dir:  /usr/local/gromacs/share/gromacs/top
;   Command line:
;     ./amb2gro_top_gro.py -p g2dpncore_petim.prmtop -c g2dpncore_petim.inpcrd -t g2dpncore_petim.itp -g g2dpncore_petim.gro -b g2dpncore_petim.pdb
;

;[ defaults ]
;; nbfunc        comb-rule       gen-pairs       fudgeLJ fudgeQQ
;1               2               yes             0.5          0.83333333  
;
;[ atomtypes ]
;; name    at.num    mass    charge ptype  sigma      epsilon
;n4             7  14.010000  0.00000000  A     0.32499985        0.71128
;c3             6  12.010000  0.00000000  A     0.33996695      0.4577296
;hx             1   1.008000  0.00000000  A     0.19599772      0.0656888
;hc             1   1.008000  0.00000000  A     0.26495328      0.0656888
;h1             1   1.008000  0.00000000  A      0.2471353      0.0656888
;hn             1   1.008000  0.00000000  A     0.10690785      0.0656888
;os             8  16.000000  0.00000000  A     0.30000123        0.71128


[ moleculetype ]
; Name            nrexcl
g2dpncore_petim          3

[ atoms ]
;   nr       type  resnr residue  atom   cgnr    charge       mass  typeB    chargeB      massB
; residue    1 aaa rtp aaa q 1.0
    1         n4      1    aaa     N1      1 -0.24795800  14.010000   ; qtot -0.247958
    2         c3      1    aaa     C1      2 0.15727100  12.010000   ; qtot -0.090687
    3         hx      1    aaa     H1      3 0.05072400   1.008000   ; qtot -0.039963
    4         hx      1    aaa     H2      4 0.05072400   1.008000   ; qtot 0.010761
    5         c3      1    aaa     C2      5 0.15727100  12.010000   ; qtot 0.168032
    6         hx      1    aaa     H3      6 0.05072400   1.008000   ; qtot 0.218756
    7         hx      1    aaa     H4      7 0.05072400   1.008000   ; qtot 0.269480
    8         c3      1    aaa     C3      8 0.15727100  12.010000   ; qtot 0.426751
    9         hx      1    aaa     H5      9 0.05072400   1.008000   ; qtot 0.477475
   10         hx      1    aaa     H6     10 0.05072400   1.008000   ; qtot 0.528199
   11         c3      1    aaa     C4     11 0.05437700  12.010000   ; qtot 0.582576
   12         hc      1    aaa     H7     12 0.07708700   1.008000   ; qtot 0.659663
   13         hc      1    aaa     H8     13 0.07708700   1.008000   ; qtot 0.736750
   14         c3      1    aaa     C5     14 0.05437700  12.010000   ; qtot 0.791127
   15         hc      1    aaa     H9     15 0.07708700   1.008000   ; qtot 0.868214
   16         hc      1    aaa    H10     16 0.07708700   1.008000   ; qtot 0.945301
   17         c3      1    aaa     C6     17 0.05437700  12.010000   ; qtot 0.999678
   18         hc      1    aaa    H11     18 0.07708700   1.008000   ; qtot 1.076765
   19         hc      1    aaa    H12     19 0.07708700   1.008000   ; qtot 1.153852
   20         c3      1    aaa     C7     20 -0.74569400  12.010000   ; qtot 0.408158
   21         h1      1    aaa    H13     21 0.30837900   1.008000   ; qtot 0.716537
   22         h1      1    aaa    H14     22 0.30837900   1.008000   ; qtot 1.024916
   23         c3      1    aaa     C8     23 -0.74569400  12.010000   ; qtot 0.279222
   24         h1      1    aaa    H15     24 0.30837900   1.008000   ; qtot 0.587601
   25         h1      1    aaa    H16     25 0.30837900   1.008000   ; qtot 0.895980
   26         c3      1    aaa     C9     26 -0.74569400  12.010000   ; qtot 0.150286
   27         h1      1    aaa    H17     27 0.30837900   1.008000   ; qtot 0.458665
   28         h1      1    aaa    H18     28 0.30837900   1.008000   ; qtot 0.767044
   29         hn      1    aaa    H19     29 0.23295100   1.008000   ; qtot 0.999995
; residue    2 bbb rtp bbb q 1.0
   30         n4      2    bbb     N1     30 0.03726400  14.010000   ; qtot 1.037259
   31         c3      2    bbb     C1     31 -0.07020100  12.010000   ; qtot 0.967058
   32         hx      2    bbb     H1     32 0.12219000   1.008000   ; qtot 1.089248
   33         hx      2    bbb     H2     33 0.12219000   1.008000   ; qtot 1.211438
   34         c3      2    bbb     C2     34 -0.07020100  12.010000   ; qtot 1.141237
   35         hx      2    bbb     H3     35 0.12219000   1.008000   ; qtot 1.263427
   36         hx      2    bbb     H4     36 0.12219000   1.008000   ; qtot 1.385617
   37         c3      2    bbb     C3     37 -0.39007700  12.010000   ; qtot 0.995540
   38         hx      2    bbb     H5     38 0.14940300   1.008000   ; qtot 1.144943
   39         hx      2    bbb     H6     39 0.14940300   1.008000   ; qtot 1.294346
   40         c3      2    bbb     C4     40 0.18057300  12.010000   ; qtot 1.474919
   41         hc      2    bbb     H7     41 0.01788900   1.008000   ; qtot 1.492808
   42         hc      2    bbb     H8     42 0.01788900   1.008000   ; qtot 1.510697
   43         c3      2    bbb     C5     43 -0.11337700  12.010000   ; qtot 1.397320
   44         hc      2    bbb     H9     44 0.09515400   1.008000   ; qtot 1.492474
   45         hc      2    bbb    H10     45 0.09515400   1.008000   ; qtot 1.587628
   46         c3      2    bbb     C6     46 -0.11337700  12.010000   ; qtot 1.474251
   47         hc      2    bbb    H11     47 0.09515400   1.008000   ; qtot 1.569405
   48         hc      2    bbb    H12     48 0.09515400   1.008000   ; qtot 1.664559
   49         c3      2    bbb     C7     49 0.21842400  12.010000   ; qtot 1.882983
   50         h1      2    bbb    H13     50 0.04500300   1.008000   ; qtot 1.927986
   51         h1      2    bbb    H14     51 0.04500300   1.008000   ; qtot 1.972989
   52         c3      2    bbb     C8     52 -0.06455200  12.010000   ; qtot 1.908437
   53         h1      2    bbb    H15     53 0.13554100   1.008000   ; qtot 2.043978
   54         h1      2    bbb    H16     54 0.13554100   1.008000   ; qtot 2.179519
   55         c3      2    bbb     C9     55 -0.06455200  12.010000   ; qtot 2.114967
   56         h1      2    bbb    H17     56 0.13554100   1.008000   ; qtot 2.250508
   57         h1      2    bbb    H18     57 0.13554100   1.008000   ; qtot 2.386049
   58         os      2    bbb     O1     58 -0.62587700  16.000000   ; qtot 1.760172
   59         hn      2    bbb    H19     59 0.23982500   1.008000   ; qtot 1.999997
; residue    3 bbb rtp bbb q 1.0
   60         n4      3    bbb     N1     60 0.03726400  14.010000   ; qtot 2.037261
   61         c3      3    bbb     C1     61 -0.07020100  12.010000   ; qtot 1.967060
   62         hx      3    bbb     H1     62 0.12219000   1.008000   ; qtot 2.089250
   63         hx      3    bbb     H2     63 0.12219000   1.008000   ; qtot 2.211440
   64         c3      3    bbb     C2     64 -0.07020100  12.010000   ; qtot 2.141239
   65         hx      3    bbb     H3     65 0.12219000   1.008000   ; qtot 2.263429
   66         hx      3    bbb     H4     66 0.12219000   1.008000   ; qtot 2.385619
   67         c3      3    bbb     C3     67 -0.39007700  12.010000   ; qtot 1.995542
   68         hx      3    bbb     H5     68 0.14940300   1.008000   ; qtot 2.144945
   69         hx      3    bbb     H6     69 0.14940300   1.008000   ; qtot 2.294348
   70         c3      3    bbb     C4     70 0.18057300  12.010000   ; qtot 2.474921
   71         hc      3    bbb     H7     71 0.01788900   1.008000   ; qtot 2.492810
   72         hc      3    bbb     H8     72 0.01788900   1.008000   ; qtot 2.510699
   73         c3      3    bbb     C5     73 -0.11337700  12.010000   ; qtot 2.397322
   74         hc      3    bbb     H9     74 0.09515400   1.008000   ; qtot 2.492476
   75         hc      3    bbb    H10     75 0.09515400   1.008000   ; qtot 2.587630
   76         c3      3    bbb     C6     76 -0.11337700  12.010000   ; qtot 2.474253
   77         hc      3    bbb    H11     77 0.09515400   1.008000   ; qtot 2.569407
   78         hc      3    bbb    H12     78 0.09515400   1.008000   ; qtot 2.664561
   79         c3      3    bbb     C7     79 0.21842400  12.010000   ; qtot 2.882985
   80         h1      3    bbb    H13     80 0.04500300   1.008000   ; qtot 2.927988
   81         h1      3    bbb    H14     81 0.04500300   1.008000   ; qtot 2.972991
   82         c3      3    bbb     C8     82 -0.06455200  12.010000   ; qtot 2.908439
   83         h1      3    bbb    H15     83 0.13554100   1.008000   ; qtot 3.043980
   84         h1      3    bbb    H16     84 0.13554100   1.008000   ; qtot 3.179521
   85         c3      3    bbb     C9     85 -0.06455200  12.010000   ; qtot 3.114969
   86         h1      3    bbb    H17     86 0.13554100   1.008000   ; qtot 3.250510
   87         h1      3    bbb    H18     87 0.13554100   1.008000   ; qtot 3.386051
   88         os      3    bbb     O1     88 -0.62587700  16.000000   ; qtot 2.760174
   89         hn      3    bbb    H19     89 0.23982500   1.008000   ; qtot 2.999999
; residue    4 bbb rtp bbb q 1.0
   90         n4      4    bbb     N1     90 0.03726400  14.010000   ; qtot 3.037263
   91         c3      4    bbb     C1     91 -0.07020100  12.010000   ; qtot 2.967062
   92         hx      4    bbb     H1     92 0.12219000   1.008000   ; qtot 3.089252
   93         hx      4    bbb     H2     93 0.12219000   1.008000   ; qtot 3.211442
   94         c3      4    bbb     C2     94 -0.07020100  12.010000   ; qtot 3.141241
   95         hx      4    bbb     H3     95 0.12219000   1.008000   ; qtot 3.263431
   96         hx      4    bbb     H4     96 0.12219000   1.008000   ; qtot 3.385621
   97         c3      4    bbb     C3     97 -0.39007700  12.010000   ; qtot 2.995544
   98         hx      4    bbb     H5     98 0.14940300   1.008000   ; qtot 3.144947
   99         hx      4    bbb     H6     99 0.14940300   1.008000   ; qtot 3.294350
  100         c3      4    bbb     C4    100 0.18057300  12.010000   ; qtot 3.474923
  101         hc      4    bbb     H7    101 0.01788900   1.008000   ; qtot 3.492812
  102         hc      4    bbb     H8    102 0.01788900   1.008000   ; qtot 3.510701
  103         c3      4    bbb     C5    103 -0.11337700  12.010000   ; qtot 3.397324
  104         hc      4    bbb     H9    104 0.09515400   1.008000   ; qtot 3.492478
  105         hc      4    bbb    H10    105 0.09515400   1.008000   ; qtot 3.587632
  106         c3      4    bbb     C6    106 -0.11337700  12.010000   ; qtot 3.474255
  107         hc      4    bbb    H11    107 0.09515400   1.008000   ; qtot 3.569409
  108         hc      4    bbb    H12    108 0.09515400   1.008000   ; qtot 3.664563
  109         c3      4    bbb     C7    109 0.21842400  12.010000   ; qtot 3.882987
  110         h1      4    bbb    H13    110 0.04500300   1.008000   ; qtot 3.927990
  111         h1      4    bbb    H14    111 0.04500300   1.008000   ; qtot 3.972993
  112         c3      4    bbb     C8    112 -0.06455200  12.010000   ; qtot 3.908441
  113         h1      4    bbb    H15    113 0.13554100   1.008000   ; qtot 4.043982
  114         h1      4    bbb    H16    114 0.13554100   1.008000   ; qtot 4.179523
  115         c3      4    bbb     C9    115 -0.06455200  12.010000   ; qtot 4.114971
  116         h1      4    bbb    H17    116 0.13554100   1.008000   ; qtot 4.250512
  117         h1      4    bbb    H18    117 0.13554100   1.008000   ; qtot 4.386053
  118         os      4    bbb     O1    118 -0.62587700  16.000000   ; qtot 3.760176
  119         hn      4    bbb    H19    119 0.23982500   1.008000   ; qtot 4.000001
; residue    5 bbb rtp bbb q 1.0
  120         n4      5    bbb     N1    120 0.03726400  14.010000   ; qtot 4.037265
  121         c3      5    bbb     C1    121 -0.07020100  12.010000   ; qtot 3.967064
  122         hx      5    bbb     H1    122 0.12219000   1.008000   ; qtot 4.089254
  123         hx      5    bbb     H2    123 0.12219000   1.008000   ; qtot 4.211444
  124         c3      5    bbb     C2    124 -0.07020100  12.010000   ; qtot 4.141243
  125         hx      5    bbb     H3    125 0.12219000   1.008000   ; qtot 4.263433
  126         hx      5    bbb     H4    126 0.12219000   1.008000   ; qtot 4.385623
  127         c3      5    bbb     C3    127 -0.39007700  12.010000   ; qtot 3.995546
  128         hx      5    bbb     H5    128 0.14940300   1.008000   ; qtot 4.144949
  129         hx      5    bbb     H6    129 0.14940300   1.008000   ; qtot 4.294352
  130         c3      5    bbb     C4    130 0.18057300  12.010000   ; qtot 4.474925
  131         hc      5    bbb     H7    131 0.01788900   1.008000   ; qtot 4.492814
  132         hc      5    bbb     H8    132 0.01788900   1.008000   ; qtot 4.510703
  133         c3      5    bbb     C5    133 -0.11337700  12.010000   ; qtot 4.397326
  134         hc      5    bbb     H9    134 0.09515400   1.008000   ; qtot 4.492480
  135         hc      5    bbb    H10    135 0.09515400   1.008000   ; qtot 4.587634
  136         c3      5    bbb     C6    136 -0.11337700  12.010000   ; qtot 4.474257
  137         hc      5    bbb    H11    137 0.09515400   1.008000   ; qtot 4.569411
  138         hc      5    bbb    H12    138 0.09515400   1.008000   ; qtot 4.664565
  139         c3      5    bbb     C7    139 0.21842400  12.010000   ; qtot 4.882989
  140         h1      5    bbb    H13    140 0.04500300   1.008000   ; qtot 4.927992
  141         h1      5    bbb    H14    141 0.04500300   1.008000   ; qtot 4.972995
  142         c3      5    bbb     C8    142 -0.06455200  12.010000   ; qtot 4.908443
  143         h1      5    bbb    H15    143 0.13554100   1.008000   ; qtot 5.043984
  144         h1      5    bbb    H16    144 0.13554100   1.008000   ; qtot 5.179525
  145         c3      5    bbb     C9    145 -0.06455200  12.010000   ; qtot 5.114973
  146         h1      5    bbb    H17    146 0.13554100   1.008000   ; qtot 5.250514
  147         h1      5    bbb    H18    147 0.13554100   1.008000   ; qtot 5.386055
  148         os      5    bbb     O1    148 -0.62587700  16.000000   ; qtot 4.760178
  149         hn      5    bbb    H19    149 0.23982500   1.008000   ; qtot 5.000003
; residue    6 bbb rtp bbb q 1.0
  150         n4      6    bbb     N1    150 0.03726400  14.010000   ; qtot 5.037267
  151         c3      6    bbb     C1    151 -0.07020100  12.010000   ; qtot 4.967066
  152         hx      6    bbb     H1    152 0.12219000   1.008000   ; qtot 5.089256
  153         hx      6    bbb     H2    153 0.12219000   1.008000   ; qtot 5.211446
  154         c3      6    bbb     C2    154 -0.07020100  12.010000   ; qtot 5.141245
  155         hx      6    bbb     H3    155 0.12219000   1.008000   ; qtot 5.263435
  156         hx      6    bbb     H4    156 0.12219000   1.008000   ; qtot 5.385625
  157         c3      6    bbb     C3    157 -0.39007700  12.010000   ; qtot 4.995548
  158         hx      6    bbb     H5    158 0.14940300   1.008000   ; qtot 5.144951
  159         hx      6    bbb     H6    159 0.14940300   1.008000   ; qtot 5.294354
  160         c3      6    bbb     C4    160 0.18057300  12.010000   ; qtot 5.474927
  161         hc      6    bbb     H7    161 0.01788900   1.008000   ; qtot 5.492816
  162         hc      6    bbb     H8    162 0.01788900   1.008000   ; qtot 5.510705
  163         c3      6    bbb     C5    163 -0.11337700  12.010000   ; qtot 5.397328
  164         hc      6    bbb     H9    164 0.09515400   1.008000   ; qtot 5.492482
  165         hc      6    bbb    H10    165 0.09515400   1.008000   ; qtot 5.587636
  166         c3      6    bbb     C6    166 -0.11337700  12.010000   ; qtot 5.474259
  167         hc      6    bbb    H11    167 0.09515400   1.008000   ; qtot 5.569413
  168         hc      6    bbb    H12    168 0.09515400   1.008000   ; qtot 5.664567
  169         c3      6    bbb     C7    169 0.21842400  12.010000   ; qtot 5.882991
  170         h1      6    bbb    H13    170 0.04500300   1.008000   ; qtot 5.927994
  171         h1      6    bbb    H14    171 0.04500300   1.008000   ; qtot 5.972997
  172         c3      6    bbb     C8    172 -0.06455200  12.010000   ; qtot 5.908445
  173         h1      6    bbb    H15    173 0.13554100   1.008000   ; qtot 6.043986
  174         h1      6    bbb    H16    174 0.13554100   1.008000   ; qtot 6.179527
  175         c3      6    bbb     C9    175 -0.06455200  12.010000   ; qtot 6.114975
  176         h1      6    bbb    H17    176 0.13554100   1.008000   ; qtot 6.250516
  177         h1      6    bbb    H18    177 0.13554100   1.008000   ; qtot 6.386057
  178         os      6    bbb     O1    178 -0.62587700  16.000000   ; qtot 5.760180
  179         hn      6    bbb    H19    179 0.23982500   1.008000   ; qtot 6.000005
; residue    7 bbb rtp bbb q 1.0
  180         n4      7    bbb     N1    180 0.03726400  14.010000   ; qtot 6.037269
  181         c3      7    bbb     C1    181 -0.07020100  12.010000   ; qtot 5.967068
  182         hx      7    bbb     H1    182 0.12219000   1.008000   ; qtot 6.089258
  183         hx      7    bbb     H2    183 0.12219000   1.008000   ; qtot 6.211448
  184         c3      7    bbb     C2    184 -0.07020100  12.010000   ; qtot 6.141247
  185         hx      7    bbb     H3    185 0.12219000   1.008000   ; qtot 6.263437
  186         hx      7    bbb     H4    186 0.12219000   1.008000   ; qtot 6.385627
  187         c3      7    bbb     C3    187 -0.39007700  12.010000   ; qtot 5.995550
  188         hx      7    bbb     H5    188 0.14940300   1.008000   ; qtot 6.144953
  189         hx      7    bbb     H6    189 0.14940300   1.008000   ; qtot 6.294356
  190         c3      7    bbb     C4    190 0.18057300  12.010000   ; qtot 6.474929
  191         hc      7    bbb     H7    191 0.01788900   1.008000   ; qtot 6.492818
  192         hc      7    bbb     H8    192 0.01788900   1.008000   ; qtot 6.510707
  193         c3      7    bbb     C5    193 -0.11337700  12.010000   ; qtot 6.397330
  194         hc      7    bbb     H9    194 0.09515400   1.008000   ; qtot 6.492484
  195         hc      7    bbb    H10    195 0.09515400   1.008000   ; qtot 6.587638
  196         c3      7    bbb     C6    196 -0.11337700  12.010000   ; qtot 6.474261
  197         hc      7    bbb    H11    197 0.09515400   1.008000   ; qtot 6.569415
  198         hc      7    bbb    H12    198 0.09515400   1.008000   ; qtot 6.664569
  199         c3      7    bbb     C7    199 0.21842400  12.010000   ; qtot 6.882993
  200         h1      7    bbb    H13    200 0.04500300   1.008000   ; qtot 6.927996
  201         h1      7    bbb    H14    201 0.04500300   1.008000   ; qtot 6.972999
  202         c3      7    bbb     C8    202 -0.06455200  12.010000   ; qtot 6.908447
  203         h1      7    bbb    H15    203 0.13554100   1.008000   ; qtot 7.043988
  204         h1      7    bbb    H16    204 0.13554100   1.008000   ; qtot 7.179529
  205         c3      7    bbb     C9    205 -0.06455200  12.010000   ; qtot 7.114977
  206         h1      7    bbb    H17    206 0.13554100   1.008000   ; qtot 7.250518
  207         h1      7    bbb    H18    207 0.13554100   1.008000   ; qtot 7.386059
  208         os      7    bbb     O1    208 -0.62587700  16.000000   ; qtot 6.760182
  209         hn      7    bbb    H19    209 0.23982500   1.008000   ; qtot 7.000007
; residue    8 bbb rtp bbb q 1.0
  210         n4      8    bbb     N1    210 0.03726400  14.010000   ; qtot 7.037271
  211         c3      8    bbb     C1    211 -0.07020100  12.010000   ; qtot 6.967070
  212         hx      8    bbb     H1    212 0.12219000   1.008000   ; qtot 7.089260
  213         hx      8    bbb     H2    213 0.12219000   1.008000   ; qtot 7.211450
  214         c3      8    bbb     C2    214 -0.07020100  12.010000   ; qtot 7.141249
  215         hx      8    bbb     H3    215 0.12219000   1.008000   ; qtot 7.263439
  216         hx      8    bbb     H4    216 0.12219000   1.008000   ; qtot 7.385629
  217         c3      8    bbb     C3    217 -0.39007700  12.010000   ; qtot 6.995552
  218         hx      8    bbb     H5    218 0.14940300   1.008000   ; qtot 7.144955
  219         hx      8    bbb     H6    219 0.14940300   1.008000   ; qtot 7.294358
  220         c3      8    bbb     C4    220 0.18057300  12.010000   ; qtot 7.474931
  221         hc      8    bbb     H7    221 0.01788900   1.008000   ; qtot 7.492820
  222         hc      8    bbb     H8    222 0.01788900   1.008000   ; qtot 7.510709
  223         c3      8    bbb     C5    223 -0.11337700  12.010000   ; qtot 7.397332
  224         hc      8    bbb     H9    224 0.09515400   1.008000   ; qtot 7.492486
  225         hc      8    bbb    H10    225 0.09515400   1.008000   ; qtot 7.587640
  226         c3      8    bbb     C6    226 -0.11337700  12.010000   ; qtot 7.474263
  227         hc      8    bbb    H11    227 0.09515400   1.008000   ; qtot 7.569417
  228         hc      8    bbb    H12    228 0.09515400   1.008000   ; qtot 7.664571
  229         c3      8    bbb     C7    229 0.21842400  12.010000   ; qtot 7.882995
  230         h1      8    bbb    H13    230 0.04500300   1.008000   ; qtot 7.927998
  231         h1      8    bbb    H14    231 0.04500300   1.008000   ; qtot 7.973001
  232         c3      8    bbb     C8    232 -0.06455200  12.010000   ; qtot 7.908449
  233         h1      8    bbb    H15    233 0.13554100   1.008000   ; qtot 8.043990
  234         h1      8    bbb    H16    234 0.13554100   1.008000   ; qtot 8.179531
  235         c3      8    bbb     C9    235 -0.06455200  12.010000   ; qtot 8.114979
  236         h1      8    bbb    H17    236 0.13554100   1.008000   ; qtot 8.250520
  237         h1      8    bbb    H18    237 0.13554100   1.008000   ; qtot 8.386061
  238         os      8    bbb     O1    238 -0.62587700  16.000000   ; qtot 7.760184
  239         hn      8    bbb    H19    239 0.23982500   1.008000   ; qtot 8.000009
; residue    9 bbb rtp bbb q 1.0
  240         n4      9    bbb     N1    240 0.03726400  14.010000   ; qtot 8.037273
  241         c3      9    bbb     C1    241 -0.07020100  12.010000   ; qtot 7.967072
  242         hx      9    bbb     H1    242 0.12219000   1.008000   ; qtot 8.089262
  243         hx      9    bbb     H2    243 0.12219000   1.008000   ; qtot 8.211452
  244         c3      9    bbb     C2    244 -0.07020100  12.010000   ; qtot 8.141251
  245         hx      9    bbb     H3    245 0.12219000   1.008000   ; qtot 8.263441
  246         hx      9    bbb     H4    246 0.12219000   1.008000   ; qtot 8.385631
  247         c3      9    bbb     C3    247 -0.39007700  12.010000   ; qtot 7.995554
  248         hx      9    bbb     H5    248 0.14940300   1.008000   ; qtot 8.144957
  249         hx      9    bbb     H6    249 0.14940300   1.008000   ; qtot 8.294360
  250         c3      9    bbb     C4    250 0.18057300  12.010000   ; qtot 8.474933
  251         hc      9    bbb     H7    251 0.01788900   1.008000   ; qtot 8.492822
  252         hc      9    bbb     H8    252 0.01788900   1.008000   ; qtot 8.510711
  253         c3      9    bbb     C5    253 -0.11337700  12.010000   ; qtot 8.397334
  254         hc      9    bbb     H9    254 0.09515400   1.008000   ; qtot 8.492488
  255         hc      9    bbb    H10    255 0.09515400   1.008000   ; qtot 8.587642
  256         c3      9    bbb     C6    256 -0.11337700  12.010000   ; qtot 8.474265
  257         hc      9    bbb    H11    257 0.09515400   1.008000   ; qtot 8.569419
  258         hc      9    bbb    H12    258 0.09515400   1.008000   ; qtot 8.664573
  259         c3      9    bbb     C7    259 0.21842400  12.010000   ; qtot 8.882997
  260         h1      9    bbb    H13    260 0.04500300   1.008000   ; qtot 8.928000
  261         h1      9    bbb    H14    261 0.04500300   1.008000   ; qtot 8.973003
  262         c3      9    bbb     C8    262 -0.06455200  12.010000   ; qtot 8.908451
  263         h1      9    bbb    H15    263 0.13554100   1.008000   ; qtot 9.043992
  264         h1      9    bbb    H16    264 0.13554100   1.008000   ; qtot 9.179533
  265         c3      9    bbb     C9    265 -0.06455200  12.010000   ; qtot 9.114981
  266         h1      9    bbb    H17    266 0.13554100   1.008000   ; qtot 9.250522
  267         h1      9    bbb    H18    267 0.13554100   1.008000   ; qtot 9.386063
  268         os      9    bbb     O1    268 -0.62587700  16.000000   ; qtot 8.760186
  269         hn      9    bbb    H19    269 0.23982500   1.008000   ; qtot 9.000011
; residue   10 bbb rtp bbb q 1.0
  270         n4     10    bbb     N1    270 0.03726400  14.010000   ; qtot 9.037275
  271         c3     10    bbb     C1    271 -0.07020100  12.010000   ; qtot 8.967074
  272         hx     10    bbb     H1    272 0.12219000   1.008000   ; qtot 9.089264
  273         hx     10    bbb     H2    273 0.12219000   1.008000   ; qtot 9.211454
  274         c3     10    bbb     C2    274 -0.07020100  12.010000   ; qtot 9.141253
  275         hx     10    bbb     H3    275 0.12219000   1.008000   ; qtot 9.263443
  276         hx     10    bbb     H4    276 0.12219000   1.008000   ; qtot 9.385633
  277         c3     10    bbb     C3    277 -0.39007700  12.010000   ; qtot 8.995556
  278         hx     10    bbb     H5    278 0.14940300   1.008000   ; qtot 9.144959
  279         hx     10    bbb     H6    279 0.14940300   1.008000   ; qtot 9.294362
  280         c3     10    bbb     C4    280 0.18057300  12.010000   ; qtot 9.474935
  281         hc     10    bbb     H7    281 0.01788900   1.008000   ; qtot 9.492824
  282         hc     10    bbb     H8    282 0.01788900   1.008000   ; qtot 9.510713
  283         c3     10    bbb     C5    283 -0.11337700  12.010000   ; qtot 9.397336
  284         hc     10    bbb     H9    284 0.09515400   1.008000   ; qtot 9.492490
  285         hc     10    bbb    H10    285 0.09515400   1.008000   ; qtot 9.587644
  286         c3     10    bbb     C6    286 -0.11337700  12.010000   ; qtot 9.474267
  287         hc     10    bbb    H11    287 0.09515400   1.008000   ; qtot 9.569421
  288         hc     10    bbb    H12    288 0.09515400   1.008000   ; qtot 9.664575
  289         c3     10    bbb     C7    289 0.21842400  12.010000   ; qtot 9.882999
  290         h1     10    bbb    H13    290 0.04500300   1.008000   ; qtot 9.928002
  291         h1     10    bbb    H14    291 0.04500300   1.008000   ; qtot 9.973005
  292         c3     10    bbb     C8    292 -0.06455200  12.010000   ; qtot 9.908453
  293         h1     10    bbb    H15    293 0.13554100   1.008000   ; qtot 10.043994
  294         h1     10    bbb    H16    294 0.13554100   1.008000   ; qtot 10.179535
  295         c3     10    bbb     C9    295 -0.06455200  12.010000   ; qtot 10.114983
  296         h1     10    bbb    H17    296 0.13554100   1.008000   ; qtot 10.250524
  297         h1     10    bbb    H18    297 0.13554100   1.008000   ; qtot 10.386065
  298         os     10    bbb     O1    298 -0.62587700  16.000000   ; qtot 9.760188
  299         hn     10    bbb    H19    299 0.23982500   1.008000   ; qtot 10.000013
; residue   11 ccc rtp ccc q 1.0
  300         c3     11    ccc     C1    300 0.17060900  12.010000   ; qtot 10.170622
  301         hx     11    ccc     H1    301 0.04213200   1.008000   ; qtot 10.212754
  302         hx     11    ccc     H2    302 0.04213200   1.008000   ; qtot 10.254886
  303         c3     11    ccc     C2    303 -0.04496700  12.010000   ; qtot 10.209919
  304         hc     11    ccc     H3    304 0.02647500   1.008000   ; qtot 10.236394
  305         hc     11    ccc     H4    305 0.02647500   1.008000   ; qtot 10.262869
  306         c3     11    ccc     C3    306 0.04732600  12.010000   ; qtot 10.310195
  307         h1     11    ccc     H5    307 0.07030200   1.008000   ; qtot 10.380497
  308         h1     11    ccc     H6    308 0.07030200   1.008000   ; qtot 10.450799
  309         n4     11    ccc     N1    309 -0.21077700  14.010000   ; qtot 10.240022
  310         hn     11    ccc     H7    310 0.28399900   1.008000   ; qtot 10.524021
  311         hn     11    ccc     H8    311 0.28399900   1.008000   ; qtot 10.808020
  312         os     11    ccc     O1    312 -0.09200600  16.000000   ; qtot 10.716014
  313         hn     11    ccc    H17    313 0.28399900   1.008000   ; qtot 11.000013
; residue   12 ccc rtp ccc q 1.0
  314         c3     12    ccc     C1    314 0.17060900  12.010000   ; qtot 11.170622
  315         hx     12    ccc     H1    315 0.04213200   1.008000   ; qtot 11.212754
  316         hx     12    ccc     H2    316 0.04213200   1.008000   ; qtot 11.254886
  317         c3     12    ccc     C2    317 -0.04496700  12.010000   ; qtot 11.209919
  318         hc     12    ccc     H3    318 0.02647500   1.008000   ; qtot 11.236394
  319         hc     12    ccc     H4    319 0.02647500   1.008000   ; qtot 11.262869
  320         c3     12    ccc     C3    320 0.04732600  12.010000   ; qtot 11.310195
  321         h1     12    ccc     H5    321 0.07030200   1.008000   ; qtot 11.380497
  322         h1     12    ccc     H6    322 0.07030200   1.008000   ; qtot 11.450799
  323         n4     12    ccc     N1    323 -0.21077700  14.010000   ; qtot 11.240022
  324         hn     12    ccc     H7    324 0.28399900   1.008000   ; qtot 11.524021
  325         hn     12    ccc     H8    325 0.28399900   1.008000   ; qtot 11.808020
  326         os     12    ccc     O1    326 -0.09200600  16.000000   ; qtot 11.716014
  327         hn     12    ccc    H17    327 0.28399900   1.008000   ; qtot 12.000013
; residue   13 ccc rtp ccc q 1.0
  328         c3     13    ccc     C1    328 0.17060900  12.010000   ; qtot 12.170622
  329         hx     13    ccc     H1    329 0.04213200   1.008000   ; qtot 12.212754
  330         hx     13    ccc     H2    330 0.04213200   1.008000   ; qtot 12.254886
  331         c3     13    ccc     C2    331 -0.04496700  12.010000   ; qtot 12.209919
  332         hc     13    ccc     H3    332 0.02647500   1.008000   ; qtot 12.236394
  333         hc     13    ccc     H4    333 0.02647500   1.008000   ; qtot 12.262869
  334         c3     13    ccc     C3    334 0.04732600  12.010000   ; qtot 12.310195
  335         h1     13    ccc     H5    335 0.07030200   1.008000   ; qtot 12.380497
  336         h1     13    ccc     H6    336 0.07030200   1.008000   ; qtot 12.450799
  337         n4     13    ccc     N1    337 -0.21077700  14.010000   ; qtot 12.240022
  338         hn     13    ccc     H7    338 0.28399900   1.008000   ; qtot 12.524021
  339         hn     13    ccc     H8    339 0.28399900   1.008000   ; qtot 12.808020
  340         os     13    ccc     O1    340 -0.09200600  16.000000   ; qtot 12.716014
  341         hn     13    ccc    H17    341 0.28399900   1.008000   ; qtot 13.000013
; residue   14 ccc rtp ccc q 1.0
  342         c3     14    ccc     C1    342 0.17060900  12.010000   ; qtot 13.170622
  343         hx     14    ccc     H1    343 0.04213200   1.008000   ; qtot 13.212754
  344         hx     14    ccc     H2    344 0.04213200   1.008000   ; qtot 13.254886
  345         c3     14    ccc     C2    345 -0.04496700  12.010000   ; qtot 13.209919
  346         hc     14    ccc     H3    346 0.02647500   1.008000   ; qtot 13.236394
  347         hc     14    ccc     H4    347 0.02647500   1.008000   ; qtot 13.262869
  348         c3     14    ccc     C3    348 0.04732600  12.010000   ; qtot 13.310195
  349         h1     14    ccc     H5    349 0.07030200   1.008000   ; qtot 13.380497
  350         h1     14    ccc     H6    350 0.07030200   1.008000   ; qtot 13.450799
  351         n4     14    ccc     N1    351 -0.21077700  14.010000   ; qtot 13.240022
  352         hn     14    ccc     H7    352 0.28399900   1.008000   ; qtot 13.524021
  353         hn     14    ccc     H8    353 0.28399900   1.008000   ; qtot 13.808020
  354         os     14    ccc     O1    354 -0.09200600  16.000000   ; qtot 13.716014
  355         hn     14    ccc    H17    355 0.28399900   1.008000   ; qtot 14.000013
; residue   15 ccc rtp ccc q 1.0
  356         c3     15    ccc     C1    356 0.17060900  12.010000   ; qtot 14.170622
  357         hx     15    ccc     H1    357 0.04213200   1.008000   ; qtot 14.212754
  358         hx     15    ccc     H2    358 0.04213200   1.008000   ; qtot 14.254886
  359         c3     15    ccc     C2    359 -0.04496700  12.010000   ; qtot 14.209919
  360         hc     15    ccc     H3    360 0.02647500   1.008000   ; qtot 14.236394
  361         hc     15    ccc     H4    361 0.02647500   1.008000   ; qtot 14.262869
  362         c3     15    ccc     C3    362 0.04732600  12.010000   ; qtot 14.310195
  363         h1     15    ccc     H5    363 0.07030200   1.008000   ; qtot 14.380497
  364         h1     15    ccc     H6    364 0.07030200   1.008000   ; qtot 14.450799
  365         n4     15    ccc     N1    365 -0.21077700  14.010000   ; qtot 14.240022
  366         hn     15    ccc     H7    366 0.28399900   1.008000   ; qtot 14.524021
  367         hn     15    ccc     H8    367 0.28399900   1.008000   ; qtot 14.808020
  368         os     15    ccc     O1    368 -0.09200600  16.000000   ; qtot 14.716014
  369         hn     15    ccc    H17    369 0.28399900   1.008000   ; qtot 15.000013
; residue   16 ccc rtp ccc q 1.0
  370         c3     16    ccc     C1    370 0.17060900  12.010000   ; qtot 15.170622
  371         hx     16    ccc     H1    371 0.04213200   1.008000   ; qtot 15.212754
  372         hx     16    ccc     H2    372 0.04213200   1.008000   ; qtot 15.254886
  373         c3     16    ccc     C2    373 -0.04496700  12.010000   ; qtot 15.209919
  374         hc     16    ccc     H3    374 0.02647500   1.008000   ; qtot 15.236394
  375         hc     16    ccc     H4    375 0.02647500   1.008000   ; qtot 15.262869
  376         c3     16    ccc     C3    376 0.04732600  12.010000   ; qtot 15.310195
  377         h1     16    ccc     H5    377 0.07030200   1.008000   ; qtot 15.380497
  378         h1     16    ccc     H6    378 0.07030200   1.008000   ; qtot 15.450799
  379         n4     16    ccc     N1    379 -0.21077700  14.010000   ; qtot 15.240022
  380         hn     16    ccc     H7    380 0.28399900   1.008000   ; qtot 15.524021
  381         hn     16    ccc     H8    381 0.28399900   1.008000   ; qtot 15.808020
  382         os     16    ccc     O1    382 -0.09200600  16.000000   ; qtot 15.716014
  383         hn     16    ccc    H17    383 0.28399900   1.008000   ; qtot 16.000013
; residue   17 ccc rtp ccc q 1.0
  384         c3     17    ccc     C1    384 0.17060900  12.010000   ; qtot 16.170622
  385         hx     17    ccc     H1    385 0.04213200   1.008000   ; qtot 16.212754
  386         hx     17    ccc     H2    386 0.04213200   1.008000   ; qtot 16.254886
  387         c3     17    ccc     C2    387 -0.04496700  12.010000   ; qtot 16.209919
  388         hc     17    ccc     H3    388 0.02647500   1.008000   ; qtot 16.236394
  389         hc     17    ccc     H4    389 0.02647500   1.008000   ; qtot 16.262869
  390         c3     17    ccc     C3    390 0.04732600  12.010000   ; qtot 16.310195
  391         h1     17    ccc     H5    391 0.07030200   1.008000   ; qtot 16.380497
  392         h1     17    ccc     H6    392 0.07030200   1.008000   ; qtot 16.450799
  393         n4     17    ccc     N1    393 -0.21077700  14.010000   ; qtot 16.240022
  394         hn     17    ccc     H7    394 0.28399900   1.008000   ; qtot 16.524021
  395         hn     17    ccc     H8    395 0.28399900   1.008000   ; qtot 16.808020
  396         os     17    ccc     O1    396 -0.09200600  16.000000   ; qtot 16.716014
  397         hn     17    ccc    H17    397 0.28399900   1.008000   ; qtot 17.000013
; residue   18 ccc rtp ccc q 1.0
  398         c3     18    ccc     C1    398 0.17060900  12.010000   ; qtot 17.170622
  399         hx     18    ccc     H1    399 0.04213200   1.008000   ; qtot 17.212754
  400         hx     18    ccc     H2    400 0.04213200   1.008000   ; qtot 17.254886
  401         c3     18    ccc     C2    401 -0.04496700  12.010000   ; qtot 17.209919
  402         hc     18    ccc     H3    402 0.02647500   1.008000   ; qtot 17.236394
  403         hc     18    ccc     H4    403 0.02647500   1.008000   ; qtot 17.262869
  404         c3     18    ccc     C3    404 0.04732600  12.010000   ; qtot 17.310195
  405         h1     18    ccc     H5    405 0.07030200   1.008000   ; qtot 17.380497
  406         h1     18    ccc     H6    406 0.07030200   1.008000   ; qtot 17.450799
  407         n4     18    ccc     N1    407 -0.21077700  14.010000   ; qtot 17.240022
  408         hn     18    ccc     H7    408 0.28399900   1.008000   ; qtot 17.524021
  409         hn     18    ccc     H8    409 0.28399900   1.008000   ; qtot 17.808020
  410         os     18    ccc     O1    410 -0.09200600  16.000000   ; qtot 17.716014
  411         hn     18    ccc    H17    411 0.28399900   1.008000   ; qtot 18.000013
; residue   19 ccc rtp ccc q 1.0
  412         c3     19    ccc     C1    412 0.17060900  12.010000   ; qtot 18.170622
  413         hx     19    ccc     H1    413 0.04213200   1.008000   ; qtot 18.212754
  414         hx     19    ccc     H2    414 0.04213200   1.008000   ; qtot 18.254886
  415         c3     19    ccc     C2    415 -0.04496700  12.010000   ; qtot 18.209919
  416         hc     19    ccc     H3    416 0.02647500   1.008000   ; qtot 18.236394
  417         hc     19    ccc     H4    417 0.02647500   1.008000   ; qtot 18.262869
  418         c3     19    ccc     C3    418 0.04732600  12.010000   ; qtot 18.310195
  419         h1     19    ccc     H5    419 0.07030200   1.008000   ; qtot 18.380497
  420         h1     19    ccc     H6    420 0.07030200   1.008000   ; qtot 18.450799
  421         n4     19    ccc     N1    421 -0.21077700  14.010000   ; qtot 18.240022
  422         hn     19    ccc     H7    422 0.28399900   1.008000   ; qtot 18.524021
  423         hn     19    ccc     H8    423 0.28399900   1.008000   ; qtot 18.808020
  424         os     19    ccc     O1    424 -0.09200600  16.000000   ; qtot 18.716014
  425         hn     19    ccc    H17    425 0.28399900   1.008000   ; qtot 19.000013
; residue   20 ccc rtp ccc q 1.0
  426         c3     20    ccc     C1    426 0.17060900  12.010000   ; qtot 19.170622
  427         hx     20    ccc     H1    427 0.04213200   1.008000   ; qtot 19.212754
  428         hx     20    ccc     H2    428 0.04213200   1.008000   ; qtot 19.254886
  429         c3     20    ccc     C2    429 -0.04496700  12.010000   ; qtot 19.209919
  430         hc     20    ccc     H3    430 0.02647500   1.008000   ; qtot 19.236394
  431         hc     20    ccc     H4    431 0.02647500   1.008000   ; qtot 19.262869
  432         c3     20    ccc     C3    432 0.04732600  12.010000   ; qtot 19.310195
  433         h1     20    ccc     H5    433 0.07030200   1.008000   ; qtot 19.380497
  434         h1     20    ccc     H6    434 0.07030200   1.008000   ; qtot 19.450799
  435         n4     20    ccc     N1    435 -0.21077700  14.010000   ; qtot 19.240022
  436         hn     20    ccc     H7    436 0.28399900   1.008000   ; qtot 19.524021
  437         hn     20    ccc     H8    437 0.28399900   1.008000   ; qtot 19.808020
  438         os     20    ccc     O1    438 -0.09200600  16.000000   ; qtot 19.716014
  439         hn     20    ccc    H17    439 0.28399900   1.008000   ; qtot 20.000013
; residue   21 ccc rtp ccc q 1.0
  440         c3     21    ccc     C1    440 0.17060900  12.010000   ; qtot 20.170622
  441         hx     21    ccc     H1    441 0.04213200   1.008000   ; qtot 20.212754
  442         hx     21    ccc     H2    442 0.04213200   1.008000   ; qtot 20.254886
  443         c3     21    ccc     C2    443 -0.04496700  12.010000   ; qtot 20.209919
  444         hc     21    ccc     H3    444 0.02647500   1.008000   ; qtot 20.236394
  445         hc     21    ccc     H4    445 0.02647500   1.008000   ; qtot 20.262869
  446         c3     21    ccc     C3    446 0.04732600  12.010000   ; qtot 20.310195
  447         h1     21    ccc     H5    447 0.07030200   1.008000   ; qtot 20.380497
  448         h1     21    ccc     H6    448 0.07030200   1.008000   ; qtot 20.450799
  449         n4     21    ccc     N1    449 -0.21077700  14.010000   ; qtot 20.240022
  450         hn     21    ccc     H7    450 0.28399900   1.008000   ; qtot 20.524021
  451         hn     21    ccc     H8    451 0.28399900   1.008000   ; qtot 20.808020
  452         os     21    ccc     O1    452 -0.09200600  16.000000   ; qtot 20.716014
  453         hn     21    ccc    H17    453 0.28399900   1.008000   ; qtot 21.000013
; residue   22 ccc rtp ccc q 1.0
  454         c3     22    ccc     C1    454 0.17060900  12.010000   ; qtot 21.170622
  455         hx     22    ccc     H1    455 0.04213200   1.008000   ; qtot 21.212754
  456         hx     22    ccc     H2    456 0.04213200   1.008000   ; qtot 21.254886
  457         c3     22    ccc     C2    457 -0.04496700  12.010000   ; qtot 21.209919
  458         hc     22    ccc     H3    458 0.02647500   1.008000   ; qtot 21.236394
  459         hc     22    ccc     H4    459 0.02647500   1.008000   ; qtot 21.262869
  460         c3     22    ccc     C3    460 0.04732600  12.010000   ; qtot 21.310195
  461         h1     22    ccc     H5    461 0.07030200   1.008000   ; qtot 21.380497
  462         h1     22    ccc     H6    462 0.07030200   1.008000   ; qtot 21.450799
  463         n4     22    ccc     N1    463 -0.21077700  14.010000   ; qtot 21.240022
  464         hn     22    ccc     H7    464 0.28399900   1.008000   ; qtot 21.524021
  465         hn     22    ccc     H8    465 0.28399900   1.008000   ; qtot 21.808020
  466         os     22    ccc     O1    466 -0.09200600  16.000000   ; qtot 21.716014
  467         hn     22    ccc    H17    467 0.28399900   1.008000   ; qtot 22.000013

[ bonds ]
;    ai     aj funct         c0         c1         c2         c3
      1      2     1   0.15110 237065.440000
      1      5     1   0.15110 237065.440000
      1      8     1   0.15110 237065.440000
      2     14     1   0.15375 251793.120000
      5     17     1   0.15375 251793.120000
      8     11     1   0.15375 251793.120000
     11     23     1   0.15375 251793.120000
     14     26     1   0.15375 251793.120000
     17     20     1   0.15375 251793.120000
     20     58     1   0.14316 258236.480000
     23     88     1   0.14316 258236.480000
     26    118     1   0.14316 258236.480000
     30     31     1   0.15110 237065.440000
     30     34     1   0.15110 237065.440000
     30     37     1   0.15110 237065.440000
     31     43     1   0.15375 251793.120000
     34     46     1   0.15375 251793.120000
     37     40     1   0.15375 251793.120000
     40     49     1   0.15375 251793.120000
     43     55     1   0.15375 251793.120000
     46     52     1   0.15375 251793.120000
     49     58     1   0.14316 258236.480000
     52    148     1   0.14316 258236.480000
     55    178     1   0.14316 258236.480000
     60     61     1   0.15110 237065.440000
     60     64     1   0.15110 237065.440000
     60     67     1   0.15110 237065.440000
     61     73     1   0.15375 251793.120000
     64     76     1   0.15375 251793.120000
     67     70     1   0.15375 251793.120000
     70     79     1   0.15375 251793.120000
     73     85     1   0.15375 251793.120000
     76     82     1   0.15375 251793.120000
     79     88     1   0.14316 258236.480000
     82    208     1   0.14316 258236.480000
     85    238     1   0.14316 258236.480000
     90     91     1   0.15110 237065.440000
     90     94     1   0.15110 237065.440000
     90     97     1   0.15110 237065.440000
     91    103     1   0.15375 251793.120000
     94    106     1   0.15375 251793.120000
     97    100     1   0.15375 251793.120000
    100    109     1   0.15375 251793.120000
    103    115     1   0.15375 251793.120000
    106    112     1   0.15375 251793.120000
    109    118     1   0.14316 258236.480000
    112    268     1   0.14316 258236.480000
    115    298     1   0.14316 258236.480000
    120    121     1   0.15110 237065.440000
    120    124     1   0.15110 237065.440000
    120    127     1   0.15110 237065.440000
    121    133     1   0.15375 251793.120000
    124    136     1   0.15375 251793.120000
    127    130     1   0.15375 251793.120000
    130    139     1   0.15375 251793.120000
    133    145     1   0.15375 251793.120000
    136    142     1   0.15375 251793.120000
    139    148     1   0.14316 258236.480000
    142    312     1   0.14316 258236.480000
    145    326     1   0.14316 258236.480000
    150    151     1   0.15110 237065.440000
    150    154     1   0.15110 237065.440000
    150    157     1   0.15110 237065.440000
    151    163     1   0.15375 251793.120000
    154    166     1   0.15375 251793.120000
    157    160     1   0.15375 251793.120000
    160    169     1   0.15375 251793.120000
    163    175     1   0.15375 251793.120000
    166    172     1   0.15375 251793.120000
    169    178     1   0.14316 258236.480000
    172    340     1   0.14316 258236.480000
    175    354     1   0.14316 258236.480000
    180    181     1   0.15110 237065.440000
    180    184     1   0.15110 237065.440000
    180    187     1   0.15110 237065.440000
    181    193     1   0.15375 251793.120000
    184    196     1   0.15375 251793.120000
    187    190     1   0.15375 251793.120000
    190    199     1   0.15375 251793.120000
    193    205     1   0.15375 251793.120000
    196    202     1   0.15375 251793.120000
    199    208     1   0.14316 258236.480000
    202    368     1   0.14316 258236.480000
    205    382     1   0.14316 258236.480000
    210    211     1   0.15110 237065.440000
    210    214     1   0.15110 237065.440000
    210    217     1   0.15110 237065.440000
    211    223     1   0.15375 251793.120000
    214    226     1   0.15375 251793.120000
    217    220     1   0.15375 251793.120000
    220    229     1   0.15375 251793.120000
    223    235     1   0.15375 251793.120000
    226    232     1   0.15375 251793.120000
    229    238     1   0.14316 258236.480000
    232    396     1   0.14316 258236.480000
    235    410     1   0.14316 258236.480000
    240    241     1   0.15110 237065.440000
    240    244     1   0.15110 237065.440000
    240    247     1   0.15110 237065.440000
    241    253     1   0.15375 251793.120000
    244    256     1   0.15375 251793.120000
    247    250     1   0.15375 251793.120000
    250    259     1   0.15375 251793.120000
    253    265     1   0.15375 251793.120000
    256    262     1   0.15375 251793.120000
    259    268     1   0.14316 258236.480000
    262    424     1   0.14316 258236.480000
    265    438     1   0.14316 258236.480000
    270    271     1   0.15110 237065.440000
    270    274     1   0.15110 237065.440000
    270    277     1   0.15110 237065.440000
    271    283     1   0.15375 251793.120000
    274    286     1   0.15375 251793.120000
    277    280     1   0.15375 251793.120000
    280    289     1   0.15375 251793.120000
    283    295     1   0.15375 251793.120000
    286    292     1   0.15375 251793.120000
    289    298     1   0.14316 258236.480000
    292    452     1   0.14316 258236.480000
    295    466     1   0.14316 258236.480000
    300    303     1   0.15375 251793.120000
    300    309     1   0.15110 237065.440000
    303    306     1   0.15375 251793.120000
    306    312     1   0.14316 258236.480000
    314    317     1   0.15375 251793.120000
    314    323     1   0.15110 237065.440000
    317    320     1   0.15375 251793.120000
    320    326     1   0.14316 258236.480000
    328    331     1   0.15375 251793.120000
    328    337     1   0.15110 237065.440000
    331    334     1   0.15375 251793.120000
    334    340     1   0.14316 258236.480000
    342    345     1   0.15375 251793.120000
    342    351     1   0.15110 237065.440000
    345    348     1   0.15375 251793.120000
    348    354     1   0.14316 258236.480000
    356    359     1   0.15375 251793.120000
    356    365     1   0.15110 237065.440000
    359    362     1   0.15375 251793.120000
    362    368     1   0.14316 258236.480000
    370    373     1   0.15375 251793.120000
    370    379     1   0.15110 237065.440000
    373    376     1   0.15375 251793.120000
    376    382     1   0.14316 258236.480000
    384    387     1   0.15375 251793.120000
    384    393     1   0.15110 237065.440000
    387    390     1   0.15375 251793.120000
    390    396     1   0.14316 258236.480000
    398    401     1   0.15375 251793.120000
    398    407     1   0.15110 237065.440000
    401    404     1   0.15375 251793.120000
    404    410     1   0.14316 258236.480000
    412    415     1   0.15375 251793.120000
    412    421     1   0.15110 237065.440000
    415    418     1   0.15375 251793.120000
    418    424     1   0.14316 258236.480000
    426    429     1   0.15375 251793.120000
    426    435     1   0.15110 237065.440000
    429    432     1   0.15375 251793.120000
    432    438     1   0.14316 258236.480000
    440    443     1   0.15375 251793.120000
    440    449     1   0.15110 237065.440000
    443    446     1   0.15375 251793.120000
    446    452     1   0.14316 258236.480000
    454    457     1   0.15375 251793.120000
    454    463     1   0.15110 237065.440000
    457    460     1   0.15375 251793.120000
    460    466     1   0.14316 258236.480000
      1     29     1   0.10304 312293.760000
      2      3     1   0.10910 283424.160000
      2      4     1   0.10910 283424.160000
      5      6     1   0.10910 283424.160000
      5      7     1   0.10910 283424.160000
      8      9     1   0.10910 283424.160000
      8     10     1   0.10910 283424.160000
     11     12     1   0.10969 276646.080000
     11     13     1   0.10969 276646.080000
     14     15     1   0.10969 276646.080000
     14     16     1   0.10969 276646.080000
     17     18     1   0.10969 276646.080000
     17     19     1   0.10969 276646.080000
     20     21     1   0.10969 276646.080000
     20     22     1   0.10969 276646.080000
     23     24     1   0.10969 276646.080000
     23     25     1   0.10969 276646.080000
     26     27     1   0.10969 276646.080000
     26     28     1   0.10969 276646.080000
     30     59     1   0.10304 312293.760000
     31     32     1   0.10910 283424.160000
     31     33     1   0.10910 283424.160000
     34     35     1   0.10910 283424.160000
     34     36     1   0.10910 283424.160000
     37     38     1   0.10910 283424.160000
     37     39     1   0.10910 283424.160000
     40     41     1   0.10969 276646.080000
     40     42     1   0.10969 276646.080000
     43     44     1   0.10969 276646.080000
     43     45     1   0.10969 276646.080000
     46     47     1   0.10969 276646.080000
     46     48     1   0.10969 276646.080000
     49     50     1   0.10969 276646.080000
     49     51     1   0.10969 276646.080000
     52     53     1   0.10969 276646.080000
     52     54     1   0.10969 276646.080000
     55     56     1   0.10969 276646.080000
     55     57     1   0.10969 276646.080000
     60     89     1   0.10304 312293.760000
     61     62     1   0.10910 283424.160000
     61     63     1   0.10910 283424.160000
     64     65     1   0.10910 283424.160000
     64     66     1   0.10910 283424.160000
     67     68     1   0.10910 283424.160000
     67     69     1   0.10910 283424.160000
     70     71     1   0.10969 276646.080000
     70     72     1   0.10969 276646.080000
     73     74     1   0.10969 276646.080000
     73     75     1   0.10969 276646.080000
     76     77     1   0.10969 276646.080000
     76     78     1   0.10969 276646.080000
     79     80     1   0.10969 276646.080000
     79     81     1   0.10969 276646.080000
     82     83     1   0.10969 276646.080000
     82     84     1   0.10969 276646.080000
     85     86     1   0.10969 276646.080000
     85     87     1   0.10969 276646.080000
     90    119     1   0.10304 312293.760000
     91     92     1   0.10910 283424.160000
     91     93     1   0.10910 283424.160000
     94     95     1   0.10910 283424.160000
     94     96     1   0.10910 283424.160000
     97     98     1   0.10910 283424.160000
     97     99     1   0.10910 283424.160000
    100    101     1   0.10969 276646.080000
    100    102     1   0.10969 276646.080000
    103    104     1   0.10969 276646.080000
    103    105     1   0.10969 276646.080000
    106    107     1   0.10969 276646.080000
    106    108     1   0.10969 276646.080000
    109    110     1   0.10969 276646.080000
    109    111     1   0.10969 276646.080000
    112    113     1   0.10969 276646.080000
    112    114     1   0.10969 276646.080000
    115    116     1   0.10969 276646.080000
    115    117     1   0.10969 276646.080000
    120    149     1   0.10304 312293.760000
    121    122     1   0.10910 283424.160000
    121    123     1   0.10910 283424.160000
    124    125     1   0.10910 283424.160000
    124    126     1   0.10910 283424.160000
    127    128     1   0.10910 283424.160000
    127    129     1   0.10910 283424.160000
    130    131     1   0.10969 276646.080000
    130    132     1   0.10969 276646.080000
    133    134     1   0.10969 276646.080000
    133    135     1   0.10969 276646.080000
    136    137     1   0.10969 276646.080000
    136    138     1   0.10969 276646.080000
    139    140     1   0.10969 276646.080000
    139    141     1   0.10969 276646.080000
    142    143     1   0.10969 276646.080000
    142    144     1   0.10969 276646.080000
    145    146     1   0.10969 276646.080000
    145    147     1   0.10969 276646.080000
    150    179     1   0.10304 312293.760000
    151    152     1   0.10910 283424.160000
    151    153     1   0.10910 283424.160000
    154    155     1   0.10910 283424.160000
    154    156     1   0.10910 283424.160000
    157    158     1   0.10910 283424.160000
    157    159     1   0.10910 283424.160000
    160    161     1   0.10969 276646.080000
    160    162     1   0.10969 276646.080000
    163    164     1   0.10969 276646.080000
    163    165     1   0.10969 276646.080000
    166    167     1   0.10969 276646.080000
    166    168     1   0.10969 276646.080000
    169    170     1   0.10969 276646.080000
    169    171     1   0.10969 276646.080000
    172    173     1   0.10969 276646.080000
    172    174     1   0.10969 276646.080000
    175    176     1   0.10969 276646.080000
    175    177     1   0.10969 276646.080000
    180    209     1   0.10304 312293.760000
    181    182     1   0.10910 283424.160000
    181    183     1   0.10910 283424.160000
    184    185     1   0.10910 283424.160000
    184    186     1   0.10910 283424.160000
    187    188     1   0.10910 283424.160000
    187    189     1   0.10910 283424.160000
    190    191     1   0.10969 276646.080000
    190    192     1   0.10969 276646.080000
    193    194     1   0.10969 276646.080000
    193    195     1   0.10969 276646.080000
    196    197     1   0.10969 276646.080000
    196    198     1   0.10969 276646.080000
    199    200     1   0.10969 276646.080000
    199    201     1   0.10969 276646.080000
    202    203     1   0.10969 276646.080000
    202    204     1   0.10969 276646.080000
    205    206     1   0.10969 276646.080000
    205    207     1   0.10969 276646.080000
    210    239     1   0.10304 312293.760000
    211    212     1   0.10910 283424.160000
    211    213     1   0.10910 283424.160000
    214    215     1   0.10910 283424.160000
    214    216     1   0.10910 283424.160000
    217    218     1   0.10910 283424.160000
    217    219     1   0.10910 283424.160000
    220    221     1   0.10969 276646.080000
    220    222     1   0.10969 276646.080000
    223    224     1   0.10969 276646.080000
    223    225     1   0.10969 276646.080000
    226    227     1   0.10969 276646.080000
    226    228     1   0.10969 276646.080000
    229    230     1   0.10969 276646.080000
    229    231     1   0.10969 276646.080000
    232    233     1   0.10969 276646.080000
    232    234     1   0.10969 276646.080000
    235    236     1   0.10969 276646.080000
    235    237     1   0.10969 276646.080000
    240    269     1   0.10304 312293.760000
    241    242     1   0.10910 283424.160000
    241    243     1   0.10910 283424.160000
    244    245     1   0.10910 283424.160000
    244    246     1   0.10910 283424.160000
    247    248     1   0.10910 283424.160000
    247    249     1   0.10910 283424.160000
    250    251     1   0.10969 276646.080000
    250    252     1   0.10969 276646.080000
    253    254     1   0.10969 276646.080000
    253    255     1   0.10969 276646.080000
    256    257     1   0.10969 276646.080000
    256    258     1   0.10969 276646.080000
    259    260     1   0.10969 276646.080000
    259    261     1   0.10969 276646.080000
    262    263     1   0.10969 276646.080000
    262    264     1   0.10969 276646.080000
    265    266     1   0.10969 276646.080000
    265    267     1   0.10969 276646.080000
    270    299     1   0.10304 312293.760000
    271    272     1   0.10910 283424.160000
    271    273     1   0.10910 283424.160000
    274    275     1   0.10910 283424.160000
    274    276     1   0.10910 283424.160000
    277    278     1   0.10910 283424.160000
    277    279     1   0.10910 283424.160000
    280    281     1   0.10969 276646.080000
    280    282     1   0.10969 276646.080000
    283    284     1   0.10969 276646.080000
    283    285     1   0.10969 276646.080000
    286    287     1   0.10969 276646.080000
    286    288     1   0.10969 276646.080000
    289    290     1   0.10969 276646.080000
    289    291     1   0.10969 276646.080000
    292    293     1   0.10969 276646.080000
    292    294     1   0.10969 276646.080000
    295    296     1   0.10969 276646.080000
    295    297     1   0.10969 276646.080000
    300    301     1   0.10910 283424.160000
    300    302     1   0.10910 283424.160000
    303    304     1   0.10969 276646.080000
    303    305     1   0.10969 276646.080000
    306    307     1   0.10969 276646.080000
    306    308     1   0.10969 276646.080000
    309    310     1   0.10304 312293.760000
    309    311     1   0.10304 312293.760000
    309    313     1   0.10304 312293.760000
    314    315     1   0.10910 283424.160000
    314    316     1   0.10910 283424.160000
    317    318     1   0.10969 276646.080000
    317    319     1   0.10969 276646.080000
    320    321     1   0.10969 276646.080000
    320    322     1   0.10969 276646.080000
    323    324     1   0.10304 312293.760000
    323    325     1   0.10304 312293.760000
    323    327     1   0.10304 312293.760000
    328    329     1   0.10910 283424.160000
    328    330     1   0.10910 283424.160000
    331    332     1   0.10969 276646.080000
    331    333     1   0.10969 276646.080000
    334    335     1   0.10969 276646.080000
    334    336     1   0.10969 276646.080000
    337    338     1   0.10304 312293.760000
    337    339     1   0.10304 312293.760000
    337    341     1   0.10304 312293.760000
    342    343     1   0.10910 283424.160000
    342    344     1   0.10910 283424.160000
    345    346     1   0.10969 276646.080000
    345    347     1   0.10969 276646.080000
    348    349     1   0.10969 276646.080000
    348    350     1   0.10969 276646.080000
    351    352     1   0.10304 312293.760000
    351    353     1   0.10304 312293.760000
    351    355     1   0.10304 312293.760000
    356    357     1   0.10910 283424.160000
    356    358     1   0.10910 283424.160000
    359    360     1   0.10969 276646.080000
    359    361     1   0.10969 276646.080000
    362    363     1   0.10969 276646.080000
    362    364     1   0.10969 276646.080000
    365    366     1   0.10304 312293.760000
    365    367     1   0.10304 312293.760000
    365    369     1   0.10304 312293.760000
    370    371     1   0.10910 283424.160000
    370    372     1   0.10910 283424.160000
    373    374     1   0.10969 276646.080000
    373    375     1   0.10969 276646.080000
    376    377     1   0.10969 276646.080000
    376    378     1   0.10969 276646.080000
    379    380     1   0.10304 312293.760000
    379    381     1   0.10304 312293.760000
    379    383     1   0.10304 312293.760000
    384    385     1   0.10910 283424.160000
    384    386     1   0.10910 283424.160000
    387    388     1   0.10969 276646.080000
    387    389     1   0.10969 276646.080000
    390    391     1   0.10969 276646.080000
    390    392     1   0.10969 276646.080000
    393    394     1   0.10304 312293.760000
    393    395     1   0.10304 312293.760000
    393    397     1   0.10304 312293.760000
    398    399     1   0.10910 283424.160000
    398    400     1   0.10910 283424.160000
    401    402     1   0.10969 276646.080000
    401    403     1   0.10969 276646.080000
    404    405     1   0.10969 276646.080000
    404    406     1   0.10969 276646.080000
    407    408     1   0.10304 312293.760000
    407    409     1   0.10304 312293.760000
    407    411     1   0.10304 312293.760000
    412    413     1   0.10910 283424.160000
    412    414     1   0.10910 283424.160000
    415    416     1   0.10969 276646.080000
    415    417     1   0.10969 276646.080000
    418    419     1   0.10969 276646.080000
    418    420     1   0.10969 276646.080000
    421    422     1   0.10304 312293.760000
    421    423     1   0.10304 312293.760000
    421    425     1   0.10304 312293.760000
    426    427     1   0.10910 283424.160000
    426    428     1   0.10910 283424.160000
    429    430     1   0.10969 276646.080000
    429    431     1   0.10969 276646.080000
    432    433     1   0.10969 276646.080000
    432    434     1   0.10969 276646.080000
    435    436     1   0.10304 312293.760000
    435    437     1   0.10304 312293.760000
    435    439     1   0.10304 312293.760000
    440    441     1   0.10910 283424.160000
    440    442     1   0.10910 283424.160000
    443    444     1   0.10969 276646.080000
    443    445     1   0.10969 276646.080000
    446    447     1   0.10969 276646.080000
    446    448     1   0.10969 276646.080000
    449    450     1   0.10304 312293.760000
    449    451     1   0.10304 312293.760000
    449    453     1   0.10304 312293.760000
    454    455     1   0.10910 283424.160000
    454    456     1   0.10910 283424.160000
    457    458     1   0.10969 276646.080000
    457    459     1   0.10969 276646.080000
    460    461     1   0.10969 276646.080000
    460    462     1   0.10969 276646.080000
    463    464     1   0.10304 312293.760000
    463    465     1   0.10304 312293.760000
    463    467     1   0.10304 312293.760000

[ pairs ]
;    ai     aj funct         c0         c1         c2         c3
      1     26     1
      1     20     1
      1     23     1
      2     17     1
      2     11     1
      2    118     1
      5     14     1
      5     11     1
      5     58     1
      8     14     1
      8     17     1
      8     88     1
     11     79     1
     14    109     1
     17     49     1
     20     40     1
     23     70     1
     26    100     1
     30     55     1
     30     52     1
     30     49     1
     31     46     1
     31     40     1
     31    178     1
     34     43     1
     34     40     1
     34    148     1
     37     43     1
     37     46     1
     37     58     1
     43    169     1
     46    139     1
     52    130     1
     55    160     1
     60     85     1
     60     82     1
     60     79     1
     61     76     1
     61     70     1
     61    238     1
     64     73     1
     64     70     1
     64    208     1
     67     73     1
     67     76     1
     67     88     1
     73    229     1
     76    199     1
     82    190     1
     85    220     1
     90    115     1
     90    112     1
     90    109     1
     91    106     1
     91    100     1
     91    298     1
     94    103     1
     94    100     1
     94    268     1
     97    103     1
     97    106     1
     97    118     1
    103    289     1
    106    259     1
    112    250     1
    115    280     1
    120    145     1
    120    142     1
    120    139     1
    121    136     1
    121    130     1
    121    326     1
    124    133     1
    124    130     1
    124    312     1
    127    133     1
    127    136     1
    127    148     1
    133    320     1
    136    306     1
    142    303     1
    145    317     1
    150    175     1
    150    172     1
    150    169     1
    151    166     1
    151    160     1
    151    354     1
    154    163     1
    154    160     1
    154    340     1
    157    163     1
    157    166     1
    157    178     1
    163    348     1
    166    334     1
    172    331     1
    175    345     1
    180    205     1
    180    202     1
    180    199     1
    181    196     1
    181    190     1
    181    382     1
    184    193     1
    184    190     1
    184    368     1
    187    193     1
    187    196     1
    187    208     1
    193    376     1
    196    362     1
    202    359     1
    205    373     1
    210    235     1
    210    232     1
    210    229     1
    211    226     1
    211    220     1
    211    410     1
    214    223     1
    214    220     1
    214    396     1
    217    223     1
    217    226     1
    217    238     1
    223    404     1
    226    390     1
    232    387     1
    235    401     1
    240    265     1
    240    262     1
    240    259     1
    241    256     1
    241    250     1
    241    438     1
    244    253     1
    244    250     1
    244    424     1
    247    253     1
    247    256     1
    247    268     1
    253    432     1
    256    418     1
    262    415     1
    265    429     1
    270    295     1
    270    292     1
    270    289     1
    271    286     1
    271    280     1
    271    466     1
    274    283     1
    274    280     1
    274    452     1
    277    283     1
    277    286     1
    277    298     1
    283    460     1
    286    446     1
    292    443     1
    295    457     1
    300    312     1
    306    309     1
    314    326     1
    320    323     1
    328    340     1
    334    337     1
    342    354     1
    348    351     1
    356    368     1
    362    365     1
    370    382     1
    376    379     1
    384    396     1
    390    393     1
    398    410     1
    404    407     1
    412    424     1
    418    421     1
    426    438     1
    432    435     1
    440    452     1
    446    449     1
    454    466     1
    460    463     1
      1     15     1
      1     16     1
      1     18     1
      1     19     1
      1     12     1
      1     13     1
      2      6     1
      2      7     1
      2      9     1
      2     10     1
      2     27     1
      2     28     1
      5      3     1
      8      3     1
     29      3     1
      3     26     1
      3     15     1
      3     16     1
      5      4     1
      8      4     1
     29      4     1
      4     26     1
      4     15     1
      4     16     1
      5      9     1
      5     10     1
      5     21     1
      5     22     1
      8      6     1
     29      6     1
      6     20     1
      6     18     1
      6     19     1
      8      7     1
     29      7     1
      7     20     1
      7     18     1
      7     19     1
      8     24     1
      8     25     1
     29      9     1
      9     23     1
      9     12     1
      9     13     1
     29     10     1
     10     23     1
     10     12     1
     10     13     1
     29     11     1
     12     88     1
     12     24     1
     12     25     1
     13     88     1
     13     24     1
     13     25     1
     29     14     1
     15    118     1
     15     27     1
     15     28     1
     16    118     1
     16     27     1
     16     28     1
     29     17     1
     18     58     1
     18     21     1
     18     22     1
     19     58     1
     19     21     1
     19     22     1
     20     50     1
     20     51     1
     21     49     1
     22     49     1
     23     80     1
     23     81     1
     24     79     1
     25     79     1
     26    110     1
     26    111     1
     27    109     1
     28    109     1
     30     44     1
     30     45     1
     30     47     1
     30     48     1
     30     41     1
     30     42     1
     31     35     1
     31     36     1
     31     38     1
     31     39     1
     31     56     1
     31     57     1
     32     34     1
     32     37     1
     32     59     1
     32     55     1
     32     44     1
     32     45     1
     33     34     1
     33     37     1
     33     59     1
     33     55     1
     33     44     1
     33     45     1
     34     38     1
     34     39     1
     34     53     1
     34     54     1
     35     37     1
     35     59     1
     35     52     1
     35     47     1
     35     48     1
     36     37     1
     36     59     1
     36     52     1
     36     47     1
     36     48     1
     37     50     1
     37     51     1
     38     59     1
     38     49     1
     38     41     1
     38     42     1
     39     59     1
     39     49     1
     39     41     1
     39     42     1
     40     59     1
     41     58     1
     41     50     1
     41     51     1
     42     58     1
     42     50     1
     42     51     1
     43     59     1
     44    178     1
     44     56     1
     44     57     1
     45    178     1
     45     56     1
     45     57     1
     46     59     1
     47    148     1
     47     53     1
     47     54     1
     48    148     1
     48     53     1
     48     54     1
     52    140     1
     52    141     1
     53    139     1
     54    139     1
     55    170     1
     55    171     1
     56    169     1
     57    169     1
     60     74     1
     60     75     1
     60     77     1
     60     78     1
     60     71     1
     60     72     1
     61     65     1
     61     66     1
     61     68     1
     61     69     1
     61     86     1
     61     87     1
     62     64     1
     62     67     1
     62     89     1
     62     85     1
     62     74     1
     62     75     1
     63     64     1
     63     67     1
     63     89     1
     63     85     1
     63     74     1
     63     75     1
     64     68     1
     64     69     1
     64     83     1
     64     84     1
     65     67     1
     65     89     1
     65     82     1
     65     77     1
     65     78     1
     66     67     1
     66     89     1
     66     82     1
     66     77     1
     66     78     1
     67     80     1
     67     81     1
     68     89     1
     68     79     1
     68     71     1
     68     72     1
     69     89     1
     69     79     1
     69     71     1
     69     72     1
     70     89     1
     71     88     1
     71     80     1
     71     81     1
     72     88     1
     72     80     1
     72     81     1
     73     89     1
     74    238     1
     74     86     1
     74     87     1
     75    238     1
     75     86     1
     75     87     1
     76     89     1
     77    208     1
     77     83     1
     77     84     1
     78    208     1
     78     83     1
     78     84     1
     82    200     1
     82    201     1
     83    199     1
     84    199     1
     85    230     1
     85    231     1
     86    229     1
     87    229     1
     90    104     1
     90    105     1
     90    107     1
     90    108     1
     90    101     1
     90    102     1
     91     95     1
     91     96     1
     91     98     1
     91     99     1
     91    116     1
     91    117     1
     92     94     1
     92     97     1
     92    119     1
     92    115     1
     92    104     1
     92    105     1
     93     94     1
     93     97     1
     93    119     1
     93    115     1
     93    104     1
     93    105     1
     94     98     1
     94     99     1
     94    113     1
     94    114     1
     95     97     1
     95    119     1
     95    112     1
     95    107     1
     95    108     1
     96     97     1
     96    119     1
     96    112     1
     96    107     1
     96    108     1
     97    110     1
     97    111     1
     98    119     1
     98    109     1
     98    101     1
     98    102     1
     99    119     1
     99    109     1
     99    101     1
     99    102     1
    100    119     1
    101    118     1
    101    110     1
    101    111     1
    102    118     1
    102    110     1
    102    111     1
    103    119     1
    104    298     1
    104    116     1
    104    117     1
    105    298     1
    105    116     1
    105    117     1
    106    119     1
    107    268     1
    107    113     1
    107    114     1
    108    268     1
    108    113     1
    108    114     1
    112    260     1
    112    261     1
    113    259     1
    114    259     1
    115    290     1
    115    291     1
    116    289     1
    117    289     1
    120    134     1
    120    135     1
    120    137     1
    120    138     1
    120    131     1
    120    132     1
    121    125     1
    121    126     1
    121    128     1
    121    129     1
    121    146     1
    121    147     1
    122    124     1
    122    127     1
    122    149     1
    122    145     1
    122    134     1
    122    135     1
    123    124     1
    123    127     1
    123    149     1
    123    145     1
    123    134     1
    123    135     1
    124    128     1
    124    129     1
    124    143     1
    124    144     1
    125    127     1
    125    149     1
    125    142     1
    125    137     1
    125    138     1
    126    127     1
    126    149     1
    126    142     1
    126    137     1
    126    138     1
    127    140     1
    127    141     1
    128    149     1
    128    139     1
    128    131     1
    128    132     1
    129    149     1
    129    139     1
    129    131     1
    129    132     1
    130    149     1
    131    148     1
    131    140     1
    131    141     1
    132    148     1
    132    140     1
    132    141     1
    133    149     1
    134    326     1
    134    146     1
    134    147     1
    135    326     1
    135    146     1
    135    147     1
    136    149     1
    137    312     1
    137    143     1
    137    144     1
    138    312     1
    138    143     1
    138    144     1
    142    307     1
    142    308     1
    143    306     1
    144    306     1
    145    321     1
    145    322     1
    146    320     1
    147    320     1
    150    164     1
    150    165     1
    150    167     1
    150    168     1
    150    161     1
    150    162     1
    151    155     1
    151    156     1
    151    158     1
    151    159     1
    151    176     1
    151    177     1
    152    154     1
    152    157     1
    152    179     1
    152    175     1
    152    164     1
    152    165     1
    153    154     1
    153    157     1
    153    179     1
    153    175     1
    153    164     1
    153    165     1
    154    158     1
    154    159     1
    154    173     1
    154    174     1
    155    157     1
    155    179     1
    155    172     1
    155    167     1
    155    168     1
    156    157     1
    156    179     1
    156    172     1
    156    167     1
    156    168     1
    157    170     1
    157    171     1
    158    179     1
    158    169     1
    158    161     1
    158    162     1
    159    179     1
    159    169     1
    159    161     1
    159    162     1
    160    179     1
    161    178     1
    161    170     1
    161    171     1
    162    178     1
    162    170     1
    162    171     1
    163    179     1
    164    354     1
    164    176     1
    164    177     1
    165    354     1
    165    176     1
    165    177     1
    166    179     1
    167    340     1
    167    173     1
    167    174     1
    168    340     1
    168    173     1
    168    174     1
    172    335     1
    172    336     1
    173    334     1
    174    334     1
    175    349     1
    175    350     1
    176    348     1
    177    348     1
    180    194     1
    180    195     1
    180    197     1
    180    198     1
    180    191     1
    180    192     1
    181    185     1
    181    186     1
    181    188     1
    181    189     1
    181    206     1
    181    207     1
    182    184     1
    182    187     1
    182    209     1
    182    205     1
    182    194     1
    182    195     1
    183    184     1
    183    187     1
    183    209     1
    183    205     1
    183    194     1
    183    195     1
    184    188     1
    184    189     1
    184    203     1
    184    204     1
    185    187     1
    185    209     1
    185    202     1
    185    197     1
    185    198     1
    186    187     1
    186    209     1
    186    202     1
    186    197     1
    186    198     1
    187    200     1
    187    201     1
    188    209     1
    188    199     1
    188    191     1
    188    192     1
    189    209     1
    189    199     1
    189    191     1
    189    192     1
    190    209     1
    191    208     1
    191    200     1
    191    201     1
    192    208     1
    192    200     1
    192    201     1
    193    209     1
    194    382     1
    194    206     1
    194    207     1
    195    382     1
    195    206     1
    195    207     1
    196    209     1
    197    368     1
    197    203     1
    197    204     1
    198    368     1
    198    203     1
    198    204     1
    202    363     1
    202    364     1
    203    362     1
    204    362     1
    205    377     1
    205    378     1
    206    376     1
    207    376     1
    210    224     1
    210    225     1
    210    227     1
    210    228     1
    210    221     1
    210    222     1
    211    215     1
    211    216     1
    211    218     1
    211    219     1
    211    236     1
    211    237     1
    212    214     1
    212    217     1
    212    239     1
    212    235     1
    212    224     1
    212    225     1
    213    214     1
    213    217     1
    213    239     1
    213    235     1
    213    224     1
    213    225     1
    214    218     1
    214    219     1
    214    233     1
    214    234     1
    215    217     1
    215    239     1
    215    232     1
    215    227     1
    215    228     1
    216    217     1
    216    239     1
    216    232     1
    216    227     1
    216    228     1
    217    230     1
    217    231     1
    218    239     1
    218    229     1
    218    221     1
    218    222     1
    219    239     1
    219    229     1
    219    221     1
    219    222     1
    220    239     1
    221    238     1
    221    230     1
    221    231     1
    222    238     1
    222    230     1
    222    231     1
    223    239     1
    224    410     1
    224    236     1
    224    237     1
    225    410     1
    225    236     1
    225    237     1
    226    239     1
    227    396     1
    227    233     1
    227    234     1
    228    396     1
    228    233     1
    228    234     1
    232    391     1
    232    392     1
    233    390     1
    234    390     1
    235    405     1
    235    406     1
    236    404     1
    237    404     1
    240    254     1
    240    255     1
    240    257     1
    240    258     1
    240    251     1
    240    252     1
    241    245     1
    241    246     1
    241    248     1
    241    249     1
    241    266     1
    241    267     1
    242    244     1
    242    247     1
    242    269     1
    242    265     1
    242    254     1
    242    255     1
    243    244     1
    243    247     1
    243    269     1
    243    265     1
    243    254     1
    243    255     1
    244    248     1
    244    249     1
    244    263     1
    244    264     1
    245    247     1
    245    269     1
    245    262     1
    245    257     1
    245    258     1
    246    247     1
    246    269     1
    246    262     1
    246    257     1
    246    258     1
    247    260     1
    247    261     1
    248    269     1
    248    259     1
    248    251     1
    248    252     1
    249    269     1
    249    259     1
    249    251     1
    249    252     1
    250    269     1
    251    268     1
    251    260     1
    251    261     1
    252    268     1
    252    260     1
    252    261     1
    253    269     1
    254    438     1
    254    266     1
    254    267     1
    255    438     1
    255    266     1
    255    267     1
    256    269     1
    257    424     1
    257    263     1
    257    264     1
    258    424     1
    258    263     1
    258    264     1
    262    419     1
    262    420     1
    263    418     1
    264    418     1
    265    433     1
    265    434     1
    266    432     1
    267    432     1
    270    284     1
    270    285     1
    270    287     1
    270    288     1
    270    281     1
    270    282     1
    271    275     1
    271    276     1
    271    278     1
    271    279     1
    271    296     1
    271    297     1
    272    274     1
    272    277     1
    272    299     1
    272    295     1
    272    284     1
    272    285     1
    273    274     1
    273    277     1
    273    299     1
    273    295     1
    273    284     1
    273    285     1
    274    278     1
    274    279     1
    274    293     1
    274    294     1
    275    277     1
    275    299     1
    275    292     1
    275    287     1
    275    288     1
    276    277     1
    276    299     1
    276    292     1
    276    287     1
    276    288     1
    277    290     1
    277    291     1
    278    299     1
    278    289     1
    278    281     1
    278    282     1
    279    299     1
    279    289     1
    279    281     1
    279    282     1
    280    299     1
    281    298     1
    281    290     1
    281    291     1
    282    298     1
    282    290     1
    282    291     1
    283    299     1
    284    466     1
    284    296     1
    284    297     1
    285    466     1
    285    296     1
    285    297     1
    286    299     1
    287    452     1
    287    293     1
    287    294     1
    288    452     1
    288    293     1
    288    294     1
    292    447     1
    292    448     1
    293    446     1
    294    446     1
    295    461     1
    295    462     1
    296    460     1
    297    460     1
    300    307     1
    300    308     1
    301    306     1
    301    304     1
    301    305     1
    301    310     1
    301    311     1
    301    313     1
    302    306     1
    302    304     1
    302    305     1
    302    310     1
    302    311     1
    302    313     1
    303    310     1
    303    311     1
    303    313     1
    304    309     1
    304    312     1
    304    307     1
    304    308     1
    305    309     1
    305    312     1
    305    307     1
    305    308     1
    314    321     1
    314    322     1
    315    320     1
    315    318     1
    315    319     1
    315    324     1
    315    325     1
    315    327     1
    316    320     1
    316    318     1
    316    319     1
    316    324     1
    316    325     1
    316    327     1
    317    324     1
    317    325     1
    317    327     1
    318    326     1
    318    321     1
    318    322     1
    318    323     1
    319    326     1
    319    321     1
    319    322     1
    319    323     1
    328    335     1
    328    336     1
    329    334     1
    329    332     1
    329    333     1
    329    338     1
    329    339     1
    329    341     1
    330    334     1
    330    332     1
    330    333     1
    330    338     1
    330    339     1
    330    341     1
    331    338     1
    331    339     1
    331    341     1
    332    337     1
    332    340     1
    332    335     1
    332    336     1
    333    337     1
    333    340     1
    333    335     1
    333    336     1
    342    349     1
    342    350     1
    343    348     1
    343    346     1
    343    347     1
    343    352     1
    343    353     1
    343    355     1
    344    348     1
    344    346     1
    344    347     1
    344    352     1
    344    353     1
    344    355     1
    345    352     1
    345    353     1
    345    355     1
    346    354     1
    346    349     1
    346    350     1
    346    351     1
    347    354     1
    347    349     1
    347    350     1
    347    351     1
    356    363     1
    356    364     1
    357    362     1
    357    360     1
    357    361     1
    357    366     1
    357    367     1
    357    369     1
    358    362     1
    358    360     1
    358    361     1
    358    366     1
    358    367     1
    358    369     1
    359    366     1
    359    367     1
    359    369     1
    360    365     1
    360    368     1
    360    363     1
    360    364     1
    361    365     1
    361    368     1
    361    363     1
    361    364     1
    370    377     1
    370    378     1
    371    376     1
    371    374     1
    371    375     1
    371    380     1
    371    381     1
    371    383     1
    372    376     1
    372    374     1
    372    375     1
    372    380     1
    372    381     1
    372    383     1
    373    380     1
    373    381     1
    373    383     1
    374    382     1
    374    377     1
    374    378     1
    374    379     1
    375    382     1
    375    377     1
    375    378     1
    375    379     1
    384    391     1
    384    392     1
    385    390     1
    385    388     1
    385    389     1
    385    394     1
    385    395     1
    385    397     1
    386    390     1
    386    388     1
    386    389     1
    386    394     1
    386    395     1
    386    397     1
    387    394     1
    387    395     1
    387    397     1
    388    393     1
    388    396     1
    388    391     1
    388    392     1
    389    393     1
    389    396     1
    389    391     1
    389    392     1
    398    405     1
    398    406     1
    399    404     1
    399    402     1
    399    403     1
    399    408     1
    399    409     1
    399    411     1
    400    404     1
    400    402     1
    400    403     1
    400    408     1
    400    409     1
    400    411     1
    401    408     1
    401    409     1
    401    411     1
    402    410     1
    402    405     1
    402    406     1
    402    407     1
    403    410     1
    403    405     1
    403    406     1
    403    407     1
    412    419     1
    412    420     1
    413    418     1
    413    416     1
    413    417     1
    413    422     1
    413    423     1
    413    425     1
    414    418     1
    414    416     1
    414    417     1
    414    422     1
    414    423     1
    414    425     1
    415    422     1
    415    423     1
    415    425     1
    416    421     1
    416    424     1
    416    419     1
    416    420     1
    417    421     1
    417    424     1
    417    419     1
    417    420     1
    426    433     1
    426    434     1
    427    432     1
    427    430     1
    427    431     1
    427    436     1
    427    437     1
    427    439     1
    428    432     1
    428    430     1
    428    431     1
    428    436     1
    428    437     1
    428    439     1
    429    436     1
    429    437     1
    429    439     1
    430    438     1
    430    433     1
    430    434     1
    430    435     1
    431    438     1
    431    433     1
    431    434     1
    431    435     1
    440    447     1
    440    448     1
    441    446     1
    441    444     1
    441    445     1
    441    450     1
    441    451     1
    441    453     1
    442    446     1
    442    444     1
    442    445     1
    442    450     1
    442    451     1
    442    453     1
    443    450     1
    443    451     1
    443    453     1
    444    449     1
    444    452     1
    444    447     1
    444    448     1
    445    449     1
    445    452     1
    445    447     1
    445    448     1
    454    461     1
    454    462     1
    455    460     1
    455    458     1
    455    459     1
    455    464     1
    455    465     1
    455    467     1
    456    460     1
    456    458     1
    456    459     1
    456    464     1
    456    465     1
    456    467     1
    457    464     1
    457    465     1
    457    467     1
    458    466     1
    458    461     1
    458    462     1
    458    463     1
    459    466     1
    459    461     1
    459    462     1
    459    463     1

[ angles ]
;    ai     aj     ak funct         c0         c1         c2         c3
      1      2     14     1   114.2100488 537.225600
      1      5     17     1   114.2100488 537.225600
      1      8     11     1   114.2100488 537.225600
      2      1      5     1   109.6600471 523.836800
      2      1      8     1   109.6600471 523.836800
      2     14     26     1   111.5100476 526.347200
      5      1      8     1   109.6600471 523.836800
      5     17     20     1   111.5100476 526.347200
      8     11     23     1   111.5100476 526.347200
     11     23     88     1   107.9700462 569.024000
     14     26    118     1   107.9700462 569.024000
     17     20     58     1   107.9700462 569.024000
     20     58     49     1   112.4800480 524.673600
     23     88     79     1   112.4800480 524.673600
     26    118    109     1   112.4800480 524.673600
     30     31     43     1   114.2100488 537.225600
     30     34     46     1   114.2100488 537.225600
     30     37     40     1   114.2100488 537.225600
     31     30     34     1   109.6600471 523.836800
     31     30     37     1   109.6600471 523.836800
     31     43     55     1   111.5100476 526.347200
     34     30     37     1   109.6600471 523.836800
     34     46     52     1   111.5100476 526.347200
     37     40     49     1   111.5100476 526.347200
     40     49     58     1   107.9700462 569.024000
     43     55    178     1   107.9700462 569.024000
     46     52    148     1   107.9700462 569.024000
     52    148    139     1   112.4800480 524.673600
     55    178    169     1   112.4800480 524.673600
     60     61     73     1   114.2100488 537.225600
     60     64     76     1   114.2100488 537.225600
     60     67     70     1   114.2100488 537.225600
     61     60     64     1   109.6600471 523.836800
     61     60     67     1   109.6600471 523.836800
     61     73     85     1   111.5100476 526.347200
     64     60     67     1   109.6600471 523.836800
     64     76     82     1   111.5100476 526.347200
     67     70     79     1   111.5100476 526.347200
     70     79     88     1   107.9700462 569.024000
     73     85    238     1   107.9700462 569.024000
     76     82    208     1   107.9700462 569.024000
     82    208    199     1   112.4800480 524.673600
     85    238    229     1   112.4800480 524.673600
     90     91    103     1   114.2100488 537.225600
     90     94    106     1   114.2100488 537.225600
     90     97    100     1   114.2100488 537.225600
     91     90     94     1   109.6600471 523.836800
     91     90     97     1   109.6600471 523.836800
     91    103    115     1   111.5100476 526.347200
     94     90     97     1   109.6600471 523.836800
     94    106    112     1   111.5100476 526.347200
     97    100    109     1   111.5100476 526.347200
    100    109    118     1   107.9700462 569.024000
    103    115    298     1   107.9700462 569.024000
    106    112    268     1   107.9700462 569.024000
    112    268    259     1   112.4800480 524.673600
    115    298    289     1   112.4800480 524.673600
    120    121    133     1   114.2100488 537.225600
    120    124    136     1   114.2100488 537.225600
    120    127    130     1   114.2100488 537.225600
    121    120    124     1   109.6600471 523.836800
    121    120    127     1   109.6600471 523.836800
    121    133    145     1   111.5100476 526.347200
    124    120    127     1   109.6600471 523.836800
    124    136    142     1   111.5100476 526.347200
    127    130    139     1   111.5100476 526.347200
    130    139    148     1   107.9700462 569.024000
    133    145    326     1   107.9700462 569.024000
    136    142    312     1   107.9700462 569.024000
    142    312    306     1   112.4800480 524.673600
    145    326    320     1   112.4800480 524.673600
    150    151    163     1   114.2100488 537.225600
    150    154    166     1   114.2100488 537.225600
    150    157    160     1   114.2100488 537.225600
    151    150    154     1   109.6600471 523.836800
    151    150    157     1   109.6600471 523.836800
    151    163    175     1   111.5100476 526.347200
    154    150    157     1   109.6600471 523.836800
    154    166    172     1   111.5100476 526.347200
    157    160    169     1   111.5100476 526.347200
    160    169    178     1   107.9700462 569.024000
    163    175    354     1   107.9700462 569.024000
    166    172    340     1   107.9700462 569.024000
    172    340    334     1   112.4800480 524.673600
    175    354    348     1   112.4800480 524.673600
    180    181    193     1   114.2100488 537.225600
    180    184    196     1   114.2100488 537.225600
    180    187    190     1   114.2100488 537.225600
    181    180    184     1   109.6600471 523.836800
    181    180    187     1   109.6600471 523.836800
    181    193    205     1   111.5100476 526.347200
    184    180    187     1   109.6600471 523.836800
    184    196    202     1   111.5100476 526.347200
    187    190    199     1   111.5100476 526.347200
    190    199    208     1   107.9700462 569.024000
    193    205    382     1   107.9700462 569.024000
    196    202    368     1   107.9700462 569.024000
    202    368    362     1   112.4800480 524.673600
    205    382    376     1   112.4800480 524.673600
    210    211    223     1   114.2100488 537.225600
    210    214    226     1   114.2100488 537.225600
    210    217    220     1   114.2100488 537.225600
    211    210    214     1   109.6600471 523.836800
    211    210    217     1   109.6600471 523.836800
    211    223    235     1   111.5100476 526.347200
    214    210    217     1   109.6600471 523.836800
    214    226    232     1   111.5100476 526.347200
    217    220    229     1   111.5100476 526.347200
    220    229    238     1   107.9700462 569.024000
    223    235    410     1   107.9700462 569.024000
    226    232    396     1   107.9700462 569.024000
    232    396    390     1   112.4800480 524.673600
    235    410    404     1   112.4800480 524.673600
    240    241    253     1   114.2100488 537.225600
    240    244    256     1   114.2100488 537.225600
    240    247    250     1   114.2100488 537.225600
    241    240    244     1   109.6600471 523.836800
    241    240    247     1   109.6600471 523.836800
    241    253    265     1   111.5100476 526.347200
    244    240    247     1   109.6600471 523.836800
    244    256    262     1   111.5100476 526.347200
    247    250    259     1   111.5100476 526.347200
    250    259    268     1   107.9700462 569.024000
    253    265    438     1   107.9700462 569.024000
    256    262    424     1   107.9700462 569.024000
    262    424    418     1   112.4800480 524.673600
    265    438    432     1   112.4800480 524.673600
    270    271    283     1   114.2100488 537.225600
    270    274    286     1   114.2100488 537.225600
    270    277    280     1   114.2100488 537.225600
    271    270    274     1   109.6600471 523.836800
    271    270    277     1   109.6600471 523.836800
    271    283    295     1   111.5100476 526.347200
    274    270    277     1   109.6600471 523.836800
    274    286    292     1   111.5100476 526.347200
    277    280    289     1   111.5100476 526.347200
    280    289    298     1   107.9700462 569.024000
    283    295    466     1   107.9700462 569.024000
    286    292    452     1   107.9700462 569.024000
    292    452    446     1   112.4800480 524.673600
    295    466    460     1   112.4800480 524.673600
    300    303    306     1   111.5100476 526.347200
    303    300    309     1   114.2100488 537.225600
    303    306    312     1   107.9700462 569.024000
    314    317    320     1   111.5100476 526.347200
    317    320    326     1   107.9700462 569.024000
    317    314    323     1   114.2100488 537.225600
    328    331    334     1   111.5100476 526.347200
    331    328    337     1   114.2100488 537.225600
    331    334    340     1   107.9700462 569.024000
    342    345    348     1   111.5100476 526.347200
    345    348    354     1   107.9700462 569.024000
    345    342    351     1   114.2100488 537.225600
    356    359    362     1   111.5100476 526.347200
    359    356    365     1   114.2100488 537.225600
    359    362    368     1   107.9700462 569.024000
    370    373    376     1   111.5100476 526.347200
    373    376    382     1   107.9700462 569.024000
    373    370    379     1   114.2100488 537.225600
    384    387    390     1   111.5100476 526.347200
    387    384    393     1   114.2100488 537.225600
    387    390    396     1   107.9700462 569.024000
    398    401    404     1   111.5100476 526.347200
    401    404    410     1   107.9700462 569.024000
    401    398    407     1   114.2100488 537.225600
    412    415    418     1   111.5100476 526.347200
    415    412    421     1   114.2100488 537.225600
    415    418    424     1   107.9700462 569.024000
    426    429    432     1   111.5100476 526.347200
    429    432    438     1   107.9700462 569.024000
    429    426    435     1   114.2100488 537.225600
    440    443    446     1   111.5100476 526.347200
    443    440    449     1   114.2100488 537.225600
    443    446    452     1   107.9700462 569.024000
    454    457    460     1   111.5100476 526.347200
    457    460    466     1   107.9700462 569.024000
    457    454    463     1   114.2100488 537.225600
      1      2      3     1   108.0100461 406.684800
      1      2      4     1   108.0100461 406.684800
      1      5      6     1   108.0100461 406.684800
      1      5      7     1   108.0100461 406.684800
      1      8      9     1   108.0100461 406.684800
      1      8     10     1   108.0100461 406.684800
      2      1     29     1   110.1100470 384.091200
      2     14     15     1   109.8000471 387.438400
      2     14     16     1   109.8000471 387.438400
      3      2     14     1   110.5600475 386.601600
      3      2      4     1   109.7500473 328.025600
      4      2     14     1   110.5600475 386.601600
      5      1     29     1   110.1100470 384.091200
      5     17     18     1   109.8000471 387.438400
      5     17     19     1   109.8000471 387.438400
      6      5     17     1   110.5600475 386.601600
      6      5      7     1   109.7500473 328.025600
      7      5     17     1   110.5600475 386.601600
      8      1     29     1   110.1100470 384.091200
      8     11     12     1   109.8000471 387.438400
      8     11     13     1   109.8000471 387.438400
      9      8     11     1   110.5600475 386.601600
      9      8     10     1   109.7500473 328.025600
     10      8     11     1   110.5600475 386.601600
     11     23     24     1   109.5600471 388.275200
     11     23     25     1   109.5600471 388.275200
     12     11     23     1   109.8000471 387.438400
     12     11     13     1   107.5800459 329.699200
     13     11     23     1   109.8000471 387.438400
     14     26     27     1   109.5600471 388.275200
     14     26     28     1   109.5600471 388.275200
     15     14     26     1   109.8000471 387.438400
     15     14     16     1   107.5800459 329.699200
     16     14     26     1   109.8000471 387.438400
     17     20     21     1   109.5600471 388.275200
     17     20     22     1   109.5600471 388.275200
     18     17     20     1   109.8000471 387.438400
     18     17     19     1   107.5800459 329.699200
     19     17     20     1   109.8000471 387.438400
     21     20     58     1   109.7800468 425.094400
     21     20     22     1   108.4600466 328.025600
     22     20     58     1   109.7800468 425.094400
     24     23     88     1   109.7800468 425.094400
     24     23     25     1   108.4600466 328.025600
     25     23     88     1   109.7800468 425.094400
     27     26    118     1   109.7800468 425.094400
     27     26     28     1   108.4600466 328.025600
     28     26    118     1   109.7800468 425.094400
     30     31     32     1   108.0100461 406.684800
     30     31     33     1   108.0100461 406.684800
     30     34     35     1   108.0100461 406.684800
     30     34     36     1   108.0100461 406.684800
     30     37     38     1   108.0100461 406.684800
     30     37     39     1   108.0100461 406.684800
     31     30     59     1   110.1100470 384.091200
     31     43     44     1   109.8000471 387.438400
     31     43     45     1   109.8000471 387.438400
     32     31     43     1   110.5600475 386.601600
     32     31     33     1   109.7500473 328.025600
     33     31     43     1   110.5600475 386.601600
     34     30     59     1   110.1100470 384.091200
     34     46     47     1   109.8000471 387.438400
     34     46     48     1   109.8000471 387.438400
     35     34     46     1   110.5600475 386.601600
     35     34     36     1   109.7500473 328.025600
     36     34     46     1   110.5600475 386.601600
     37     30     59     1   110.1100470 384.091200
     37     40     41     1   109.8000471 387.438400
     37     40     42     1   109.8000471 387.438400
     38     37     40     1   110.5600475 386.601600
     38     37     39     1   109.7500473 328.025600
     39     37     40     1   110.5600475 386.601600
     40     49     50     1   109.5600471 388.275200
     40     49     51     1   109.5600471 388.275200
     41     40     49     1   109.8000471 387.438400
     41     40     42     1   107.5800459 329.699200
     42     40     49     1   109.8000471 387.438400
     43     55     56     1   109.5600471 388.275200
     43     55     57     1   109.5600471 388.275200
     44     43     55     1   109.8000471 387.438400
     44     43     45     1   107.5800459 329.699200
     45     43     55     1   109.8000471 387.438400
     46     52     53     1   109.5600471 388.275200
     46     52     54     1   109.5600471 388.275200
     47     46     52     1   109.8000471 387.438400
     47     46     48     1   107.5800459 329.699200
     48     46     52     1   109.8000471 387.438400
     50     49     58     1   109.7800468 425.094400
     50     49     51     1   108.4600466 328.025600
     51     49     58     1   109.7800468 425.094400
     53     52    148     1   109.7800468 425.094400
     53     52     54     1   108.4600466 328.025600
     54     52    148     1   109.7800468 425.094400
     56     55    178     1   109.7800468 425.094400
     56     55     57     1   108.4600466 328.025600
     57     55    178     1   109.7800468 425.094400
     60     61     62     1   108.0100461 406.684800
     60     61     63     1   108.0100461 406.684800
     60     64     65     1   108.0100461 406.684800
     60     64     66     1   108.0100461 406.684800
     60     67     68     1   108.0100461 406.684800
     60     67     69     1   108.0100461 406.684800
     61     60     89     1   110.1100470 384.091200
     61     73     74     1   109.8000471 387.438400
     61     73     75     1   109.8000471 387.438400
     62     61     73     1   110.5600475 386.601600
     62     61     63     1   109.7500473 328.025600
     63     61     73     1   110.5600475 386.601600
     64     60     89     1   110.1100470 384.091200
     64     76     77     1   109.8000471 387.438400
     64     76     78     1   109.8000471 387.438400
     65     64     76     1   110.5600475 386.601600
     65     64     66     1   109.7500473 328.025600
     66     64     76     1   110.5600475 386.601600
     67     60     89     1   110.1100470 384.091200
     67     70     71     1   109.8000471 387.438400
     67     70     72     1   109.8000471 387.438400
     68     67     70     1   110.5600475 386.601600
     68     67     69     1   109.7500473 328.025600
     69     67     70     1   110.5600475 386.601600
     70     79     80     1   109.5600471 388.275200
     70     79     81     1   109.5600471 388.275200
     71     70     79     1   109.8000471 387.438400
     71     70     72     1   107.5800459 329.699200
     72     70     79     1   109.8000471 387.438400
     73     85     86     1   109.5600471 388.275200
     73     85     87     1   109.5600471 388.275200
     74     73     85     1   109.8000471 387.438400
     74     73     75     1   107.5800459 329.699200
     75     73     85     1   109.8000471 387.438400
     76     82     83     1   109.5600471 388.275200
     76     82     84     1   109.5600471 388.275200
     77     76     82     1   109.8000471 387.438400
     77     76     78     1   107.5800459 329.699200
     78     76     82     1   109.8000471 387.438400
     80     79     88     1   109.7800468 425.094400
     80     79     81     1   108.4600466 328.025600
     81     79     88     1   109.7800468 425.094400
     83     82    208     1   109.7800468 425.094400
     83     82     84     1   108.4600466 328.025600
     84     82    208     1   109.7800468 425.094400
     86     85    238     1   109.7800468 425.094400
     86     85     87     1   108.4600466 328.025600
     87     85    238     1   109.7800468 425.094400
     90     91     92     1   108.0100461 406.684800
     90     91     93     1   108.0100461 406.684800
     90     94     95     1   108.0100461 406.684800
     90     94     96     1   108.0100461 406.684800
     90     97     98     1   108.0100461 406.684800
     90     97     99     1   108.0100461 406.684800
     91     90    119     1   110.1100470 384.091200
     91    103    104     1   109.8000471 387.438400
     91    103    105     1   109.8000471 387.438400
     92     91    103     1   110.5600475 386.601600
     92     91     93     1   109.7500473 328.025600
     93     91    103     1   110.5600475 386.601600
     94     90    119     1   110.1100470 384.091200
     94    106    107     1   109.8000471 387.438400
     94    106    108     1   109.8000471 387.438400
     95     94    106     1   110.5600475 386.601600
     95     94     96     1   109.7500473 328.025600
     96     94    106     1   110.5600475 386.601600
     97     90    119     1   110.1100470 384.091200
     97    100    101     1   109.8000471 387.438400
     97    100    102     1   109.8000471 387.438400
     98     97    100     1   110.5600475 386.601600
     98     97     99     1   109.7500473 328.025600
     99     97    100     1   110.5600475 386.601600
    100    109    110     1   109.5600471 388.275200
    100    109    111     1   109.5600471 388.275200
    101    100    109     1   109.8000471 387.438400
    101    100    102     1   107.5800459 329.699200
    102    100    109     1   109.8000471 387.438400
    103    115    116     1   109.5600471 388.275200
    103    115    117     1   109.5600471 388.275200
    104    103    115     1   109.8000471 387.438400
    104    103    105     1   107.5800459 329.699200
    105    103    115     1   109.8000471 387.438400
    106    112    113     1   109.5600471 388.275200
    106    112    114     1   109.5600471 388.275200
    107    106    112     1   109.8000471 387.438400
    107    106    108     1   107.5800459 329.699200
    108    106    112     1   109.8000471 387.438400
    110    109    118     1   109.7800468 425.094400
    110    109    111     1   108.4600466 328.025600
    111    109    118     1   109.7800468 425.094400
    113    112    268     1   109.7800468 425.094400
    113    112    114     1   108.4600466 328.025600
    114    112    268     1   109.7800468 425.094400
    116    115    298     1   109.7800468 425.094400
    116    115    117     1   108.4600466 328.025600
    117    115    298     1   109.7800468 425.094400
    120    121    122     1   108.0100461 406.684800
    120    121    123     1   108.0100461 406.684800
    120    124    125     1   108.0100461 406.684800
    120    124    126     1   108.0100461 406.684800
    120    127    128     1   108.0100461 406.684800
    120    127    129     1   108.0100461 406.684800
    121    120    149     1   110.1100470 384.091200
    121    133    134     1   109.8000471 387.438400
    121    133    135     1   109.8000471 387.438400
    122    121    133     1   110.5600475 386.601600
    122    121    123     1   109.7500473 328.025600
    123    121    133     1   110.5600475 386.601600
    124    120    149     1   110.1100470 384.091200
    124    136    137     1   109.8000471 387.438400
    124    136    138     1   109.8000471 387.438400
    125    124    136     1   110.5600475 386.601600
    125    124    126     1   109.7500473 328.025600
    126    124    136     1   110.5600475 386.601600
    127    120    149     1   110.1100470 384.091200
    127    130    131     1   109.8000471 387.438400
    127    130    132     1   109.8000471 387.438400
    128    127    130     1   110.5600475 386.601600
    128    127    129     1   109.7500473 328.025600
    129    127    130     1   110.5600475 386.601600
    130    139    140     1   109.5600471 388.275200
    130    139    141     1   109.5600471 388.275200
    131    130    139     1   109.8000471 387.438400
    131    130    132     1   107.5800459 329.699200
    132    130    139     1   109.8000471 387.438400
    133    145    146     1   109.5600471 388.275200
    133    145    147     1   109.5600471 388.275200
    134    133    145     1   109.8000471 387.438400
    134    133    135     1   107.5800459 329.699200
    135    133    145     1   109.8000471 387.438400
    136    142    143     1   109.5600471 388.275200
    136    142    144     1   109.5600471 388.275200
    137    136    142     1   109.8000471 387.438400
    137    136    138     1   107.5800459 329.699200
    138    136    142     1   109.8000471 387.438400
    140    139    148     1   109.7800468 425.094400
    140    139    141     1   108.4600466 328.025600
    141    139    148     1   109.7800468 425.094400
    143    142    312     1   109.7800468 425.094400
    143    142    144     1   108.4600466 328.025600
    144    142    312     1   109.7800468 425.094400
    146    145    326     1   109.7800468 425.094400
    146    145    147     1   108.4600466 328.025600
    147    145    326     1   109.7800468 425.094400
    150    151    152     1   108.0100461 406.684800
    150    151    153     1   108.0100461 406.684800
    150    154    155     1   108.0100461 406.684800
    150    154    156     1   108.0100461 406.684800
    150    157    158     1   108.0100461 406.684800
    150    157    159     1   108.0100461 406.684800
    151    150    179     1   110.1100470 384.091200
    151    163    164     1   109.8000471 387.438400
    151    163    165     1   109.8000471 387.438400
    152    151    163     1   110.5600475 386.601600
    152    151    153     1   109.7500473 328.025600
    153    151    163     1   110.5600475 386.601600
    154    150    179     1   110.1100470 384.091200
    154    166    167     1   109.8000471 387.438400
    154    166    168     1   109.8000471 387.438400
    155    154    166     1   110.5600475 386.601600
    155    154    156     1   109.7500473 328.025600
    156    154    166     1   110.5600475 386.601600
    157    150    179     1   110.1100470 384.091200
    157    160    161     1   109.8000471 387.438400
    157    160    162     1   109.8000471 387.438400
    158    157    160     1   110.5600475 386.601600
    158    157    159     1   109.7500473 328.025600
    159    157    160     1   110.5600475 386.601600
    160    169    170     1   109.5600471 388.275200
    160    169    171     1   109.5600471 388.275200
    161    160    169     1   109.8000471 387.438400
    161    160    162     1   107.5800459 329.699200
    162    160    169     1   109.8000471 387.438400
    163    175    176     1   109.5600471 388.275200
    163    175    177     1   109.5600471 388.275200
    164    163    175     1   109.8000471 387.438400
    164    163    165     1   107.5800459 329.699200
    165    163    175     1   109.8000471 387.438400
    166    172    173     1   109.5600471 388.275200
    166    172    174     1   109.5600471 388.275200
    167    166    172     1   109.8000471 387.438400
    167    166    168     1   107.5800459 329.699200
    168    166    172     1   109.8000471 387.438400
    170    169    178     1   109.7800468 425.094400
    170    169    171     1   108.4600466 328.025600
    171    169    178     1   109.7800468 425.094400
    173    172    340     1   109.7800468 425.094400
    173    172    174     1   108.4600466 328.025600
    174    172    340     1   109.7800468 425.094400
    176    175    354     1   109.7800468 425.094400
    176    175    177     1   108.4600466 328.025600
    177    175    354     1   109.7800468 425.094400
    180    181    182     1   108.0100461 406.684800
    180    181    183     1   108.0100461 406.684800
    180    184    185     1   108.0100461 406.684800
    180    184    186     1   108.0100461 406.684800
    180    187    188     1   108.0100461 406.684800
    180    187    189     1   108.0100461 406.684800
    181    180    209     1   110.1100470 384.091200
    181    193    194     1   109.8000471 387.438400
    181    193    195     1   109.8000471 387.438400
    182    181    193     1   110.5600475 386.601600
    182    181    183     1   109.7500473 328.025600
    183    181    193     1   110.5600475 386.601600
    184    180    209     1   110.1100470 384.091200
    184    196    197     1   109.8000471 387.438400
    184    196    198     1   109.8000471 387.438400
    185    184    196     1   110.5600475 386.601600
    185    184    186     1   109.7500473 328.025600
    186    184    196     1   110.5600475 386.601600
    187    180    209     1   110.1100470 384.091200
    187    190    191     1   109.8000471 387.438400
    187    190    192     1   109.8000471 387.438400
    188    187    190     1   110.5600475 386.601600
    188    187    189     1   109.7500473 328.025600
    189    187    190     1   110.5600475 386.601600
    190    199    200     1   109.5600471 388.275200
    190    199    201     1   109.5600471 388.275200
    191    190    199     1   109.8000471 387.438400
    191    190    192     1   107.5800459 329.699200
    192    190    199     1   109.8000471 387.438400
    193    205    206     1   109.5600471 388.275200
    193    205    207     1   109.5600471 388.275200
    194    193    205     1   109.8000471 387.438400
    194    193    195     1   107.5800459 329.699200
    195    193    205     1   109.8000471 387.438400
    196    202    203     1   109.5600471 388.275200
    196    202    204     1   109.5600471 388.275200
    197    196    202     1   109.8000471 387.438400
    197    196    198     1   107.5800459 329.699200
    198    196    202     1   109.8000471 387.438400
    200    199    208     1   109.7800468 425.094400
    200    199    201     1   108.4600466 328.025600
    201    199    208     1   109.7800468 425.094400
    203    202    368     1   109.7800468 425.094400
    203    202    204     1   108.4600466 328.025600
    204    202    368     1   109.7800468 425.094400
    206    205    382     1   109.7800468 425.094400
    206    205    207     1   108.4600466 328.025600
    207    205    382     1   109.7800468 425.094400
    210    211    212     1   108.0100461 406.684800
    210    211    213     1   108.0100461 406.684800
    210    214    215     1   108.0100461 406.684800
    210    214    216     1   108.0100461 406.684800
    210    217    218     1   108.0100461 406.684800
    210    217    219     1   108.0100461 406.684800
    211    210    239     1   110.1100470 384.091200
    211    223    224     1   109.8000471 387.438400
    211    223    225     1   109.8000471 387.438400
    212    211    223     1   110.5600475 386.601600
    212    211    213     1   109.7500473 328.025600
    213    211    223     1   110.5600475 386.601600
    214    210    239     1   110.1100470 384.091200
    214    226    227     1   109.8000471 387.438400
    214    226    228     1   109.8000471 387.438400
    215    214    226     1   110.5600475 386.601600
    215    214    216     1   109.7500473 328.025600
    216    214    226     1   110.5600475 386.601600
    217    210    239     1   110.1100470 384.091200
    217    220    221     1   109.8000471 387.438400
    217    220    222     1   109.8000471 387.438400
    218    217    220     1   110.5600475 386.601600
    218    217    219     1   109.7500473 328.025600
    219    217    220     1   110.5600475 386.601600
    220    229    230     1   109.5600471 388.275200
    220    229    231     1   109.5600471 388.275200
    221    220    229     1   109.8000471 387.438400
    221    220    222     1   107.5800459 329.699200
    222    220    229     1   109.8000471 387.438400
    223    235    236     1   109.5600471 388.275200
    223    235    237     1   109.5600471 388.275200
    224    223    235     1   109.8000471 387.438400
    224    223    225     1   107.5800459 329.699200
    225    223    235     1   109.8000471 387.438400
    226    232    233     1   109.5600471 388.275200
    226    232    234     1   109.5600471 388.275200
    227    226    232     1   109.8000471 387.438400
    227    226    228     1   107.5800459 329.699200
    228    226    232     1   109.8000471 387.438400
    230    229    238     1   109.7800468 425.094400
    230    229    231     1   108.4600466 328.025600
    231    229    238     1   109.7800468 425.094400
    233    232    396     1   109.7800468 425.094400
    233    232    234     1   108.4600466 328.025600
    234    232    396     1   109.7800468 425.094400
    236    235    410     1   109.7800468 425.094400
    236    235    237     1   108.4600466 328.025600
    237    235    410     1   109.7800468 425.094400
    240    241    242     1   108.0100461 406.684800
    240    241    243     1   108.0100461 406.684800
    240    244    245     1   108.0100461 406.684800
    240    244    246     1   108.0100461 406.684800
    240    247    248     1   108.0100461 406.684800
    240    247    249     1   108.0100461 406.684800
    241    240    269     1   110.1100470 384.091200
    241    253    254     1   109.8000471 387.438400
    241    253    255     1   109.8000471 387.438400
    242    241    253     1   110.5600475 386.601600
    242    241    243     1   109.7500473 328.025600
    243    241    253     1   110.5600475 386.601600
    244    240    269     1   110.1100470 384.091200
    244    256    257     1   109.8000471 387.438400
    244    256    258     1   109.8000471 387.438400
    245    244    256     1   110.5600475 386.601600
    245    244    246     1   109.7500473 328.025600
    246    244    256     1   110.5600475 386.601600
    247    240    269     1   110.1100470 384.091200
    247    250    251     1   109.8000471 387.438400
    247    250    252     1   109.8000471 387.438400
    248    247    250     1   110.5600475 386.601600
    248    247    249     1   109.7500473 328.025600
    249    247    250     1   110.5600475 386.601600
    250    259    260     1   109.5600471 388.275200
    250    259    261     1   109.5600471 388.275200
    251    250    259     1   109.8000471 387.438400
    251    250    252     1   107.5800459 329.699200
    252    250    259     1   109.8000471 387.438400
    253    265    266     1   109.5600471 388.275200
    253    265    267     1   109.5600471 388.275200
    254    253    265     1   109.8000471 387.438400
    254    253    255     1   107.5800459 329.699200
    255    253    265     1   109.8000471 387.438400
    256    262    263     1   109.5600471 388.275200
    256    262    264     1   109.5600471 388.275200
    257    256    262     1   109.8000471 387.438400
    257    256    258     1   107.5800459 329.699200
    258    256    262     1   109.8000471 387.438400
    260    259    268     1   109.7800468 425.094400
    260    259    261     1   108.4600466 328.025600
    261    259    268     1   109.7800468 425.094400
    263    262    424     1   109.7800468 425.094400
    263    262    264     1   108.4600466 328.025600
    264    262    424     1   109.7800468 425.094400
    266    265    438     1   109.7800468 425.094400
    266    265    267     1   108.4600466 328.025600
    267    265    438     1   109.7800468 425.094400
    270    271    272     1   108.0100461 406.684800
    270    271    273     1   108.0100461 406.684800
    270    274    275     1   108.0100461 406.684800
    270    274    276     1   108.0100461 406.684800
    270    277    278     1   108.0100461 406.684800
    270    277    279     1   108.0100461 406.684800
    271    270    299     1   110.1100470 384.091200
    271    283    284     1   109.8000471 387.438400
    271    283    285     1   109.8000471 387.438400
    272    271    283     1   110.5600475 386.601600
    272    271    273     1   109.7500473 328.025600
    273    271    283     1   110.5600475 386.601600
    274    270    299     1   110.1100470 384.091200
    274    286    287     1   109.8000471 387.438400
    274    286    288     1   109.8000471 387.438400
    275    274    286     1   110.5600475 386.601600
    275    274    276     1   109.7500473 328.025600
    276    274    286     1   110.5600475 386.601600
    277    270    299     1   110.1100470 384.091200
    277    280    281     1   109.8000471 387.438400
    277    280    282     1   109.8000471 387.438400
    278    277    280     1   110.5600475 386.601600
    278    277    279     1   109.7500473 328.025600
    279    277    280     1   110.5600475 386.601600
    280    289    290     1   109.5600471 388.275200
    280    289    291     1   109.5600471 388.275200
    281    280    289     1   109.8000471 387.438400
    281    280    282     1   107.5800459 329.699200
    282    280    289     1   109.8000471 387.438400
    283    295    296     1   109.5600471 388.275200
    283    295    297     1   109.5600471 388.275200
    284    283    295     1   109.8000471 387.438400
    284    283    285     1   107.5800459 329.699200
    285    283    295     1   109.8000471 387.438400
    286    292    293     1   109.5600471 388.275200
    286    292    294     1   109.5600471 388.275200
    287    286    292     1   109.8000471 387.438400
    287    286    288     1   107.5800459 329.699200
    288    286    292     1   109.8000471 387.438400
    290    289    298     1   109.7800468 425.094400
    290    289    291     1   108.4600466 328.025600
    291    289    298     1   109.7800468 425.094400
    293    292    452     1   109.7800468 425.094400
    293    292    294     1   108.4600466 328.025600
    294    292    452     1   109.7800468 425.094400
    296    295    466     1   109.7800468 425.094400
    296    295    297     1   108.4600466 328.025600
    297    295    466     1   109.7800468 425.094400
    300    303    304     1   109.8000471 387.438400
    300    303    305     1   109.8000471 387.438400
    300    309    310     1   110.1100470 384.091200
    300    309    311     1   110.1100470 384.091200
    300    309    313     1   110.1100470 384.091200
    301    300    303     1   110.5600475 386.601600
    301    300    309     1   108.0100461 406.684800
    301    300    302     1   109.7500473 328.025600
    302    300    303     1   110.5600475 386.601600
    302    300    309     1   108.0100461 406.684800
    303    306    307     1   109.5600471 388.275200
    303    306    308     1   109.5600471 388.275200
    304    303    306     1   109.8000471 387.438400
    304    303    305     1   107.5800459 329.699200
    305    303    306     1   109.8000471 387.438400
    307    306    312     1   109.7800468 425.094400
    307    306    308     1   108.4600466 328.025600
    308    306    312     1   109.7800468 425.094400
    310    309    311     1   108.3000464 339.740800
    310    309    313     1   108.3000464 339.740800
    311    309    313     1   108.3000464 339.740800
    314    317    318     1   109.8000471 387.438400
    314    317    319     1   109.8000471 387.438400
    314    323    324     1   110.1100470 384.091200
    314    323    325     1   110.1100470 384.091200
    314    323    327     1   110.1100470 384.091200
    315    314    317     1   110.5600475 386.601600
    315    314    323     1   108.0100461 406.684800
    315    314    316     1   109.7500473 328.025600
    316    314    317     1   110.5600475 386.601600
    316    314    323     1   108.0100461 406.684800
    317    320    321     1   109.5600471 388.275200
    317    320    322     1   109.5600471 388.275200
    318    317    320     1   109.8000471 387.438400
    318    317    319     1   107.5800459 329.699200
    319    317    320     1   109.8000471 387.438400
    321    320    326     1   109.7800468 425.094400
    321    320    322     1   108.4600466 328.025600
    322    320    326     1   109.7800468 425.094400
    324    323    325     1   108.3000464 339.740800
    324    323    327     1   108.3000464 339.740800
    325    323    327     1   108.3000464 339.740800
    328    331    332     1   109.8000471 387.438400
    328    331    333     1   109.8000471 387.438400
    328    337    338     1   110.1100470 384.091200
    328    337    339     1   110.1100470 384.091200
    328    337    341     1   110.1100470 384.091200
    329    328    331     1   110.5600475 386.601600
    329    328    337     1   108.0100461 406.684800
    329    328    330     1   109.7500473 328.025600
    330    328    331     1   110.5600475 386.601600
    330    328    337     1   108.0100461 406.684800
    331    334    335     1   109.5600471 388.275200
    331    334    336     1   109.5600471 388.275200
    332    331    334     1   109.8000471 387.438400
    332    331    333     1   107.5800459 329.699200
    333    331    334     1   109.8000471 387.438400
    335    334    340     1   109.7800468 425.094400
    335    334    336     1   108.4600466 328.025600
    336    334    340     1   109.7800468 425.094400
    338    337    339     1   108.3000464 339.740800
    338    337    341     1   108.3000464 339.740800
    339    337    341     1   108.3000464 339.740800
    342    345    346     1   109.8000471 387.438400
    342    345    347     1   109.8000471 387.438400
    342    351    352     1   110.1100470 384.091200
    342    351    353     1   110.1100470 384.091200
    342    351    355     1   110.1100470 384.091200
    343    342    345     1   110.5600475 386.601600
    343    342    351     1   108.0100461 406.684800
    343    342    344     1   109.7500473 328.025600
    344    342    345     1   110.5600475 386.601600
    344    342    351     1   108.0100461 406.684800
    345    348    349     1   109.5600471 388.275200
    345    348    350     1   109.5600471 388.275200
    346    345    348     1   109.8000471 387.438400
    346    345    347     1   107.5800459 329.699200
    347    345    348     1   109.8000471 387.438400
    349    348    354     1   109.7800468 425.094400
    349    348    350     1   108.4600466 328.025600
    350    348    354     1   109.7800468 425.094400
    352    351    353     1   108.3000464 339.740800
    352    351    355     1   108.3000464 339.740800
    353    351    355     1   108.3000464 339.740800
    356    359    360     1   109.8000471 387.438400
    356    359    361     1   109.8000471 387.438400
    356    365    366     1   110.1100470 384.091200
    356    365    367     1   110.1100470 384.091200
    356    365    369     1   110.1100470 384.091200
    357    356    359     1   110.5600475 386.601600
    357    356    365     1   108.0100461 406.684800
    357    356    358     1   109.7500473 328.025600
    358    356    359     1   110.5600475 386.601600
    358    356    365     1   108.0100461 406.684800
    359    362    363     1   109.5600471 388.275200
    359    362    364     1   109.5600471 388.275200
    360    359    362     1   109.8000471 387.438400
    360    359    361     1   107.5800459 329.699200
    361    359    362     1   109.8000471 387.438400
    363    362    368     1   109.7800468 425.094400
    363    362    364     1   108.4600466 328.025600
    364    362    368     1   109.7800468 425.094400
    366    365    367     1   108.3000464 339.740800
    366    365    369     1   108.3000464 339.740800
    367    365    369     1   108.3000464 339.740800
    370    373    374     1   109.8000471 387.438400
    370    373    375     1   109.8000471 387.438400
    370    379    380     1   110.1100470 384.091200
    370    379    381     1   110.1100470 384.091200
    370    379    383     1   110.1100470 384.091200
    371    370    373     1   110.5600475 386.601600
    371    370    379     1   108.0100461 406.684800
    371    370    372     1   109.7500473 328.025600
    372    370    373     1   110.5600475 386.601600
    372    370    379     1   108.0100461 406.684800
    373    376    377     1   109.5600471 388.275200
    373    376    378     1   109.5600471 388.275200
    374    373    376     1   109.8000471 387.438400
    374    373    375     1   107.5800459 329.699200
    375    373    376     1   109.8000471 387.438400
    377    376    382     1   109.7800468 425.094400
    377    376    378     1   108.4600466 328.025600
    378    376    382     1   109.7800468 425.094400
    380    379    381     1   108.3000464 339.740800
    380    379    383     1   108.3000464 339.740800
    381    379    383     1   108.3000464 339.740800
    384    387    388     1   109.8000471 387.438400
    384    387    389     1   109.8000471 387.438400
    384    393    394     1   110.1100470 384.091200
    384    393    395     1   110.1100470 384.091200
    384    393    397     1   110.1100470 384.091200
    385    384    387     1   110.5600475 386.601600
    385    384    393     1   108.0100461 406.684800
    385    384    386     1   109.7500473 328.025600
    386    384    387     1   110.5600475 386.601600
    386    384    393     1   108.0100461 406.684800
    387    390    391     1   109.5600471 388.275200
    387    390    392     1   109.5600471 388.275200
    388    387    390     1   109.8000471 387.438400
    388    387    389     1   107.5800459 329.699200
    389    387    390     1   109.8000471 387.438400
    391    390    396     1   109.7800468 425.094400
    391    390    392     1   108.4600466 328.025600
    392    390    396     1   109.7800468 425.094400
    394    393    395     1   108.3000464 339.740800
    394    393    397     1   108.3000464 339.740800
    395    393    397     1   108.3000464 339.740800
    398    401    402     1   109.8000471 387.438400
    398    401    403     1   109.8000471 387.438400
    398    407    408     1   110.1100470 384.091200
    398    407    409     1   110.1100470 384.091200
    398    407    411     1   110.1100470 384.091200
    399    398    401     1   110.5600475 386.601600
    399    398    407     1   108.0100461 406.684800
    399    398    400     1   109.7500473 328.025600
    400    398    401     1   110.5600475 386.601600
    400    398    407     1   108.0100461 406.684800
    401    404    405     1   109.5600471 388.275200
    401    404    406     1   109.5600471 388.275200
    402    401    404     1   109.8000471 387.438400
    402    401    403     1   107.5800459 329.699200
    403    401    404     1   109.8000471 387.438400
    405    404    410     1   109.7800468 425.094400
    405    404    406     1   108.4600466 328.025600
    406    404    410     1   109.7800468 425.094400
    408    407    409     1   108.3000464 339.740800
    408    407    411     1   108.3000464 339.740800
    409    407    411     1   108.3000464 339.740800
    412    415    416     1   109.8000471 387.438400
    412    415    417     1   109.8000471 387.438400
    412    421    422     1   110.1100470 384.091200
    412    421    423     1   110.1100470 384.091200
    412    421    425     1   110.1100470 384.091200
    413    412    415     1   110.5600475 386.601600
    413    412    421     1   108.0100461 406.684800
    413    412    414     1   109.7500473 328.025600
    414    412    415     1   110.5600475 386.601600
    414    412    421     1   108.0100461 406.684800
    415    418    419     1   109.5600471 388.275200
    415    418    420     1   109.5600471 388.275200
    416    415    418     1   109.8000471 387.438400
    416    415    417     1   107.5800459 329.699200
    417    415    418     1   109.8000471 387.438400
    419    418    424     1   109.7800468 425.094400
    419    418    420     1   108.4600466 328.025600
    420    418    424     1   109.7800468 425.094400
    422    421    423     1   108.3000464 339.740800
    422    421    425     1   108.3000464 339.740800
    423    421    425     1   108.3000464 339.740800
    426    429    430     1   109.8000471 387.438400
    426    429    431     1   109.8000471 387.438400
    426    435    436     1   110.1100470 384.091200
    426    435    437     1   110.1100470 384.091200
    426    435    439     1   110.1100470 384.091200
    427    426    429     1   110.5600475 386.601600
    427    426    435     1   108.0100461 406.684800
    427    426    428     1   109.7500473 328.025600
    428    426    429     1   110.5600475 386.601600
    428    426    435     1   108.0100461 406.684800
    429    432    433     1   109.5600471 388.275200
    429    432    434     1   109.5600471 388.275200
    430    429    432     1   109.8000471 387.438400
    430    429    431     1   107.5800459 329.699200
    431    429    432     1   109.8000471 387.438400
    433    432    438     1   109.7800468 425.094400
    433    432    434     1   108.4600466 328.025600
    434    432    438     1   109.7800468 425.094400
    436    435    437     1   108.3000464 339.740800
    436    435    439     1   108.3000464 339.740800
    437    435    439     1   108.3000464 339.740800
    440    443    444     1   109.8000471 387.438400
    440    443    445     1   109.8000471 387.438400
    440    449    450     1   110.1100470 384.091200
    440    449    451     1   110.1100470 384.091200
    440    449    453     1   110.1100470 384.091200
    441    440    443     1   110.5600475 386.601600
    441    440    449     1   108.0100461 406.684800
    441    440    442     1   109.7500473 328.025600
    442    440    443     1   110.5600475 386.601600
    442    440    449     1   108.0100461 406.684800
    443    446    447     1   109.5600471 388.275200
    443    446    448     1   109.5600471 388.275200
    444    443    446     1   109.8000471 387.438400
    444    443    445     1   107.5800459 329.699200
    445    443    446     1   109.8000471 387.438400
    447    446    452     1   109.7800468 425.094400
    447    446    448     1   108.4600466 328.025600
    448    446    452     1   109.7800468 425.094400
    450    449    451     1   108.3000464 339.740800
    450    449    453     1   108.3000464 339.740800
    451    449    453     1   108.3000464 339.740800
    454    457    458     1   109.8000471 387.438400
    454    457    459     1   109.8000471 387.438400
    454    463    464     1   110.1100470 384.091200
    454    463    465     1   110.1100470 384.091200
    454    463    467     1   110.1100470 384.091200
    455    454    457     1   110.5600475 386.601600
    455    454    463     1   108.0100461 406.684800
    455    454    456     1   109.7500473 328.025600
    456    454    457     1   110.5600475 386.601600
    456    454    463     1   108.0100461 406.684800
    457    460    461     1   109.5600471 388.275200
    457    460    462     1   109.5600471 388.275200
    458    457    460     1   109.8000471 387.438400
    458    457    459     1   107.5800459 329.699200
    459    457    460     1   109.8000471 387.438400
    461    460    466     1   109.7800468 425.094400
    461    460    462     1   108.4600466 328.025600
    462    460    466     1   109.7800468 425.094400
    464    463    465     1   108.3000464 339.740800
    464    463    467     1   108.3000464 339.740800
    465    463    467     1   108.3000464 339.740800

[ dihedrals ]
;    ai     aj     ak     al funct         c0         c1         c2         c3         c4         c5
      1      2     14     26     1  0.0000000  0.6508444  3
      1      5     17     20     1  0.0000000  0.6508444  3
      1      8     11     23     1  0.0000000  0.6508444  3
      2      1      5     17     1  0.0000000  0.6508444  3
      2      1      8     11     1  0.0000000  0.6508444  3
      2     14     26    118     1  0.0000000  0.6508444  3
      5      1      2     14     1  0.0000000  0.6508444  3
      5      1      8     11     1  0.0000000  0.6508444  3
      5     17     20     58     1  0.0000000  0.6508444  3
      8      1      2     14     1  0.0000000  0.6508444  3
      8      1      5     17     1  0.0000000  0.6508444  3
      8     11     23     88     1  0.0000000  0.6508444  3
     11     23     88     79     1  180.0000771  0.4184000  2
     11     23     88     79     1  0.0000000  1.6024720  3
     14     26    118    109     1  180.0000771  0.4184000  2
     14     26    118    109     1  0.0000000  1.6024720  3
     17     20     58     49     1  180.0000771  0.4184000  2
     17     20     58     49     1  0.0000000  1.6024720  3
     20     58     49     40     1  180.0000771  0.4184000  2
     20     58     49     40     1  0.0000000  1.6024720  3
     23     88     79     70     1  180.0000771  0.4184000  2
     23     88     79     70     1  0.0000000  1.6024720  3
     26    118    109    100     1  180.0000771  0.4184000  2
     26    118    109    100     1  0.0000000  1.6024720  3
     30     31     43     55     1  0.0000000  0.6508444  3
     30     34     46     52     1  0.0000000  0.6508444  3
     30     37     40     49     1  0.0000000  0.6508444  3
     31     30     34     46     1  0.0000000  0.6508444  3
     31     30     37     40     1  0.0000000  0.6508444  3
     31     43     55    178     1  0.0000000  0.6508444  3
     34     30     31     43     1  0.0000000  0.6508444  3
     34     30     37     40     1  0.0000000  0.6508444  3
     34     46     52    148     1  0.0000000  0.6508444  3
     37     30     31     43     1  0.0000000  0.6508444  3
     37     30     34     46     1  0.0000000  0.6508444  3
     37     40     49     58     1  0.0000000  0.6508444  3
     43     55    178    169     1  180.0000771  0.4184000  2
     43     55    178    169     1  0.0000000  1.6024720  3
     46     52    148    139     1  180.0000771  0.4184000  2
     46     52    148    139     1  0.0000000  1.6024720  3
     52    148    139    130     1  180.0000771  0.4184000  2
     52    148    139    130     1  0.0000000  1.6024720  3
     55    178    169    160     1  180.0000771  0.4184000  2
     55    178    169    160     1  0.0000000  1.6024720  3
     60     61     73     85     1  0.0000000  0.6508444  3
     60     64     76     82     1  0.0000000  0.6508444  3
     60     67     70     79     1  0.0000000  0.6508444  3
     61     60     64     76     1  0.0000000  0.6508444  3
     61     60     67     70     1  0.0000000  0.6508444  3
     61     73     85    238     1  0.0000000  0.6508444  3
     64     60     61     73     1  0.0000000  0.6508444  3
     64     60     67     70     1  0.0000000  0.6508444  3
     64     76     82    208     1  0.0000000  0.6508444  3
     67     60     61     73     1  0.0000000  0.6508444  3
     67     60     64     76     1  0.0000000  0.6508444  3
     67     70     79     88     1  0.0000000  0.6508444  3
     73     85    238    229     1  180.0000771  0.4184000  2
     73     85    238    229     1  0.0000000  1.6024720  3
     76     82    208    199     1  180.0000771  0.4184000  2
     76     82    208    199     1  0.0000000  1.6024720  3
     82    208    199    190     1  180.0000771  0.4184000  2
     82    208    199    190     1  0.0000000  1.6024720  3
     85    238    229    220     1  180.0000771  0.4184000  2
     85    238    229    220     1  0.0000000  1.6024720  3
     90     91    103    115     1  0.0000000  0.6508444  3
     90     94    106    112     1  0.0000000  0.6508444  3
     90     97    100    109     1  0.0000000  0.6508444  3
     91     90     94    106     1  0.0000000  0.6508444  3
     91     90     97    100     1  0.0000000  0.6508444  3
     91    103    115    298     1  0.0000000  0.6508444  3
     94     90     91    103     1  0.0000000  0.6508444  3
     94     90     97    100     1  0.0000000  0.6508444  3
     94    106    112    268     1  0.0000000  0.6508444  3
     97     90     91    103     1  0.0000000  0.6508444  3
     97     90     94    106     1  0.0000000  0.6508444  3
     97    100    109    118     1  0.0000000  0.6508444  3
    103    115    298    289     1  180.0000771  0.4184000  2
    103    115    298    289     1  0.0000000  1.6024720  3
    106    112    268    259     1  180.0000771  0.4184000  2
    106    112    268    259     1  0.0000000  1.6024720  3
    112    268    259    250     1  180.0000771  0.4184000  2
    112    268    259    250     1  0.0000000  1.6024720  3
    115    298    289    280     1  180.0000771  0.4184000  2
    115    298    289    280     1  0.0000000  1.6024720  3
    120    121    133    145     1  0.0000000  0.6508444  3
    120    124    136    142     1  0.0000000  0.6508444  3
    120    127    130    139     1  0.0000000  0.6508444  3
    121    120    124    136     1  0.0000000  0.6508444  3
    121    120    127    130     1  0.0000000  0.6508444  3
    121    133    145    326     1  0.0000000  0.6508444  3
    124    120    121    133     1  0.0000000  0.6508444  3
    124    120    127    130     1  0.0000000  0.6508444  3
    124    136    142    312     1  0.0000000  0.6508444  3
    127    120    121    133     1  0.0000000  0.6508444  3
    127    120    124    136     1  0.0000000  0.6508444  3
    127    130    139    148     1  0.0000000  0.6508444  3
    133    145    326    320     1  180.0000771  0.4184000  2
    133    145    326    320     1  0.0000000  1.6024720  3
    136    142    312    306     1  180.0000771  0.4184000  2
    136    142    312    306     1  0.0000000  1.6024720  3
    142    312    306    303     1  180.0000771  0.4184000  2
    142    312    306    303     1  0.0000000  1.6024720  3
    145    326    320    317     1  180.0000771  0.4184000  2
    145    326    320    317     1  0.0000000  1.6024720  3
    150    151    163    175     1  0.0000000  0.6508444  3
    150    154    166    172     1  0.0000000  0.6508444  3
    150    157    160    169     1  0.0000000  0.6508444  3
    151    150    154    166     1  0.0000000  0.6508444  3
    151    150    157    160     1  0.0000000  0.6508444  3
    151    163    175    354     1  0.0000000  0.6508444  3
    154    150    151    163     1  0.0000000  0.6508444  3
    154    150    157    160     1  0.0000000  0.6508444  3
    154    166    172    340     1  0.0000000  0.6508444  3
    157    150    151    163     1  0.0000000  0.6508444  3
    157    150    154    166     1  0.0000000  0.6508444  3
    157    160    169    178     1  0.0000000  0.6508444  3
    163    175    354    348     1  180.0000771  0.4184000  2
    163    175    354    348     1  0.0000000  1.6024720  3
    166    172    340    334     1  180.0000771  0.4184000  2
    166    172    340    334     1  0.0000000  1.6024720  3
    172    340    334    331     1  180.0000771  0.4184000  2
    172    340    334    331     1  0.0000000  1.6024720  3
    175    354    348    345     1  180.0000771  0.4184000  2
    175    354    348    345     1  0.0000000  1.6024720  3
    180    181    193    205     1  0.0000000  0.6508444  3
    180    184    196    202     1  0.0000000  0.6508444  3
    180    187    190    199     1  0.0000000  0.6508444  3
    181    180    184    196     1  0.0000000  0.6508444  3
    181    180    187    190     1  0.0000000  0.6508444  3
    181    193    205    382     1  0.0000000  0.6508444  3
    184    180    181    193     1  0.0000000  0.6508444  3
    184    180    187    190     1  0.0000000  0.6508444  3
    184    196    202    368     1  0.0000000  0.6508444  3
    187    180    181    193     1  0.0000000  0.6508444  3
    187    180    184    196     1  0.0000000  0.6508444  3
    187    190    199    208     1  0.0000000  0.6508444  3
    193    205    382    376     1  180.0000771  0.4184000  2
    193    205    382    376     1  0.0000000  1.6024720  3
    196    202    368    362     1  180.0000771  0.4184000  2
    196    202    368    362     1  0.0000000  1.6024720  3
    202    368    362    359     1  180.0000771  0.4184000  2
    202    368    362    359     1  0.0000000  1.6024720  3
    205    382    376    373     1  180.0000771  0.4184000  2
    205    382    376    373     1  0.0000000  1.6024720  3
    210    211    223    235     1  0.0000000  0.6508444  3
    210    214    226    232     1  0.0000000  0.6508444  3
    210    217    220    229     1  0.0000000  0.6508444  3
    211    210    214    226     1  0.0000000  0.6508444  3
    211    210    217    220     1  0.0000000  0.6508444  3
    211    223    235    410     1  0.0000000  0.6508444  3
    214    210    211    223     1  0.0000000  0.6508444  3
    214    210    217    220     1  0.0000000  0.6508444  3
    214    226    232    396     1  0.0000000  0.6508444  3
    217    210    211    223     1  0.0000000  0.6508444  3
    217    210    214    226     1  0.0000000  0.6508444  3
    217    220    229    238     1  0.0000000  0.6508444  3
    223    235    410    404     1  180.0000771  0.4184000  2
    223    235    410    404     1  0.0000000  1.6024720  3
    226    232    396    390     1  180.0000771  0.4184000  2
    226    232    396    390     1  0.0000000  1.6024720  3
    232    396    390    387     1  180.0000771  0.4184000  2
    232    396    390    387     1  0.0000000  1.6024720  3
    235    410    404    401     1  180.0000771  0.4184000  2
    235    410    404    401     1  0.0000000  1.6024720  3
    240    241    253    265     1  0.0000000  0.6508444  3
    240    244    256    262     1  0.0000000  0.6508444  3
    240    247    250    259     1  0.0000000  0.6508444  3
    241    240    244    256     1  0.0000000  0.6508444  3
    241    240    247    250     1  0.0000000  0.6508444  3
    241    253    265    438     1  0.0000000  0.6508444  3
    244    240    241    253     1  0.0000000  0.6508444  3
    244    240    247    250     1  0.0000000  0.6508444  3
    244    256    262    424     1  0.0000000  0.6508444  3
    247    240    241    253     1  0.0000000  0.6508444  3
    247    240    244    256     1  0.0000000  0.6508444  3
    247    250    259    268     1  0.0000000  0.6508444  3
    253    265    438    432     1  180.0000771  0.4184000  2
    253    265    438    432     1  0.0000000  1.6024720  3
    256    262    424    418     1  180.0000771  0.4184000  2
    256    262    424    418     1  0.0000000  1.6024720  3
    262    424    418    415     1  180.0000771  0.4184000  2
    262    424    418    415     1  0.0000000  1.6024720  3
    265    438    432    429     1  180.0000771  0.4184000  2
    265    438    432    429     1  0.0000000  1.6024720  3
    270    271    283    295     1  0.0000000  0.6508444  3
    270    274    286    292     1  0.0000000  0.6508444  3
    270    277    280    289     1  0.0000000  0.6508444  3
    271    270    274    286     1  0.0000000  0.6508444  3
    271    270    277    280     1  0.0000000  0.6508444  3
    271    283    295    466     1  0.0000000  0.6508444  3
    274    270    271    283     1  0.0000000  0.6508444  3
    274    270    277    280     1  0.0000000  0.6508444  3
    274    286    292    452     1  0.0000000  0.6508444  3
    277    270    271    283     1  0.0000000  0.6508444  3
    277    270    274    286     1  0.0000000  0.6508444  3
    277    280    289    298     1  0.0000000  0.6508444  3
    283    295    466    460     1  180.0000771  0.4184000  2
    283    295    466    460     1  0.0000000  1.6024720  3
    286    292    452    446     1  180.0000771  0.4184000  2
    286    292    452    446     1  0.0000000  1.6024720  3
    292    452    446    443     1  180.0000771  0.4184000  2
    292    452    446    443     1  0.0000000  1.6024720  3
    295    466    460    457     1  180.0000771  0.4184000  2
    295    466    460    457     1  0.0000000  1.6024720  3
    300    303    306    312     1  0.0000000  0.6508444  3
    306    303    300    309     1  0.0000000  0.6508444  3
    314    317    320    326     1  0.0000000  0.6508444  3
    320    317    314    323     1  0.0000000  0.6508444  3
    328    331    334    340     1  0.0000000  0.6508444  3
    334    331    328    337     1  0.0000000  0.6508444  3
    342    345    348    354     1  0.0000000  0.6508444  3
    348    345    342    351     1  0.0000000  0.6508444  3
    356    359    362    368     1  0.0000000  0.6508444  3
    362    359    356    365     1  0.0000000  0.6508444  3
    370    373    376    382     1  0.0000000  0.6508444  3
    376    373    370    379     1  0.0000000  0.6508444  3
    384    387    390    396     1  0.0000000  0.6508444  3
    390    387    384    393     1  0.0000000  0.6508444  3
    398    401    404    410     1  0.0000000  0.6508444  3
    404    401    398    407     1  0.0000000  0.6508444  3
    412    415    418    424     1  0.0000000  0.6508444  3
    418    415    412    421     1  0.0000000  0.6508444  3
    426    429    432    438     1  0.0000000  0.6508444  3
    432    429    426    435     1  0.0000000  0.6508444  3
    440    443    446    452     1  0.0000000  0.6508444  3
    446    443    440    449     1  0.0000000  0.6508444  3
    454    457    460    466     1  0.0000000  0.6508444  3
    460    457    454    463     1  0.0000000  0.6508444  3
      1      2     14     15     1  0.0000000  0.6508444  3
      1      2     14     16     1  0.0000000  0.6508444  3
      1      5     17     18     1  0.0000000  0.6508444  3
      1      5     17     19     1  0.0000000  0.6508444  3
      1      8     11     12     1  0.0000000  0.6508444  3
      1      8     11     13     1  0.0000000  0.6508444  3
      2      1      5      6     1  0.0000000  0.6508444  3
      2      1      5      7     1  0.0000000  0.6508444  3
      2      1      8      9     1  0.0000000  0.6508444  3
      2      1      8     10     1  0.0000000  0.6508444  3
      2     14     26     27     1  0.0000000  0.6508444  3
      2     14     26     28     1  0.0000000  0.6508444  3
      5      1      2      3     1  0.0000000  0.6508444  3
      8      1      2      3     1  0.0000000  0.6508444  3
     29      1      2      3     1  0.0000000  0.6508444  3
      3      2     14     26     1  0.0000000  0.6508444  3
      3      2     14     15     1  0.0000000  0.6508444  3
      3      2     14     16     1  0.0000000  0.6508444  3
      5      1      2      4     1  0.0000000  0.6508444  3
      8      1      2      4     1  0.0000000  0.6508444  3
     29      1      2      4     1  0.0000000  0.6508444  3
      4      2     14     26     1  0.0000000  0.6508444  3
      4      2     14     15     1  0.0000000  0.6508444  3
      4      2     14     16     1  0.0000000  0.6508444  3
      5      1      8      9     1  0.0000000  0.6508444  3
      5      1      8     10     1  0.0000000  0.6508444  3
      5     17     20     21     1  0.0000000  0.6508444  3
      5     17     20     22     1  0.0000000  0.6508444  3
      8      1      5      6     1  0.0000000  0.6508444  3
     29      1      5      6     1  0.0000000  0.6508444  3
      6      5     17     20     1  0.0000000  0.6508444  3
      6      5     17     18     1  0.0000000  0.6508444  3
      6      5     17     19     1  0.0000000  0.6508444  3
      8      1      5      7     1  0.0000000  0.6508444  3
     29      1      5      7     1  0.0000000  0.6508444  3
      7      5     17     20     1  0.0000000  0.6508444  3
      7      5     17     18     1  0.0000000  0.6508444  3
      7      5     17     19     1  0.0000000  0.6508444  3
      8     11     23     24     1  0.0000000  0.6508444  3
      8     11     23     25     1  0.0000000  0.6508444  3
     29      1      8      9     1  0.0000000  0.6508444  3
      9      8     11     23     1  0.0000000  0.6508444  3
      9      8     11     12     1  0.0000000  0.6508444  3
      9      8     11     13     1  0.0000000  0.6508444  3
     29      1      8     10     1  0.0000000  0.6508444  3
     10      8     11     23     1  0.0000000  0.6508444  3
     10      8     11     12     1  0.0000000  0.6508444  3
     10      8     11     13     1  0.0000000  0.6508444  3
     29      1      8     11     1  0.0000000  0.6508444  3
     12     11     23     88     1  0.0000000  1.0460000  1
     12     11     23     88     1  0.0000000  0.0000000  3
     12     11     23     24     1  0.0000000  0.6508444  3
     12     11     23     25     1  0.0000000  0.6508444  3
     13     11     23     88     1  0.0000000  1.0460000  1
     13     11     23     88     1  0.0000000  0.0000000  3
     13     11     23     24     1  0.0000000  0.6508444  3
     13     11     23     25     1  0.0000000  0.6508444  3
     29      1      2     14     1  0.0000000  0.6508444  3
     15     14     26    118     1  0.0000000  1.0460000  1
     15     14     26    118     1  0.0000000  0.0000000  3
     15     14     26     27     1  0.0000000  0.6508444  3
     15     14     26     28     1  0.0000000  0.6508444  3
     16     14     26    118     1  0.0000000  1.0460000  1
     16     14     26    118     1  0.0000000  0.0000000  3
     16     14     26     27     1  0.0000000  0.6508444  3
     16     14     26     28     1  0.0000000  0.6508444  3
     29      1      5     17     1  0.0000000  0.6508444  3
     18     17     20     58     1  0.0000000  1.0460000  1
     18     17     20     58     1  0.0000000  0.0000000  3
     18     17     20     21     1  0.0000000  0.6508444  3
     18     17     20     22     1  0.0000000  0.6508444  3
     19     17     20     58     1  0.0000000  1.0460000  1
     19     17     20     58     1  0.0000000  0.0000000  3
     19     17     20     21     1  0.0000000  0.6508444  3
     19     17     20     22     1  0.0000000  0.6508444  3
     20     58     49     50     1  0.0000000  1.6038667  3
     20     58     49     51     1  0.0000000  1.6038667  3
     21     20     58     49     1  0.0000000  1.6038667  3
     22     20     58     49     1  0.0000000  1.6038667  3
     23     88     79     80     1  0.0000000  1.6038667  3
     23     88     79     81     1  0.0000000  1.6038667  3
     24     23     88     79     1  0.0000000  1.6038667  3
     25     23     88     79     1  0.0000000  1.6038667  3
     26    118    109    110     1  0.0000000  1.6038667  3
     26    118    109    111     1  0.0000000  1.6038667  3
     27     26    118    109     1  0.0000000  1.6038667  3
     28     26    118    109     1  0.0000000  1.6038667  3
     30     31     43     44     1  0.0000000  0.6508444  3
     30     31     43     45     1  0.0000000  0.6508444  3
     30     34     46     47     1  0.0000000  0.6508444  3
     30     34     46     48     1  0.0000000  0.6508444  3
     30     37     40     41     1  0.0000000  0.6508444  3
     30     37     40     42     1  0.0000000  0.6508444  3
     31     30     34     35     1  0.0000000  0.6508444  3
     31     30     34     36     1  0.0000000  0.6508444  3
     31     30     37     38     1  0.0000000  0.6508444  3
     31     30     37     39     1  0.0000000  0.6508444  3
     31     43     55     56     1  0.0000000  0.6508444  3
     31     43     55     57     1  0.0000000  0.6508444  3
     32     31     30     34     1  0.0000000  0.6508444  3
     32     31     30     37     1  0.0000000  0.6508444  3
     32     31     30     59     1  0.0000000  0.6508444  3
     32     31     43     55     1  0.0000000  0.6508444  3
     32     31     43     44     1  0.0000000  0.6508444  3
     32     31     43     45     1  0.0000000  0.6508444  3
     33     31     30     34     1  0.0000000  0.6508444  3
     33     31     30     37     1  0.0000000  0.6508444  3
     33     31     30     59     1  0.0000000  0.6508444  3
     33     31     43     55     1  0.0000000  0.6508444  3
     33     31     43     44     1  0.0000000  0.6508444  3
     33     31     43     45     1  0.0000000  0.6508444  3
     34     30     37     38     1  0.0000000  0.6508444  3
     34     30     37     39     1  0.0000000  0.6508444  3
     34     46     52     53     1  0.0000000  0.6508444  3
     34     46     52     54     1  0.0000000  0.6508444  3
     35     34     30     37     1  0.0000000  0.6508444  3
     35     34     30     59     1  0.0000000  0.6508444  3
     35     34     46     52     1  0.0000000  0.6508444  3
     35     34     46     47     1  0.0000000  0.6508444  3
     35     34     46     48     1  0.0000000  0.6508444  3
     36     34     30     37     1  0.0000000  0.6508444  3
     36     34     30     59     1  0.0000000  0.6508444  3
     36     34     46     52     1  0.0000000  0.6508444  3
     36     34     46     47     1  0.0000000  0.6508444  3
     36     34     46     48     1  0.0000000  0.6508444  3
     37     40     49     50     1  0.0000000  0.6508444  3
     37     40     49     51     1  0.0000000  0.6508444  3
     38     37     30     59     1  0.0000000  0.6508444  3
     38     37     40     49     1  0.0000000  0.6508444  3
     38     37     40     41     1  0.0000000  0.6508444  3
     38     37     40     42     1  0.0000000  0.6508444  3
     39     37     30     59     1  0.0000000  0.6508444  3
     39     37     40     49     1  0.0000000  0.6508444  3
     39     37     40     41     1  0.0000000  0.6508444  3
     39     37     40     42     1  0.0000000  0.6508444  3
     40     37     30     59     1  0.0000000  0.6508444  3
     41     40     49     58     1  0.0000000  1.0460000  1
     41     40     49     58     1  0.0000000  0.0000000  3
     41     40     49     50     1  0.0000000  0.6508444  3
     41     40     49     51     1  0.0000000  0.6508444  3
     42     40     49     58     1  0.0000000  1.0460000  1
     42     40     49     58     1  0.0000000  0.0000000  3
     42     40     49     50     1  0.0000000  0.6508444  3
     42     40     49     51     1  0.0000000  0.6508444  3
     43     31     30     59     1  0.0000000  0.6508444  3
     44     43     55    178     1  0.0000000  1.0460000  1
     44     43     55    178     1  0.0000000  0.0000000  3
     44     43     55     56     1  0.0000000  0.6508444  3
     44     43     55     57     1  0.0000000  0.6508444  3
     45     43     55    178     1  0.0000000  1.0460000  1
     45     43     55    178     1  0.0000000  0.0000000  3
     45     43     55     56     1  0.0000000  0.6508444  3
     45     43     55     57     1  0.0000000  0.6508444  3
     46     34     30     59     1  0.0000000  0.6508444  3
     47     46     52    148     1  0.0000000  1.0460000  1
     47     46     52    148     1  0.0000000  0.0000000  3
     47     46     52     53     1  0.0000000  0.6508444  3
     47     46     52     54     1  0.0000000  0.6508444  3
     48     46     52    148     1  0.0000000  1.0460000  1
     48     46     52    148     1  0.0000000  0.0000000  3
     48     46     52     53     1  0.0000000  0.6508444  3
     48     46     52     54     1  0.0000000  0.6508444  3
     52    148    139    140     1  0.0000000  1.6038667  3
     52    148    139    141     1  0.0000000  1.6038667  3
     53     52    148    139     1  0.0000000  1.6038667  3
     54     52    148    139     1  0.0000000  1.6038667  3
     55    178    169    170     1  0.0000000  1.6038667  3
     55    178    169    171     1  0.0000000  1.6038667  3
     56     55    178    169     1  0.0000000  1.6038667  3
     57     55    178    169     1  0.0000000  1.6038667  3
     60     61     73     74     1  0.0000000  0.6508444  3
     60     61     73     75     1  0.0000000  0.6508444  3
     60     64     76     77     1  0.0000000  0.6508444  3
     60     64     76     78     1  0.0000000  0.6508444  3
     60     67     70     71     1  0.0000000  0.6508444  3
     60     67     70     72     1  0.0000000  0.6508444  3
     61     60     64     65     1  0.0000000  0.6508444  3
     61     60     64     66     1  0.0000000  0.6508444  3
     61     60     67     68     1  0.0000000  0.6508444  3
     61     60     67     69     1  0.0000000  0.6508444  3
     61     73     85     86     1  0.0000000  0.6508444  3
     61     73     85     87     1  0.0000000  0.6508444  3
     62     61     60     64     1  0.0000000  0.6508444  3
     62     61     60     67     1  0.0000000  0.6508444  3
     62     61     60     89     1  0.0000000  0.6508444  3
     62     61     73     85     1  0.0000000  0.6508444  3
     62     61     73     74     1  0.0000000  0.6508444  3
     62     61     73     75     1  0.0000000  0.6508444  3
     63     61     60     64     1  0.0000000  0.6508444  3
     63     61     60     67     1  0.0000000  0.6508444  3
     63     61     60     89     1  0.0000000  0.6508444  3
     63     61     73     85     1  0.0000000  0.6508444  3
     63     61     73     74     1  0.0000000  0.6508444  3
     63     61     73     75     1  0.0000000  0.6508444  3
     64     60     67     68     1  0.0000000  0.6508444  3
     64     60     67     69     1  0.0000000  0.6508444  3
     64     76     82     83     1  0.0000000  0.6508444  3
     64     76     82     84     1  0.0000000  0.6508444  3
     65     64     60     67     1  0.0000000  0.6508444  3
     65     64     60     89     1  0.0000000  0.6508444  3
     65     64     76     82     1  0.0000000  0.6508444  3
     65     64     76     77     1  0.0000000  0.6508444  3
     65     64     76     78     1  0.0000000  0.6508444  3
     66     64     60     67     1  0.0000000  0.6508444  3
     66     64     60     89     1  0.0000000  0.6508444  3
     66     64     76     82     1  0.0000000  0.6508444  3
     66     64     76     77     1  0.0000000  0.6508444  3
     66     64     76     78     1  0.0000000  0.6508444  3
     67     70     79     80     1  0.0000000  0.6508444  3
     67     70     79     81     1  0.0000000  0.6508444  3
     68     67     60     89     1  0.0000000  0.6508444  3
     68     67     70     79     1  0.0000000  0.6508444  3
     68     67     70     71     1  0.0000000  0.6508444  3
     68     67     70     72     1  0.0000000  0.6508444  3
     69     67     60     89     1  0.0000000  0.6508444  3
     69     67     70     79     1  0.0000000  0.6508444  3
     69     67     70     71     1  0.0000000  0.6508444  3
     69     67     70     72     1  0.0000000  0.6508444  3
     70     67     60     89     1  0.0000000  0.6508444  3
     71     70     79     88     1  0.0000000  1.0460000  1
     71     70     79     88     1  0.0000000  0.0000000  3
     71     70     79     80     1  0.0000000  0.6508444  3
     71     70     79     81     1  0.0000000  0.6508444  3
     72     70     79     88     1  0.0000000  1.0460000  1
     72     70     79     88     1  0.0000000  0.0000000  3
     72     70     79     80     1  0.0000000  0.6508444  3
     72     70     79     81     1  0.0000000  0.6508444  3
     73     61     60     89     1  0.0000000  0.6508444  3
     74     73     85    238     1  0.0000000  1.0460000  1
     74     73     85    238     1  0.0000000  0.0000000  3
     74     73     85     86     1  0.0000000  0.6508444  3
     74     73     85     87     1  0.0000000  0.6508444  3
     75     73     85    238     1  0.0000000  1.0460000  1
     75     73     85    238     1  0.0000000  0.0000000  3
     75     73     85     86     1  0.0000000  0.6508444  3
     75     73     85     87     1  0.0000000  0.6508444  3
     76     64     60     89     1  0.0000000  0.6508444  3
     77     76     82    208     1  0.0000000  1.0460000  1
     77     76     82    208     1  0.0000000  0.0000000  3
     77     76     82     83     1  0.0000000  0.6508444  3
     77     76     82     84     1  0.0000000  0.6508444  3
     78     76     82    208     1  0.0000000  1.0460000  1
     78     76     82    208     1  0.0000000  0.0000000  3
     78     76     82     83     1  0.0000000  0.6508444  3
     78     76     82     84     1  0.0000000  0.6508444  3
     82    208    199    200     1  0.0000000  1.6038667  3
     82    208    199    201     1  0.0000000  1.6038667  3
     83     82    208    199     1  0.0000000  1.6038667  3
     84     82    208    199     1  0.0000000  1.6038667  3
     85    238    229    230     1  0.0000000  1.6038667  3
     85    238    229    231     1  0.0000000  1.6038667  3
     86     85    238    229     1  0.0000000  1.6038667  3
     87     85    238    229     1  0.0000000  1.6038667  3
     90     91    103    104     1  0.0000000  0.6508444  3
     90     91    103    105     1  0.0000000  0.6508444  3
     90     94    106    107     1  0.0000000  0.6508444  3
     90     94    106    108     1  0.0000000  0.6508444  3
     90     97    100    101     1  0.0000000  0.6508444  3
     90     97    100    102     1  0.0000000  0.6508444  3
     91     90     94     95     1  0.0000000  0.6508444  3
     91     90     94     96     1  0.0000000  0.6508444  3
     91     90     97     98     1  0.0000000  0.6508444  3
     91     90     97     99     1  0.0000000  0.6508444  3
     91    103    115    116     1  0.0000000  0.6508444  3
     91    103    115    117     1  0.0000000  0.6508444  3
     92     91     90     94     1  0.0000000  0.6508444  3
     92     91     90     97     1  0.0000000  0.6508444  3
     92     91     90    119     1  0.0000000  0.6508444  3
     92     91    103    115     1  0.0000000  0.6508444  3
     92     91    103    104     1  0.0000000  0.6508444  3
     92     91    103    105     1  0.0000000  0.6508444  3
     93     91     90     94     1  0.0000000  0.6508444  3
     93     91     90     97     1  0.0000000  0.6508444  3
     93     91     90    119     1  0.0000000  0.6508444  3
     93     91    103    115     1  0.0000000  0.6508444  3
     93     91    103    104     1  0.0000000  0.6508444  3
     93     91    103    105     1  0.0000000  0.6508444  3
     94     90     97     98     1  0.0000000  0.6508444  3
     94     90     97     99     1  0.0000000  0.6508444  3
     94    106    112    113     1  0.0000000  0.6508444  3
     94    106    112    114     1  0.0000000  0.6508444  3
     95     94     90     97     1  0.0000000  0.6508444  3
     95     94     90    119     1  0.0000000  0.6508444  3
     95     94    106    112     1  0.0000000  0.6508444  3
     95     94    106    107     1  0.0000000  0.6508444  3
     95     94    106    108     1  0.0000000  0.6508444  3
     96     94     90     97     1  0.0000000  0.6508444  3
     96     94     90    119     1  0.0000000  0.6508444  3
     96     94    106    112     1  0.0000000  0.6508444  3
     96     94    106    107     1  0.0000000  0.6508444  3
     96     94    106    108     1  0.0000000  0.6508444  3
     97    100    109    110     1  0.0000000  0.6508444  3
     97    100    109    111     1  0.0000000  0.6508444  3
     98     97     90    119     1  0.0000000  0.6508444  3
     98     97    100    109     1  0.0000000  0.6508444  3
     98     97    100    101     1  0.0000000  0.6508444  3
     98     97    100    102     1  0.0000000  0.6508444  3
     99     97     90    119     1  0.0000000  0.6508444  3
     99     97    100    109     1  0.0000000  0.6508444  3
     99     97    100    101     1  0.0000000  0.6508444  3
     99     97    100    102     1  0.0000000  0.6508444  3
    100     97     90    119     1  0.0000000  0.6508444  3
    101    100    109    118     1  0.0000000  1.0460000  1
    101    100    109    118     1  0.0000000  0.0000000  3
    101    100    109    110     1  0.0000000  0.6508444  3
    101    100    109    111     1  0.0000000  0.6508444  3
    102    100    109    118     1  0.0000000  1.0460000  1
    102    100    109    118     1  0.0000000  0.0000000  3
    102    100    109    110     1  0.0000000  0.6508444  3
    102    100    109    111     1  0.0000000  0.6508444  3
    103     91     90    119     1  0.0000000  0.6508444  3
    104    103    115    298     1  0.0000000  1.0460000  1
    104    103    115    298     1  0.0000000  0.0000000  3
    104    103    115    116     1  0.0000000  0.6508444  3
    104    103    115    117     1  0.0000000  0.6508444  3
    105    103    115    298     1  0.0000000  1.0460000  1
    105    103    115    298     1  0.0000000  0.0000000  3
    105    103    115    116     1  0.0000000  0.6508444  3
    105    103    115    117     1  0.0000000  0.6508444  3
    106     94     90    119     1  0.0000000  0.6508444  3
    107    106    112    268     1  0.0000000  1.0460000  1
    107    106    112    268     1  0.0000000  0.0000000  3
    107    106    112    113     1  0.0000000  0.6508444  3
    107    106    112    114     1  0.0000000  0.6508444  3
    108    106    112    268     1  0.0000000  1.0460000  1
    108    106    112    268     1  0.0000000  0.0000000  3
    108    106    112    113     1  0.0000000  0.6508444  3
    108    106    112    114     1  0.0000000  0.6508444  3
    112    268    259    260     1  0.0000000  1.6038667  3
    112    268    259    261     1  0.0000000  1.6038667  3
    113    112    268    259     1  0.0000000  1.6038667  3
    114    112    268    259     1  0.0000000  1.6038667  3
    115    298    289    290     1  0.0000000  1.6038667  3
    115    298    289    291     1  0.0000000  1.6038667  3
    116    115    298    289     1  0.0000000  1.6038667  3
    117    115    298    289     1  0.0000000  1.6038667  3
    120    121    133    134     1  0.0000000  0.6508444  3
    120    121    133    135     1  0.0000000  0.6508444  3
    120    124    136    137     1  0.0000000  0.6508444  3
    120    124    136    138     1  0.0000000  0.6508444  3
    120    127    130    131     1  0.0000000  0.6508444  3
    120    127    130    132     1  0.0000000  0.6508444  3
    121    120    124    125     1  0.0000000  0.6508444  3
    121    120    124    126     1  0.0000000  0.6508444  3
    121    120    127    128     1  0.0000000  0.6508444  3
    121    120    127    129     1  0.0000000  0.6508444  3
    121    133    145    146     1  0.0000000  0.6508444  3
    121    133    145    147     1  0.0000000  0.6508444  3
    122    121    120    124     1  0.0000000  0.6508444  3
    122    121    120    127     1  0.0000000  0.6508444  3
    122    121    120    149     1  0.0000000  0.6508444  3
    122    121    133    145     1  0.0000000  0.6508444  3
    122    121    133    134     1  0.0000000  0.6508444  3
    122    121    133    135     1  0.0000000  0.6508444  3
    123    121    120    124     1  0.0000000  0.6508444  3
    123    121    120    127     1  0.0000000  0.6508444  3
    123    121    120    149     1  0.0000000  0.6508444  3
    123    121    133    145     1  0.0000000  0.6508444  3
    123    121    133    134     1  0.0000000  0.6508444  3
    123    121    133    135     1  0.0000000  0.6508444  3
    124    120    127    128     1  0.0000000  0.6508444  3
    124    120    127    129     1  0.0000000  0.6508444  3
    124    136    142    143     1  0.0000000  0.6508444  3
    124    136    142    144     1  0.0000000  0.6508444  3
    125    124    120    127     1  0.0000000  0.6508444  3
    125    124    120    149     1  0.0000000  0.6508444  3
    125    124    136    142     1  0.0000000  0.6508444  3
    125    124    136    137     1  0.0000000  0.6508444  3
    125    124    136    138     1  0.0000000  0.6508444  3
    126    124    120    127     1  0.0000000  0.6508444  3
    126    124    120    149     1  0.0000000  0.6508444  3
    126    124    136    142     1  0.0000000  0.6508444  3
    126    124    136    137     1  0.0000000  0.6508444  3
    126    124    136    138     1  0.0000000  0.6508444  3
    127    130    139    140     1  0.0000000  0.6508444  3
    127    130    139    141     1  0.0000000  0.6508444  3
    128    127    120    149     1  0.0000000  0.6508444  3
    128    127    130    139     1  0.0000000  0.6508444  3
    128    127    130    131     1  0.0000000  0.6508444  3
    128    127    130    132     1  0.0000000  0.6508444  3
    129    127    120    149     1  0.0000000  0.6508444  3
    129    127    130    139     1  0.0000000  0.6508444  3
    129    127    130    131     1  0.0000000  0.6508444  3
    129    127    130    132     1  0.0000000  0.6508444  3
    130    127    120    149     1  0.0000000  0.6508444  3
    131    130    139    148     1  0.0000000  1.0460000  1
    131    130    139    148     1  0.0000000  0.0000000  3
    131    130    139    140     1  0.0000000  0.6508444  3
    131    130    139    141     1  0.0000000  0.6508444  3
    132    130    139    148     1  0.0000000  1.0460000  1
    132    130    139    148     1  0.0000000  0.0000000  3
    132    130    139    140     1  0.0000000  0.6508444  3
    132    130    139    141     1  0.0000000  0.6508444  3
    133    121    120    149     1  0.0000000  0.6508444  3
    134    133    145    326     1  0.0000000  1.0460000  1
    134    133    145    326     1  0.0000000  0.0000000  3
    134    133    145    146     1  0.0000000  0.6508444  3
    134    133    145    147     1  0.0000000  0.6508444  3
    135    133    145    326     1  0.0000000  1.0460000  1
    135    133    145    326     1  0.0000000  0.0000000  3
    135    133    145    146     1  0.0000000  0.6508444  3
    135    133    145    147     1  0.0000000  0.6508444  3
    136    124    120    149     1  0.0000000  0.6508444  3
    137    136    142    312     1  0.0000000  1.0460000  1
    137    136    142    312     1  0.0000000  0.0000000  3
    137    136    142    143     1  0.0000000  0.6508444  3
    137    136    142    144     1  0.0000000  0.6508444  3
    138    136    142    312     1  0.0000000  1.0460000  1
    138    136    142    312     1  0.0000000  0.0000000  3
    138    136    142    143     1  0.0000000  0.6508444  3
    138    136    142    144     1  0.0000000  0.6508444  3
    142    312    306    307     1  0.0000000  1.6038667  3
    142    312    306    308     1  0.0000000  1.6038667  3
    143    142    312    306     1  0.0000000  1.6038667  3
    144    142    312    306     1  0.0000000  1.6038667  3
    145    326    320    321     1  0.0000000  1.6038667  3
    145    326    320    322     1  0.0000000  1.6038667  3
    146    145    326    320     1  0.0000000  1.6038667  3
    147    145    326    320     1  0.0000000  1.6038667  3
    150    151    163    164     1  0.0000000  0.6508444  3
    150    151    163    165     1  0.0000000  0.6508444  3
    150    154    166    167     1  0.0000000  0.6508444  3
    150    154    166    168     1  0.0000000  0.6508444  3
    150    157    160    161     1  0.0000000  0.6508444  3
    150    157    160    162     1  0.0000000  0.6508444  3
    151    150    154    155     1  0.0000000  0.6508444  3
    151    150    154    156     1  0.0000000  0.6508444  3
    151    150    157    158     1  0.0000000  0.6508444  3
    151    150    157    159     1  0.0000000  0.6508444  3
    151    163    175    176     1  0.0000000  0.6508444  3
    151    163    175    177     1  0.0000000  0.6508444  3
    152    151    150    154     1  0.0000000  0.6508444  3
    152    151    150    157     1  0.0000000  0.6508444  3
    152    151    150    179     1  0.0000000  0.6508444  3
    152    151    163    175     1  0.0000000  0.6508444  3
    152    151    163    164     1  0.0000000  0.6508444  3
    152    151    163    165     1  0.0000000  0.6508444  3
    153    151    150    154     1  0.0000000  0.6508444  3
    153    151    150    157     1  0.0000000  0.6508444  3
    153    151    150    179     1  0.0000000  0.6508444  3
    153    151    163    175     1  0.0000000  0.6508444  3
    153    151    163    164     1  0.0000000  0.6508444  3
    153    151    163    165     1  0.0000000  0.6508444  3
    154    150    157    158     1  0.0000000  0.6508444  3
    154    150    157    159     1  0.0000000  0.6508444  3
    154    166    172    173     1  0.0000000  0.6508444  3
    154    166    172    174     1  0.0000000  0.6508444  3
    155    154    150    157     1  0.0000000  0.6508444  3
    155    154    150    179     1  0.0000000  0.6508444  3
    155    154    166    172     1  0.0000000  0.6508444  3
    155    154    166    167     1  0.0000000  0.6508444  3
    155    154    166    168     1  0.0000000  0.6508444  3
    156    154    150    157     1  0.0000000  0.6508444  3
    156    154    150    179     1  0.0000000  0.6508444  3
    156    154    166    172     1  0.0000000  0.6508444  3
    156    154    166    167     1  0.0000000  0.6508444  3
    156    154    166    168     1  0.0000000  0.6508444  3
    157    160    169    170     1  0.0000000  0.6508444  3
    157    160    169    171     1  0.0000000  0.6508444  3
    158    157    150    179     1  0.0000000  0.6508444  3
    158    157    160    169     1  0.0000000  0.6508444  3
    158    157    160    161     1  0.0000000  0.6508444  3
    158    157    160    162     1  0.0000000  0.6508444  3
    159    157    150    179     1  0.0000000  0.6508444  3
    159    157    160    169     1  0.0000000  0.6508444  3
    159    157    160    161     1  0.0000000  0.6508444  3
    159    157    160    162     1  0.0000000  0.6508444  3
    160    157    150    179     1  0.0000000  0.6508444  3
    161    160    169    178     1  0.0000000  1.0460000  1
    161    160    169    178     1  0.0000000  0.0000000  3
    161    160    169    170     1  0.0000000  0.6508444  3
    161    160    169    171     1  0.0000000  0.6508444  3
    162    160    169    178     1  0.0000000  1.0460000  1
    162    160    169    178     1  0.0000000  0.0000000  3
    162    160    169    170     1  0.0000000  0.6508444  3
    162    160    169    171     1  0.0000000  0.6508444  3
    163    151    150    179     1  0.0000000  0.6508444  3
    164    163    175    354     1  0.0000000  1.0460000  1
    164    163    175    354     1  0.0000000  0.0000000  3
    164    163    175    176     1  0.0000000  0.6508444  3
    164    163    175    177     1  0.0000000  0.6508444  3
    165    163    175    354     1  0.0000000  1.0460000  1
    165    163    175    354     1  0.0000000  0.0000000  3
    165    163    175    176     1  0.0000000  0.6508444  3
    165    163    175    177     1  0.0000000  0.6508444  3
    166    154    150    179     1  0.0000000  0.6508444  3
    167    166    172    340     1  0.0000000  1.0460000  1
    167    166    172    340     1  0.0000000  0.0000000  3
    167    166    172    173     1  0.0000000  0.6508444  3
    167    166    172    174     1  0.0000000  0.6508444  3
    168    166    172    340     1  0.0000000  1.0460000  1
    168    166    172    340     1  0.0000000  0.0000000  3
    168    166    172    173     1  0.0000000  0.6508444  3
    168    166    172    174     1  0.0000000  0.6508444  3
    172    340    334    335     1  0.0000000  1.6038667  3
    172    340    334    336     1  0.0000000  1.6038667  3
    173    172    340    334     1  0.0000000  1.6038667  3
    174    172    340    334     1  0.0000000  1.6038667  3
    175    354    348    349     1  0.0000000  1.6038667  3
    175    354    348    350     1  0.0000000  1.6038667  3
    176    175    354    348     1  0.0000000  1.6038667  3
    177    175    354    348     1  0.0000000  1.6038667  3
    180    181    193    194     1  0.0000000  0.6508444  3
    180    181    193    195     1  0.0000000  0.6508444  3
    180    184    196    197     1  0.0000000  0.6508444  3
    180    184    196    198     1  0.0000000  0.6508444  3
    180    187    190    191     1  0.0000000  0.6508444  3
    180    187    190    192     1  0.0000000  0.6508444  3
    181    180    184    185     1  0.0000000  0.6508444  3
    181    180    184    186     1  0.0000000  0.6508444  3
    181    180    187    188     1  0.0000000  0.6508444  3
    181    180    187    189     1  0.0000000  0.6508444  3
    181    193    205    206     1  0.0000000  0.6508444  3
    181    193    205    207     1  0.0000000  0.6508444  3
    182    181    180    184     1  0.0000000  0.6508444  3
    182    181    180    187     1  0.0000000  0.6508444  3
    182    181    180    209     1  0.0000000  0.6508444  3
    182    181    193    205     1  0.0000000  0.6508444  3
    182    181    193    194     1  0.0000000  0.6508444  3
    182    181    193    195     1  0.0000000  0.6508444  3
    183    181    180    184     1  0.0000000  0.6508444  3
    183    181    180    187     1  0.0000000  0.6508444  3
    183    181    180    209     1  0.0000000  0.6508444  3
    183    181    193    205     1  0.0000000  0.6508444  3
    183    181    193    194     1  0.0000000  0.6508444  3
    183    181    193    195     1  0.0000000  0.6508444  3
    184    180    187    188     1  0.0000000  0.6508444  3
    184    180    187    189     1  0.0000000  0.6508444  3
    184    196    202    203     1  0.0000000  0.6508444  3
    184    196    202    204     1  0.0000000  0.6508444  3
    185    184    180    187     1  0.0000000  0.6508444  3
    185    184    180    209     1  0.0000000  0.6508444  3
    185    184    196    202     1  0.0000000  0.6508444  3
    185    184    196    197     1  0.0000000  0.6508444  3
    185    184    196    198     1  0.0000000  0.6508444  3
    186    184    180    187     1  0.0000000  0.6508444  3
    186    184    180    209     1  0.0000000  0.6508444  3
    186    184    196    202     1  0.0000000  0.6508444  3
    186    184    196    197     1  0.0000000  0.6508444  3
    186    184    196    198     1  0.0000000  0.6508444  3
    187    190    199    200     1  0.0000000  0.6508444  3
    187    190    199    201     1  0.0000000  0.6508444  3
    188    187    180    209     1  0.0000000  0.6508444  3
    188    187    190    199     1  0.0000000  0.6508444  3
    188    187    190    191     1  0.0000000  0.6508444  3
    188    187    190    192     1  0.0000000  0.6508444  3
    189    187    180    209     1  0.0000000  0.6508444  3
    189    187    190    199     1  0.0000000  0.6508444  3
    189    187    190    191     1  0.0000000  0.6508444  3
    189    187    190    192     1  0.0000000  0.6508444  3
    190    187    180    209     1  0.0000000  0.6508444  3
    191    190    199    208     1  0.0000000  1.0460000  1
    191    190    199    208     1  0.0000000  0.0000000  3
    191    190    199    200     1  0.0000000  0.6508444  3
    191    190    199    201     1  0.0000000  0.6508444  3
    192    190    199    208     1  0.0000000  1.0460000  1
    192    190    199    208     1  0.0000000  0.0000000  3
    192    190    199    200     1  0.0000000  0.6508444  3
    192    190    199    201     1  0.0000000  0.6508444  3
    193    181    180    209     1  0.0000000  0.6508444  3
    194    193    205    382     1  0.0000000  1.0460000  1
    194    193    205    382     1  0.0000000  0.0000000  3
    194    193    205    206     1  0.0000000  0.6508444  3
    194    193    205    207     1  0.0000000  0.6508444  3
    195    193    205    382     1  0.0000000  1.0460000  1
    195    193    205    382     1  0.0000000  0.0000000  3
    195    193    205    206     1  0.0000000  0.6508444  3
    195    193    205    207     1  0.0000000  0.6508444  3
    196    184    180    209     1  0.0000000  0.6508444  3
    197    196    202    368     1  0.0000000  1.0460000  1
    197    196    202    368     1  0.0000000  0.0000000  3
    197    196    202    203     1  0.0000000  0.6508444  3
    197    196    202    204     1  0.0000000  0.6508444  3
    198    196    202    368     1  0.0000000  1.0460000  1
    198    196    202    368     1  0.0000000  0.0000000  3
    198    196    202    203     1  0.0000000  0.6508444  3
    198    196    202    204     1  0.0000000  0.6508444  3
    202    368    362    363     1  0.0000000  1.6038667  3
    202    368    362    364     1  0.0000000  1.6038667  3
    203    202    368    362     1  0.0000000  1.6038667  3
    204    202    368    362     1  0.0000000  1.6038667  3
    205    382    376    377     1  0.0000000  1.6038667  3
    205    382    376    378     1  0.0000000  1.6038667  3
    206    205    382    376     1  0.0000000  1.6038667  3
    207    205    382    376     1  0.0000000  1.6038667  3
    210    211    223    224     1  0.0000000  0.6508444  3
    210    211    223    225     1  0.0000000  0.6508444  3
    210    214    226    227     1  0.0000000  0.6508444  3
    210    214    226    228     1  0.0000000  0.6508444  3
    210    217    220    221     1  0.0000000  0.6508444  3
    210    217    220    222     1  0.0000000  0.6508444  3
    211    210    214    215     1  0.0000000  0.6508444  3
    211    210    214    216     1  0.0000000  0.6508444  3
    211    210    217    218     1  0.0000000  0.6508444  3
    211    210    217    219     1  0.0000000  0.6508444  3
    211    223    235    236     1  0.0000000  0.6508444  3
    211    223    235    237     1  0.0000000  0.6508444  3
    212    211    210    214     1  0.0000000  0.6508444  3
    212    211    210    217     1  0.0000000  0.6508444  3
    212    211    210    239     1  0.0000000  0.6508444  3
    212    211    223    235     1  0.0000000  0.6508444  3
    212    211    223    224     1  0.0000000  0.6508444  3
    212    211    223    225     1  0.0000000  0.6508444  3
    213    211    210    214     1  0.0000000  0.6508444  3
    213    211    210    217     1  0.0000000  0.6508444  3
    213    211    210    239     1  0.0000000  0.6508444  3
    213    211    223    235     1  0.0000000  0.6508444  3
    213    211    223    224     1  0.0000000  0.6508444  3
    213    211    223    225     1  0.0000000  0.6508444  3
    214    210    217    218     1  0.0000000  0.6508444  3
    214    210    217    219     1  0.0000000  0.6508444  3
    214    226    232    233     1  0.0000000  0.6508444  3
    214    226    232    234     1  0.0000000  0.6508444  3
    215    214    210    217     1  0.0000000  0.6508444  3
    215    214    210    239     1  0.0000000  0.6508444  3
    215    214    226    232     1  0.0000000  0.6508444  3
    215    214    226    227     1  0.0000000  0.6508444  3
    215    214    226    228     1  0.0000000  0.6508444  3
    216    214    210    217     1  0.0000000  0.6508444  3
    216    214    210    239     1  0.0000000  0.6508444  3
    216    214    226    232     1  0.0000000  0.6508444  3
    216    214    226    227     1  0.0000000  0.6508444  3
    216    214    226    228     1  0.0000000  0.6508444  3
    217    220    229    230     1  0.0000000  0.6508444  3
    217    220    229    231     1  0.0000000  0.6508444  3
    218    217    210    239     1  0.0000000  0.6508444  3
    218    217    220    229     1  0.0000000  0.6508444  3
    218    217    220    221     1  0.0000000  0.6508444  3
    218    217    220    222     1  0.0000000  0.6508444  3
    219    217    210    239     1  0.0000000  0.6508444  3
    219    217    220    229     1  0.0000000  0.6508444  3
    219    217    220    221     1  0.0000000  0.6508444  3
    219    217    220    222     1  0.0000000  0.6508444  3
    220    217    210    239     1  0.0000000  0.6508444  3
    221    220    229    238     1  0.0000000  1.0460000  1
    221    220    229    238     1  0.0000000  0.0000000  3
    221    220    229    230     1  0.0000000  0.6508444  3
    221    220    229    231     1  0.0000000  0.6508444  3
    222    220    229    238     1  0.0000000  1.0460000  1
    222    220    229    238     1  0.0000000  0.0000000  3
    222    220    229    230     1  0.0000000  0.6508444  3
    222    220    229    231     1  0.0000000  0.6508444  3
    223    211    210    239     1  0.0000000  0.6508444  3
    224    223    235    410     1  0.0000000  1.0460000  1
    224    223    235    410     1  0.0000000  0.0000000  3
    224    223    235    236     1  0.0000000  0.6508444  3
    224    223    235    237     1  0.0000000  0.6508444  3
    225    223    235    410     1  0.0000000  1.0460000  1
    225    223    235    410     1  0.0000000  0.0000000  3
    225    223    235    236     1  0.0000000  0.6508444  3
    225    223    235    237     1  0.0000000  0.6508444  3
    226    214    210    239     1  0.0000000  0.6508444  3
    227    226    232    396     1  0.0000000  1.0460000  1
    227    226    232    396     1  0.0000000  0.0000000  3
    227    226    232    233     1  0.0000000  0.6508444  3
    227    226    232    234     1  0.0000000  0.6508444  3
    228    226    232    396     1  0.0000000  1.0460000  1
    228    226    232    396     1  0.0000000  0.0000000  3
    228    226    232    233     1  0.0000000  0.6508444  3
    228    226    232    234     1  0.0000000  0.6508444  3
    232    396    390    391     1  0.0000000  1.6038667  3
    232    396    390    392     1  0.0000000  1.6038667  3
    233    232    396    390     1  0.0000000  1.6038667  3
    234    232    396    390     1  0.0000000  1.6038667  3
    235    410    404    405     1  0.0000000  1.6038667  3
    235    410    404    406     1  0.0000000  1.6038667  3
    236    235    410    404     1  0.0000000  1.6038667  3
    237    235    410    404     1  0.0000000  1.6038667  3
    240    241    253    254     1  0.0000000  0.6508444  3
    240    241    253    255     1  0.0000000  0.6508444  3
    240    244    256    257     1  0.0000000  0.6508444  3
    240    244    256    258     1  0.0000000  0.6508444  3
    240    247    250    251     1  0.0000000  0.6508444  3
    240    247    250    252     1  0.0000000  0.6508444  3
    241    240    244    245     1  0.0000000  0.6508444  3
    241    240    244    246     1  0.0000000  0.6508444  3
    241    240    247    248     1  0.0000000  0.6508444  3
    241    240    247    249     1  0.0000000  0.6508444  3
    241    253    265    266     1  0.0000000  0.6508444  3
    241    253    265    267     1  0.0000000  0.6508444  3
    242    241    240    244     1  0.0000000  0.6508444  3
    242    241    240    247     1  0.0000000  0.6508444  3
    242    241    240    269     1  0.0000000  0.6508444  3
    242    241    253    265     1  0.0000000  0.6508444  3
    242    241    253    254     1  0.0000000  0.6508444  3
    242    241    253    255     1  0.0000000  0.6508444  3
    243    241    240    244     1  0.0000000  0.6508444  3
    243    241    240    247     1  0.0000000  0.6508444  3
    243    241    240    269     1  0.0000000  0.6508444  3
    243    241    253    265     1  0.0000000  0.6508444  3
    243    241    253    254     1  0.0000000  0.6508444  3
    243    241    253    255     1  0.0000000  0.6508444  3
    244    240    247    248     1  0.0000000  0.6508444  3
    244    240    247    249     1  0.0000000  0.6508444  3
    244    256    262    263     1  0.0000000  0.6508444  3
    244    256    262    264     1  0.0000000  0.6508444  3
    245    244    240    247     1  0.0000000  0.6508444  3
    245    244    240    269     1  0.0000000  0.6508444  3
    245    244    256    262     1  0.0000000  0.6508444  3
    245    244    256    257     1  0.0000000  0.6508444  3
    245    244    256    258     1  0.0000000  0.6508444  3
    246    244    240    247     1  0.0000000  0.6508444  3
    246    244    240    269     1  0.0000000  0.6508444  3
    246    244    256    262     1  0.0000000  0.6508444  3
    246    244    256    257     1  0.0000000  0.6508444  3
    246    244    256    258     1  0.0000000  0.6508444  3
    247    250    259    260     1  0.0000000  0.6508444  3
    247    250    259    261     1  0.0000000  0.6508444  3
    248    247    240    269     1  0.0000000  0.6508444  3
    248    247    250    259     1  0.0000000  0.6508444  3
    248    247    250    251     1  0.0000000  0.6508444  3
    248    247    250    252     1  0.0000000  0.6508444  3
    249    247    240    269     1  0.0000000  0.6508444  3
    249    247    250    259     1  0.0000000  0.6508444  3
    249    247    250    251     1  0.0000000  0.6508444  3
    249    247    250    252     1  0.0000000  0.6508444  3
    250    247    240    269     1  0.0000000  0.6508444  3
    251    250    259    268     1  0.0000000  1.0460000  1
    251    250    259    268     1  0.0000000  0.0000000  3
    251    250    259    260     1  0.0000000  0.6508444  3
    251    250    259    261     1  0.0000000  0.6508444  3
    252    250    259    268     1  0.0000000  1.0460000  1
    252    250    259    268     1  0.0000000  0.0000000  3
    252    250    259    260     1  0.0000000  0.6508444  3
    252    250    259    261     1  0.0000000  0.6508444  3
    253    241    240    269     1  0.0000000  0.6508444  3
    254    253    265    438     1  0.0000000  1.0460000  1
    254    253    265    438     1  0.0000000  0.0000000  3
    254    253    265    266     1  0.0000000  0.6508444  3
    254    253    265    267     1  0.0000000  0.6508444  3
    255    253    265    438     1  0.0000000  1.0460000  1
    255    253    265    438     1  0.0000000  0.0000000  3
    255    253    265    266     1  0.0000000  0.6508444  3
    255    253    265    267     1  0.0000000  0.6508444  3
    256    244    240    269     1  0.0000000  0.6508444  3
    257    256    262    424     1  0.0000000  1.0460000  1
    257    256    262    424     1  0.0000000  0.0000000  3
    257    256    262    263     1  0.0000000  0.6508444  3
    257    256    262    264     1  0.0000000  0.6508444  3
    258    256    262    424     1  0.0000000  1.0460000  1
    258    256    262    424     1  0.0000000  0.0000000  3
    258    256    262    263     1  0.0000000  0.6508444  3
    258    256    262    264     1  0.0000000  0.6508444  3
    262    424    418    419     1  0.0000000  1.6038667  3
    262    424    418    420     1  0.0000000  1.6038667  3
    263    262    424    418     1  0.0000000  1.6038667  3
    264    262    424    418     1  0.0000000  1.6038667  3
    265    438    432    433     1  0.0000000  1.6038667  3
    265    438    432    434     1  0.0000000  1.6038667  3
    266    265    438    432     1  0.0000000  1.6038667  3
    267    265    438    432     1  0.0000000  1.6038667  3
    270    271    283    284     1  0.0000000  0.6508444  3
    270    271    283    285     1  0.0000000  0.6508444  3
    270    274    286    287     1  0.0000000  0.6508444  3
    270    274    286    288     1  0.0000000  0.6508444  3
    270    277    280    281     1  0.0000000  0.6508444  3
    270    277    280    282     1  0.0000000  0.6508444  3
    271    270    274    275     1  0.0000000  0.6508444  3
    271    270    274    276     1  0.0000000  0.6508444  3
    271    270    277    278     1  0.0000000  0.6508444  3
    271    270    277    279     1  0.0000000  0.6508444  3
    271    283    295    296     1  0.0000000  0.6508444  3
    271    283    295    297     1  0.0000000  0.6508444  3
    272    271    270    274     1  0.0000000  0.6508444  3
    272    271    270    277     1  0.0000000  0.6508444  3
    272    271    270    299     1  0.0000000  0.6508444  3
    272    271    283    295     1  0.0000000  0.6508444  3
    272    271    283    284     1  0.0000000  0.6508444  3
    272    271    283    285     1  0.0000000  0.6508444  3
    273    271    270    274     1  0.0000000  0.6508444  3
    273    271    270    277     1  0.0000000  0.6508444  3
    273    271    270    299     1  0.0000000  0.6508444  3
    273    271    283    295     1  0.0000000  0.6508444  3
    273    271    283    284     1  0.0000000  0.6508444  3
    273    271    283    285     1  0.0000000  0.6508444  3
    274    270    277    278     1  0.0000000  0.6508444  3
    274    270    277    279     1  0.0000000  0.6508444  3
    274    286    292    293     1  0.0000000  0.6508444  3
    274    286    292    294     1  0.0000000  0.6508444  3
    275    274    270    277     1  0.0000000  0.6508444  3
    275    274    270    299     1  0.0000000  0.6508444  3
    275    274    286    292     1  0.0000000  0.6508444  3
    275    274    286    287     1  0.0000000  0.6508444  3
    275    274    286    288     1  0.0000000  0.6508444  3
    276    274    270    277     1  0.0000000  0.6508444  3
    276    274    270    299     1  0.0000000  0.6508444  3
    276    274    286    292     1  0.0000000  0.6508444  3
    276    274    286    287     1  0.0000000  0.6508444  3
    276    274    286    288     1  0.0000000  0.6508444  3
    277    280    289    290     1  0.0000000  0.6508444  3
    277    280    289    291     1  0.0000000  0.6508444  3
    278    277    270    299     1  0.0000000  0.6508444  3
    278    277    280    289     1  0.0000000  0.6508444  3
    278    277    280    281     1  0.0000000  0.6508444  3
    278    277    280    282     1  0.0000000  0.6508444  3
    279    277    270    299     1  0.0000000  0.6508444  3
    279    277    280    289     1  0.0000000  0.6508444  3
    279    277    280    281     1  0.0000000  0.6508444  3
    279    277    280    282     1  0.0000000  0.6508444  3
    280    277    270    299     1  0.0000000  0.6508444  3
    281    280    289    298     1  0.0000000  1.0460000  1
    281    280    289    298     1  0.0000000  0.0000000  3
    281    280    289    290     1  0.0000000  0.6508444  3
    281    280    289    291     1  0.0000000  0.6508444  3
    282    280    289    298     1  0.0000000  1.0460000  1
    282    280    289    298     1  0.0000000  0.0000000  3
    282    280    289    290     1  0.0000000  0.6508444  3
    282    280    289    291     1  0.0000000  0.6508444  3
    283    271    270    299     1  0.0000000  0.6508444  3
    284    283    295    466     1  0.0000000  1.0460000  1
    284    283    295    466     1  0.0000000  0.0000000  3
    284    283    295    296     1  0.0000000  0.6508444  3
    284    283    295    297     1  0.0000000  0.6508444  3
    285    283    295    466     1  0.0000000  1.0460000  1
    285    283    295    466     1  0.0000000  0.0000000  3
    285    283    295    296     1  0.0000000  0.6508444  3
    285    283    295    297     1  0.0000000  0.6508444  3
    286    274    270    299     1  0.0000000  0.6508444  3
    287    286    292    452     1  0.0000000  1.0460000  1
    287    286    292    452     1  0.0000000  0.0000000  3
    287    286    292    293     1  0.0000000  0.6508444  3
    287    286    292    294     1  0.0000000  0.6508444  3
    288    286    292    452     1  0.0000000  1.0460000  1
    288    286    292    452     1  0.0000000  0.0000000  3
    288    286    292    293     1  0.0000000  0.6508444  3
    288    286    292    294     1  0.0000000  0.6508444  3
    292    452    446    447     1  0.0000000  1.6038667  3
    292    452    446    448     1  0.0000000  1.6038667  3
    293    292    452    446     1  0.0000000  1.6038667  3
    294    292    452    446     1  0.0000000  1.6038667  3
    295    466    460    461     1  0.0000000  1.6038667  3
    295    466    460    462     1  0.0000000  1.6038667  3
    296    295    466    460     1  0.0000000  1.6038667  3
    297    295    466    460     1  0.0000000  1.6038667  3
    300    303    306    307     1  0.0000000  0.6508444  3
    300    303    306    308     1  0.0000000  0.6508444  3
    301    300    303    306     1  0.0000000  0.6508444  3
    301    300    303    304     1  0.0000000  0.6508444  3
    301    300    303    305     1  0.0000000  0.6508444  3
    301    300    309    310     1  0.0000000  0.6508444  3
    301    300    309    311     1  0.0000000  0.6508444  3
    301    300    309    313     1  0.0000000  0.6508444  3
    302    300    303    306     1  0.0000000  0.6508444  3
    302    300    303    304     1  0.0000000  0.6508444  3
    302    300    303    305     1  0.0000000  0.6508444  3
    302    300    309    310     1  0.0000000  0.6508444  3
    302    300    309    311     1  0.0000000  0.6508444  3
    302    300    309    313     1  0.0000000  0.6508444  3
    303    300    309    310     1  0.0000000  0.6508444  3
    303    300    309    311     1  0.0000000  0.6508444  3
    303    300    309    313     1  0.0000000  0.6508444  3
    304    303    300    309     1  0.0000000  0.6508444  3
    304    303    306    312     1  0.0000000  1.0460000  1
    304    303    306    312     1  0.0000000  0.0000000  3
    304    303    306    307     1  0.0000000  0.6508444  3
    304    303    306    308     1  0.0000000  0.6508444  3
    305    303    300    309     1  0.0000000  0.6508444  3
    305    303    306    312     1  0.0000000  1.0460000  1
    305    303    306    312     1  0.0000000  0.0000000  3
    305    303    306    307     1  0.0000000  0.6508444  3
    305    303    306    308     1  0.0000000  0.6508444  3
    314    317    320    321     1  0.0000000  0.6508444  3
    314    317    320    322     1  0.0000000  0.6508444  3
    315    314    317    320     1  0.0000000  0.6508444  3
    315    314    317    318     1  0.0000000  0.6508444  3
    315    314    317    319     1  0.0000000  0.6508444  3
    315    314    323    324     1  0.0000000  0.6508444  3
    315    314    323    325     1  0.0000000  0.6508444  3
    315    314    323    327     1  0.0000000  0.6508444  3
    316    314    317    320     1  0.0000000  0.6508444  3
    316    314    317    318     1  0.0000000  0.6508444  3
    316    314    317    319     1  0.0000000  0.6508444  3
    316    314    323    324     1  0.0000000  0.6508444  3
    316    314    323    325     1  0.0000000  0.6508444  3
    316    314    323    327     1  0.0000000  0.6508444  3
    317    314    323    324     1  0.0000000  0.6508444  3
    317    314    323    325     1  0.0000000  0.6508444  3
    317    314    323    327     1  0.0000000  0.6508444  3
    318    317    320    326     1  0.0000000  1.0460000  1
    318    317    320    326     1  0.0000000  0.0000000  3
    318    317    320    321     1  0.0000000  0.6508444  3
    318    317    320    322     1  0.0000000  0.6508444  3
    318    317    314    323     1  0.0000000  0.6508444  3
    319    317    320    326     1  0.0000000  1.0460000  1
    319    317    320    326     1  0.0000000  0.0000000  3
    319    317    320    321     1  0.0000000  0.6508444  3
    319    317    320    322     1  0.0000000  0.6508444  3
    319    317    314    323     1  0.0000000  0.6508444  3
    328    331    334    335     1  0.0000000  0.6508444  3
    328    331    334    336     1  0.0000000  0.6508444  3
    329    328    331    334     1  0.0000000  0.6508444  3
    329    328    331    332     1  0.0000000  0.6508444  3
    329    328    331    333     1  0.0000000  0.6508444  3
    329    328    337    338     1  0.0000000  0.6508444  3
    329    328    337    339     1  0.0000000  0.6508444  3
    329    328    337    341     1  0.0000000  0.6508444  3
    330    328    331    334     1  0.0000000  0.6508444  3
    330    328    331    332     1  0.0000000  0.6508444  3
    330    328    331    333     1  0.0000000  0.6508444  3
    330    328    337    338     1  0.0000000  0.6508444  3
    330    328    337    339     1  0.0000000  0.6508444  3
    330    328    337    341     1  0.0000000  0.6508444  3
    331    328    337    338     1  0.0000000  0.6508444  3
    331    328    337    339     1  0.0000000  0.6508444  3
    331    328    337    341     1  0.0000000  0.6508444  3
    332    331    328    337     1  0.0000000  0.6508444  3
    332    331    334    340     1  0.0000000  1.0460000  1
    332    331    334    340     1  0.0000000  0.0000000  3
    332    331    334    335     1  0.0000000  0.6508444  3
    332    331    334    336     1  0.0000000  0.6508444  3
    333    331    328    337     1  0.0000000  0.6508444  3
    333    331    334    340     1  0.0000000  1.0460000  1
    333    331    334    340     1  0.0000000  0.0000000  3
    333    331    334    335     1  0.0000000  0.6508444  3
    333    331    334    336     1  0.0000000  0.6508444  3
    342    345    348    349     1  0.0000000  0.6508444  3
    342    345    348    350     1  0.0000000  0.6508444  3
    343    342    345    348     1  0.0000000  0.6508444  3
    343    342    345    346     1  0.0000000  0.6508444  3
    343    342    345    347     1  0.0000000  0.6508444  3
    343    342    351    352     1  0.0000000  0.6508444  3
    343    342    351    353     1  0.0000000  0.6508444  3
    343    342    351    355     1  0.0000000  0.6508444  3
    344    342    345    348     1  0.0000000  0.6508444  3
    344    342    345    346     1  0.0000000  0.6508444  3
    344    342    345    347     1  0.0000000  0.6508444  3
    344    342    351    352     1  0.0000000  0.6508444  3
    344    342    351    353     1  0.0000000  0.6508444  3
    344    342    351    355     1  0.0000000  0.6508444  3
    345    342    351    352     1  0.0000000  0.6508444  3
    345    342    351    353     1  0.0000000  0.6508444  3
    345    342    351    355     1  0.0000000  0.6508444  3
    346    345    348    354     1  0.0000000  1.0460000  1
    346    345    348    354     1  0.0000000  0.0000000  3
    346    345    348    349     1  0.0000000  0.6508444  3
    346    345    348    350     1  0.0000000  0.6508444  3
    346    345    342    351     1  0.0000000  0.6508444  3
    347    345    348    354     1  0.0000000  1.0460000  1
    347    345    348    354     1  0.0000000  0.0000000  3
    347    345    348    349     1  0.0000000  0.6508444  3
    347    345    348    350     1  0.0000000  0.6508444  3
    347    345    342    351     1  0.0000000  0.6508444  3
    356    359    362    363     1  0.0000000  0.6508444  3
    356    359    362    364     1  0.0000000  0.6508444  3
    357    356    359    362     1  0.0000000  0.6508444  3
    357    356    359    360     1  0.0000000  0.6508444  3
    357    356    359    361     1  0.0000000  0.6508444  3
    357    356    365    366     1  0.0000000  0.6508444  3
    357    356    365    367     1  0.0000000  0.6508444  3
    357    356    365    369     1  0.0000000  0.6508444  3
    358    356    359    362     1  0.0000000  0.6508444  3
    358    356    359    360     1  0.0000000  0.6508444  3
    358    356    359    361     1  0.0000000  0.6508444  3
    358    356    365    366     1  0.0000000  0.6508444  3
    358    356    365    367     1  0.0000000  0.6508444  3
    358    356    365    369     1  0.0000000  0.6508444  3
    359    356    365    366     1  0.0000000  0.6508444  3
    359    356    365    367     1  0.0000000  0.6508444  3
    359    356    365    369     1  0.0000000  0.6508444  3
    360    359    356    365     1  0.0000000  0.6508444  3
    360    359    362    368     1  0.0000000  1.0460000  1
    360    359    362    368     1  0.0000000  0.0000000  3
    360    359    362    363     1  0.0000000  0.6508444  3
    360    359    362    364     1  0.0000000  0.6508444  3
    361    359    356    365     1  0.0000000  0.6508444  3
    361    359    362    368     1  0.0000000  1.0460000  1
    361    359    362    368     1  0.0000000  0.0000000  3
    361    359    362    363     1  0.0000000  0.6508444  3
    361    359    362    364     1  0.0000000  0.6508444  3
    370    373    376    377     1  0.0000000  0.6508444  3
    370    373    376    378     1  0.0000000  0.6508444  3
    371    370    373    376     1  0.0000000  0.6508444  3
    371    370    373    374     1  0.0000000  0.6508444  3
    371    370    373    375     1  0.0000000  0.6508444  3
    371    370    379    380     1  0.0000000  0.6508444  3
    371    370    379    381     1  0.0000000  0.6508444  3
    371    370    379    383     1  0.0000000  0.6508444  3
    372    370    373    376     1  0.0000000  0.6508444  3
    372    370    373    374     1  0.0000000  0.6508444  3
    372    370    373    375     1  0.0000000  0.6508444  3
    372    370    379    380     1  0.0000000  0.6508444  3
    372    370    379    381     1  0.0000000  0.6508444  3
    372    370    379    383     1  0.0000000  0.6508444  3
    373    370    379    380     1  0.0000000  0.6508444  3
    373    370    379    381     1  0.0000000  0.6508444  3
    373    370    379    383     1  0.0000000  0.6508444  3
    374    373    376    382     1  0.0000000  1.0460000  1
    374    373    376    382     1  0.0000000  0.0000000  3
    374    373    376    377     1  0.0000000  0.6508444  3
    374    373    376    378     1  0.0000000  0.6508444  3
    374    373    370    379     1  0.0000000  0.6508444  3
    375    373    376    382     1  0.0000000  1.0460000  1
    375    373    376    382     1  0.0000000  0.0000000  3
    375    373    376    377     1  0.0000000  0.6508444  3
    375    373    376    378     1  0.0000000  0.6508444  3
    375    373    370    379     1  0.0000000  0.6508444  3
    384    387    390    391     1  0.0000000  0.6508444  3
    384    387    390    392     1  0.0000000  0.6508444  3
    385    384    387    390     1  0.0000000  0.6508444  3
    385    384    387    388     1  0.0000000  0.6508444  3
    385    384    387    389     1  0.0000000  0.6508444  3
    385    384    393    394     1  0.0000000  0.6508444  3
    385    384    393    395     1  0.0000000  0.6508444  3
    385    384    393    397     1  0.0000000  0.6508444  3
    386    384    387    390     1  0.0000000  0.6508444  3
    386    384    387    388     1  0.0000000  0.6508444  3
    386    384    387    389     1  0.0000000  0.6508444  3
    386    384    393    394     1  0.0000000  0.6508444  3
    386    384    393    395     1  0.0000000  0.6508444  3
    386    384    393    397     1  0.0000000  0.6508444  3
    387    384    393    394     1  0.0000000  0.6508444  3
    387    384    393    395     1  0.0000000  0.6508444  3
    387    384    393    397     1  0.0000000  0.6508444  3
    388    387    384    393     1  0.0000000  0.6508444  3
    388    387    390    396     1  0.0000000  1.0460000  1
    388    387    390    396     1  0.0000000  0.0000000  3
    388    387    390    391     1  0.0000000  0.6508444  3
    388    387    390    392     1  0.0000000  0.6508444  3
    389    387    384    393     1  0.0000000  0.6508444  3
    389    387    390    396     1  0.0000000  1.0460000  1
    389    387    390    396     1  0.0000000  0.0000000  3
    389    387    390    391     1  0.0000000  0.6508444  3
    389    387    390    392     1  0.0000000  0.6508444  3
    398    401    404    405     1  0.0000000  0.6508444  3
    398    401    404    406     1  0.0000000  0.6508444  3
    399    398    401    404     1  0.0000000  0.6508444  3
    399    398    401    402     1  0.0000000  0.6508444  3
    399    398    401    403     1  0.0000000  0.6508444  3
    399    398    407    408     1  0.0000000  0.6508444  3
    399    398    407    409     1  0.0000000  0.6508444  3
    399    398    407    411     1  0.0000000  0.6508444  3
    400    398    401    404     1  0.0000000  0.6508444  3
    400    398    401    402     1  0.0000000  0.6508444  3
    400    398    401    403     1  0.0000000  0.6508444  3
    400    398    407    408     1  0.0000000  0.6508444  3
    400    398    407    409     1  0.0000000  0.6508444  3
    400    398    407    411     1  0.0000000  0.6508444  3
    401    398    407    408     1  0.0000000  0.6508444  3
    401    398    407    409     1  0.0000000  0.6508444  3
    401    398    407    411     1  0.0000000  0.6508444  3
    402    401    404    410     1  0.0000000  1.0460000  1
    402    401    404    410     1  0.0000000  0.0000000  3
    402    401    404    405     1  0.0000000  0.6508444  3
    402    401    404    406     1  0.0000000  0.6508444  3
    402    401    398    407     1  0.0000000  0.6508444  3
    403    401    404    410     1  0.0000000  1.0460000  1
    403    401    404    410     1  0.0000000  0.0000000  3
    403    401    404    405     1  0.0000000  0.6508444  3
    403    401    404    406     1  0.0000000  0.6508444  3
    403    401    398    407     1  0.0000000  0.6508444  3
    412    415    418    419     1  0.0000000  0.6508444  3
    412    415    418    420     1  0.0000000  0.6508444  3
    413    412    415    418     1  0.0000000  0.6508444  3
    413    412    415    416     1  0.0000000  0.6508444  3
    413    412    415    417     1  0.0000000  0.6508444  3
    413    412    421    422     1  0.0000000  0.6508444  3
    413    412    421    423     1  0.0000000  0.6508444  3
    413    412    421    425     1  0.0000000  0.6508444  3
    414    412    415    418     1  0.0000000  0.6508444  3
    414    412    415    416     1  0.0000000  0.6508444  3
    414    412    415    417     1  0.0000000  0.6508444  3
    414    412    421    422     1  0.0000000  0.6508444  3
    414    412    421    423     1  0.0000000  0.6508444  3
    414    412    421    425     1  0.0000000  0.6508444  3
    415    412    421    422     1  0.0000000  0.6508444  3
    415    412    421    423     1  0.0000000  0.6508444  3
    415    412    421    425     1  0.0000000  0.6508444  3
    416    415    412    421     1  0.0000000  0.6508444  3
    416    415    418    424     1  0.0000000  1.0460000  1
    416    415    418    424     1  0.0000000  0.0000000  3
    416    415    418    419     1  0.0000000  0.6508444  3
    416    415    418    420     1  0.0000000  0.6508444  3
    417    415    412    421     1  0.0000000  0.6508444  3
    417    415    418    424     1  0.0000000  1.0460000  1
    417    415    418    424     1  0.0000000  0.0000000  3
    417    415    418    419     1  0.0000000  0.6508444  3
    417    415    418    420     1  0.0000000  0.6508444  3
    426    429    432    433     1  0.0000000  0.6508444  3
    426    429    432    434     1  0.0000000  0.6508444  3
    427    426    429    432     1  0.0000000  0.6508444  3
    427    426    429    430     1  0.0000000  0.6508444  3
    427    426    429    431     1  0.0000000  0.6508444  3
    427    426    435    436     1  0.0000000  0.6508444  3
    427    426    435    437     1  0.0000000  0.6508444  3
    427    426    435    439     1  0.0000000  0.6508444  3
    428    426    429    432     1  0.0000000  0.6508444  3
    428    426    429    430     1  0.0000000  0.6508444  3
    428    426    429    431     1  0.0000000  0.6508444  3
    428    426    435    436     1  0.0000000  0.6508444  3
    428    426    435    437     1  0.0000000  0.6508444  3
    428    426    435    439     1  0.0000000  0.6508444  3
    429    426    435    436     1  0.0000000  0.6508444  3
    429    426    435    437     1  0.0000000  0.6508444  3
    429    426    435    439     1  0.0000000  0.6508444  3
    430    429    432    438     1  0.0000000  1.0460000  1
    430    429    432    438     1  0.0000000  0.0000000  3
    430    429    432    433     1  0.0000000  0.6508444  3
    430    429    432    434     1  0.0000000  0.6508444  3
    430    429    426    435     1  0.0000000  0.6508444  3
    431    429    432    438     1  0.0000000  1.0460000  1
    431    429    432    438     1  0.0000000  0.0000000  3
    431    429    432    433     1  0.0000000  0.6508444  3
    431    429    432    434     1  0.0000000  0.6508444  3
    431    429    426    435     1  0.0000000  0.6508444  3
    440    443    446    447     1  0.0000000  0.6508444  3
    440    443    446    448     1  0.0000000  0.6508444  3
    441    440    443    446     1  0.0000000  0.6508444  3
    441    440    443    444     1  0.0000000  0.6508444  3
    441    440    443    445     1  0.0000000  0.6508444  3
    441    440    449    450     1  0.0000000  0.6508444  3
    441    440    449    451     1  0.0000000  0.6508444  3
    441    440    449    453     1  0.0000000  0.6508444  3
    442    440    443    446     1  0.0000000  0.6508444  3
    442    440    443    444     1  0.0000000  0.6508444  3
    442    440    443    445     1  0.0000000  0.6508444  3
    442    440    449    450     1  0.0000000  0.6508444  3
    442    440    449    451     1  0.0000000  0.6508444  3
    442    440    449    453     1  0.0000000  0.6508444  3
    443    440    449    450     1  0.0000000  0.6508444  3
    443    440    449    451     1  0.0000000  0.6508444  3
    443    440    449    453     1  0.0000000  0.6508444  3
    444    443    440    449     1  0.0000000  0.6508444  3
    444    443    446    452     1  0.0000000  1.0460000  1
    444    443    446    452     1  0.0000000  0.0000000  3
    444    443    446    447     1  0.0000000  0.6508444  3
    444    443    446    448     1  0.0000000  0.6508444  3
    445    443    440    449     1  0.0000000  0.6508444  3
    445    443    446    452     1  0.0000000  1.0460000  1
    445    443    446    452     1  0.0000000  0.0000000  3
    445    443    446    447     1  0.0000000  0.6508444  3
    445    443    446    448     1  0.0000000  0.6508444  3
    454    457    460    461     1  0.0000000  0.6508444  3
    454    457    460    462     1  0.0000000  0.6508444  3
    455    454    457    460     1  0.0000000  0.6508444  3
    455    454    457    458     1  0.0000000  0.6508444  3
    455    454    457    459     1  0.0000000  0.6508444  3
    455    454    463    464     1  0.0000000  0.6508444  3
    455    454    463    465     1  0.0000000  0.6508444  3
    455    454    463    467     1  0.0000000  0.6508444  3
    456    454    457    460     1  0.0000000  0.6508444  3
    456    454    457    458     1  0.0000000  0.6508444  3
    456    454    457    459     1  0.0000000  0.6508444  3
    456    454    463    464     1  0.0000000  0.6508444  3
    456    454    463    465     1  0.0000000  0.6508444  3
    456    454    463    467     1  0.0000000  0.6508444  3
    457    454    463    464     1  0.0000000  0.6508444  3
    457    454    463    465     1  0.0000000  0.6508444  3
    457    454    463    467     1  0.0000000  0.6508444  3
    458    457    460    466     1  0.0000000  1.0460000  1
    458    457    460    466     1  0.0000000  0.0000000  3
    458    457    460    461     1  0.0000000  0.6508444  3
    458    457    460    462     1  0.0000000  0.6508444  3
    458    457    454    463     1  0.0000000  0.6508444  3
    459    457    460    466     1  0.0000000  1.0460000  1
    459    457    460    466     1  0.0000000  0.0000000  3
    459    457    460    461     1  0.0000000  0.6508444  3
    459    457    460    462     1  0.0000000  0.6508444  3
    459    457    454    463     1  0.0000000  0.6508444  3

;[ system ]
;; Name
;Generic title
;
;[ molecules ]
;; Compound       #mols
;system1              1
